Title
81305
    1CHL1    C3    1   0.798   4.677  10.166  0.2151  0.7206 -0.1598
    1CHL1    H3    2   0.691   4.687  10.194 -0.5107 -0.3135 -2.3393
    1CHL1    O3    3   0.881   4.710  10.270 -0.1752 -0.3863 -0.0534
    1CHL1   H3'    4   0.888   4.643  10.338  0.5397  0.7125  0.9885
    1CHL1    C4    5   0.825   4.532  10.121 -0.1234  0.3935  0.2156
    1CHL1   H4A    6   0.935   4.516  10.123  0.1915  2.3205 -0.0741
    1CHL1   H4B    7   0.785   4.469  10.203  0.4701 -1.6820 -1.0020
    1CHL1    C5    8   0.787   4.497   9.978 -0.1154  0.3968  0.2712
    1CHL1    C6    9   0.721   4.383   9.969 -0.1845  0.1064  0.3080
    1CHL1    H6   10   0.712   4.321  10.060  0.5626  1.8249  1.6165
    1CHL1    C7   11   0.663   4.342   9.839  1.3799  0.7762 -1.1366
    1CHL1   H7A   12   0.684   4.233   9.832 -1.6529  0.0137  0.0633
    1CHL1   H7B   13   0.552   4.343   9.848  1.4122 -0.8871 -0.0100
    1CHL1    C8   14   0.705   4.421   9.718 -0.2226  0.3541 -0.2441
    1CHL1    H8   15   0.810   4.390   9.700  0.1794  0.6620  1.4347
    1CHL1   C14   16   0.606   4.399   9.603  0.2273 -0.4879  0.3815
    1CHL1   H14   17   0.510   4.436   9.643 -0.8856 -2.7553 -0.0174
    1CHL1   C15   18   0.574   4.255   9.551 -0.3553 -0.3626 -0.0967
    1CHL1  H15A   19   0.671   4.201   9.556  0.9076  1.8844  0.7586
    1CHL1  H15B   20   0.499   4.200   9.612  0.3320 -1.3745 -0.1372
    1CHL1   C16   21   0.514   4.278   9.413 -0.0817 -0.2283  0.5021
    1CHL1  H16A   22   0.583   4.224   9.345 -0.5197  1.0938 -1.0375
    1CHL1  H16B   23   0.414   4.233   9.392  0.7119 -0.2726 -4.3782
    1CHL1   C17   24   0.520   4.434   9.380  0.6131 -0.0572 -0.0333
    1CHL1   H17   25   0.432   4.485   9.423 -0.2286 -0.1286 -1.6059
    1CHL1   C13   26   0.629   4.478   9.472  0.4671  0.0252 -0.7165
    1CHL1   C18   27   0.764   4.437   9.409  0.3670 -0.0712 -0.0248
    1CHL1  H18A   28   0.801   4.497   9.322  0.3262  2.4506  1.5934
    1CHL1  H18B   29   0.846   4.449   9.484  1.1262 -0.6691 -0.7354
    1CHL1  H18C   30   0.765   4.328   9.388  2.9262 -0.1868  0.3067
    1CHL1   C12   31   0.634   4.627   9.508  0.1109  0.1831 -0.3882
    1CHL1  H12A   32   0.677   4.679   9.419  1.5249  0.2134  0.2831
    1CHL1  H12B   33   0.529   4.658   9.528 -1.0866 -2.3219 -2.2736
    1CHL1   C11   34   0.741   4.655   9.620  0.4165  0.1936  0.3895
    1CHL1  H11A   35   0.846   4.640   9.588 -0.2432  0.1759 -1.9916
    1CHL1  H11B   36   0.727   4.760   9.654 -1.6636 -0.2585  1.1277
    1CHL1    C9   37   0.710   4.570   9.752 -0.2659 -0.5116  0.3935
    1CHL1    H9   38   0.608   4.596   9.786 -0.1177  1.3401 -0.4465
    1CHL1   C10   39   0.795   4.610   9.873 -0.3906 -0.6582  0.1475
    1CHL1   C19   40   0.941   4.615   9.828 -0.7688  0.5176  0.4312
    1CHL1  H19A   41   0.964   4.522   9.772 -0.0084  1.3807 -0.7214
    1CHL1  H19B   42   0.967   4.699   9.761 -1.4578 -0.8755 -1.6828
    1CHL1  H19C   43   1.005   4.612   9.919 -1.7498  0.5188  1.1397
    1CHL1    C1   44   0.742   4.744   9.935 -0.3712  0.9873  0.2941
    1CHL1   H1A   45   0.751   4.828   9.862  0.0189  0.2919 -0.4757
    1CHL1   H1B   46   0.634   4.720   9.944 -0.3508  0.1818 -1.2083
    1CHL1    C2   47   0.816   4.783  10.063 -0.5141  0.2581 -0.1421
    1CHL1   H2A   48   0.768   4.878  10.092 -1.1886  0.1626 -0.8902
    1CHL1   H2B   49   0.922   4.800  10.033 -0.8975  2.4195 -0.3597
    1CHL1   C20   50   0.520   4.473   9.228  0.1387 -0.9281  0.1687
    1CHL1   H20   51   0.569   4.572   9.216  1.5758 -1.6679 -0.3322
    1CHL1   C21   52   0.376   4.515   9.187 -0.5187 -1.0503 -0.2376
    1CHL1  H21A   53   0.366   4.545   9.081  0.5884 -1.4606 -0.4745
    1CHL1  H21B   54   0.341   4.600   9.250 -0.7233  1.0072 -2.9642
    1CHL1  H21C   55   0.304   4.430   9.191 -1.1031 -0.5212  0.6834
    1CHL1   C22   56   0.585   4.378   9.125 -0.5141 -0.2156  0.6318
    1CHL1  H22A   57   0.671   4.327   9.171 -0.9497 -0.3045  1.3643
    1CHL1  H22B   58   0.509   4.299   9.104  1.0316 -1.7813  0.7264
    1CHL1   C23   59   0.636   4.452   9.005  0.6270 -0.2894  0.6833
    1CHL1  H23A   60   0.557   4.523   8.971  0.4445 -1.0387 -0.5256
    1CHL1  H23B   61   0.710   4.529   9.037 -0.2427  1.1730 -0.6326
    1CHL1   C24   62   0.681   4.360   8.888  0.5806 -0.2524  0.7938
    1CHL1  H24A   63   0.761   4.291   8.924  1.3823  0.6269  0.7479
    1CHL1  H24B   64   0.591   4.296   8.884 -0.5950  1.3438  0.9682
    1CHL1   C25   65   0.714   4.437   8.761 -0.0969 -0.0890 -1.2124
    1CHL1   H25   66   0.800   4.505   8.777 -0.3703 -0.0924  0.4053
    1CHL1   C26   67   0.766   4.340   8.649  0.1534 -0.5061 -0.0776
    1CHL1  H26A   68   0.802   4.399   8.562 -0.2318 -0.8845 -0.5026
    1CHL1  H26B   69   0.858   4.295   8.693 -0.9047 -0.5467  2.2189
    1CHL1  H26C   70   0.699   4.265   8.600  0.0269  0.4552 -1.4241
    1CHL1   C27   71   0.591   4.519   8.705  0.1220  0.7871 -0.3126
    1CHL1  H27A   72   0.497   4.461   8.706  0.3678  0.2231 -2.9598
    1CHL1  H27B   73   0.576   4.599   8.781  1.9732 -1.1135  2.2001
    1CHL1  H27C   74   0.611   4.550   8.600 -1.4200 -0.8548 -1.1278
    2CHL1    C3   75   2.060   3.437   9.985 -0.4353 -0.1627 -0.4395
    2CHL1    H3   76   2.146   3.490   9.939  0.9747 -1.1487  0.9553
    2CHL1    O3   77   2.082   3.434  10.123 -0.0294 -0.2527 -0.0246
    2CHL1   H3'   78   2.000   3.397  10.157 -1.4170  0.8450 -1.9905
    2CHL1    C4   79   1.933   3.514   9.941  0.3368 -0.5019  0.7766
    2CHL1   H4A   80   1.852   3.488  10.012 -0.8260 -2.4408 -1.1623
    2CHL1   H4B   81   1.953   3.623   9.949  0.6448 -0.3470 -1.5332
    2CHL1    C5   82   1.874   3.485   9.798  0.2431  0.6980  0.1420
    2CHL1    C6   83   1.840   3.587   9.712 -0.3104  0.0823 -0.2179
    2CHL1    H6   84   1.836   3.694   9.738 -0.7118  0.2882 -1.1014
    2CHL1    C7   85   1.789   3.564   9.575  0.0177  0.3395  0.9125
    2CHL1   H7A   86   1.704   3.632   9.551 -0.6830 -1.0457 -0.8158
    2CHL1   H7B   87   1.871   3.591   9.506 -1.7735  1.2415 -0.9889
    2CHL1    C8   88   1.757   3.415   9.540  0.4083 -0.7476  0.2227
    2CHL1    H8   89   1.661   3.387   9.588  1.2279 -3.2146  0.5916
    2CHL1   C14   90   1.743   3.387   9.393 -0.2388 -0.9444  0.0418
    2CHL1   H14   91   1.849   3.391   9.359  0.1687 -0.9923  1.2575
    2CHL1   C15   92   1.670   3.495   9.298 -0.6172  0.0021 -0.0956
    2CHL1  H15A   93   1.573   3.517   9.347  0.6062 -3.3766  4.5652
    2CHL1  H15B   94   1.728   3.587   9.276  0.9401 -1.5135 -2.6927
    2CHL1   C16   95   1.657   3.411   9.170 -0.7910 -0.2442 -0.2443
    2CHL1  H16A   96   1.556   3.427   9.126 -0.8163  1.1379  0.2610
    2CHL1  H16B   97   1.734   3.439   9.096  0.0949  0.8993  1.0538
    2CHL1   C17   98   1.692   3.259   9.204  0.0445  0.0526 -0.2999
    2CHL1   H17   99   1.797   3.242   9.171 -0.2672 -1.3351 -0.6864
    2CHL1   C13  100   1.698   3.246   9.359  0.4260  0.1160 -0.1756
    2CHL1   C18  101   1.552   3.231   9.410 -0.4950 -0.7952  0.1878
    2CHL1  H18A  102   1.505   3.137   9.374 -1.6382 -0.3409  0.4528
    2CHL1  H18B  103   1.543   3.229   9.520  1.1286 -2.0707  0.3309
    2CHL1  H18C  104   1.496   3.315   9.364 -0.3999 -1.8309 -1.9551
    2CHL1   C12  105   1.801   3.154   9.416 -0.2203 -0.4014  1.0101
    2CHL1  H12A  106   1.756   3.054   9.403 -0.9211 -0.4074  3.0473
    2CHL1  H12B  107   1.901   3.164   9.368 -0.7434  2.7975  0.3628
    2CHL1   C11  108   1.810   3.163   9.567 -0.4275  0.3168  0.5637
    2CHL1  H11A  109   1.709   3.150   9.612 -0.4995  2.5767  1.1830
    2CHL1  H11B  110   1.877   3.090   9.616  0.3939  2.2678  2.5142
    2CHL1    C9  111   1.853   3.313   9.598 -0.3294 -0.2634  0.0595
    2CHL1    H9  112   1.948   3.339   9.546 -0.5309  0.8711  0.2251
    2CHL1   C10  113   1.879   3.335   9.756 -0.3890  0.2811  0.0615
    2CHL1   C19  114   1.757   3.278   9.831 -0.0802 -0.4031 -0.0741
    2CHL1  H19A  115   1.759   3.288   9.941 -0.5539 -0.4136 -0.0638
    2CHL1  H19B  116   1.670   3.338   9.797  0.5108 -0.4392 -1.7666
    2CHL1  H19C  117   1.738   3.169   9.815 -0.3517 -0.2455 -0.8447
    2CHL1    C1  118   2.021   3.279   9.793 -0.1019  0.6349  0.6867
    2CHL1   H1A  119   2.012   3.172   9.764  0.8958  0.9632 -0.9692
    2CHL1   H1B  120   2.099   3.322   9.726 -0.0147 -0.6784 -0.0952
    2CHL1    C2  121   2.050   3.291   9.938  0.0843  1.0774  0.6459
    2CHL1   H2A  122   2.142   3.238   9.969 -1.0807 -0.5274  1.5032
    2CHL1   H2B  123   1.964   3.246   9.993  0.0436 -2.0207 -1.6944
    2CHL1   C20  124   1.609   3.155   9.119  0.2118 -0.3814  0.7665
    2CHL1   H20  125   1.511   3.145   9.170 -0.5223  1.0427 -0.2878
    2CHL1   C21  126   1.675   3.021   9.127 -0.2407  0.7188  0.1527
    2CHL1  H21A  127   1.630   2.948   9.056  0.6564  0.6368 -0.3391
    2CHL1  H21B  128   1.668   2.969   9.225  0.3032 -5.0546 -2.4285
    2CHL1  H21C  129   1.780   3.043   9.100 -0.4059  4.2200  1.7581
    2CHL1   C22  130   1.570   3.194   8.974  0.4198 -0.0480  0.8570
    2CHL1  H22A  131   1.513   3.109   8.931  2.1593 -0.8877  0.1128
    2CHL1  H22B  132   1.493   3.273   8.984  2.0027  1.6543  0.2556
    2CHL1   C23  133   1.678   3.241   8.873  0.2855 -0.5718  0.1849
    2CHL1  H23A  134   1.750   3.316   8.912  1.2466 -1.9296  1.1345
    2CHL1  H23B  135   1.746   3.154   8.860  2.5224  0.9524  1.0522
    2CHL1   C24  136   1.631   3.280   8.735  0.1409  0.1189  0.5553
    2CHL1  H24A  137   1.618   3.185   8.679  1.9310 -0.2752  0.7178
    2CHL1  H24B  138   1.533   3.331   8.742 -1.5957 -2.4267 -2.3861
    2CHL1   C25  139   1.717   3.372   8.650  0.3014 -0.1813  0.3139
    2CHL1   H25  140   1.817   3.323   8.654 -0.2345 -1.2061  2.5886
    2CHL1   C26  141   1.670   3.386   8.504 -0.0318  0.4340 -0.3970
    2CHL1  H26A  142   1.723   3.466   8.449 -1.1011  0.1339 -1.9303
    2CHL1  H26B  143   1.692   3.283   8.469  1.1838  0.4105  0.3906
    2CHL1  H26C  144   1.561   3.394   8.480 -0.2972 -0.8084  0.3004
    2CHL1   C27  145   1.735   3.513   8.719  0.1239  0.2578 -0.1110
    2CHL1  H27A  146   1.648   3.535   8.785 -1.8959 -1.9466 -1.8433
    2CHL1  H27B  147   1.831   3.499   8.773 -0.1080 -4.5554 -0.5098
    2CHL1  H27C  148   1.738   3.593   8.642  1.0080  0.1300 -0.2119
    3CHL1    C3  149   3.208   1.885  10.164 -0.9070 -0.1025 -0.5114
    3CHL1    H3  150   3.122   1.833  10.212 -1.8108  1.4179 -0.3864
    3CHL1    O3  151   3.295   1.915  10.275  0.1557 -0.3782  0.3881
    3CHL1   H3'  152   3.382   1.900  10.238 -0.0317  0.6016 -0.5237
    3CHL1    C4  153   3.279   1.786  10.070  0.1359 -0.3614 -0.3932
    3CHL1   H4A  154   3.383   1.818  10.047  0.3093 -1.2981 -0.9815
    3CHL1   H4B  155   3.309   1.691  10.120  0.7855  0.1262  0.1598
    3CHL1    C5  156   3.192   1.763   9.946 -0.6358 -0.9835  0.1394
    3CHL1    C6  157   3.177   1.640   9.896 -0.0724 -0.7116 -0.5218
    3CHL1    H6  158   3.236   1.555   9.934 -1.0426 -1.0168  0.3781
    3CHL1    C7  159   3.107   1.613   9.764 -0.0303 -0.1325 -0.1505
    3CHL1   H7A  160   3.174   1.557   9.696  1.3554  0.6068  0.5490
    3CHL1   H7B  161   3.032   1.533   9.778  0.0158 -0.0549  0.6308
    3CHL1    C8  162   3.056   1.733   9.694  0.7747 -0.0005 -0.1232
    3CHL1    H8  163   3.131   1.775   9.623 -1.7216  3.1542 -1.1803
    3CHL1   C14  164   2.943   1.684   9.597 -0.5939 -0.4963 -1.5272
    3CHL1   H14  165   2.856   1.658   9.661 -1.2740  1.2507 -1.6726
    3CHL1   C15  166   2.966   1.571   9.498 -0.1271 -0.1867 -0.0846
    3CHL1  H15A  167   3.066   1.577   9.449  1.2306  0.1136  2.5826
    3CHL1  H15B  168   2.963   1.472   9.547  0.7353 -0.3421 -0.3260
    3CHL1   C16  169   2.852   1.581   9.397 -0.6366  0.1938 -0.2675
    3CHL1  H16A  170   2.886   1.588   9.291  1.5511  0.1975  0.3850
    3CHL1  H16B  171   2.784   1.493   9.405  0.6252 -0.7171  0.7762
    3CHL1   C17  172   2.777   1.712   9.442  0.5647 -0.1419 -0.2407
    3CHL1   H17  173   2.697   1.689   9.516  0.0892  0.8034 -0.4421
    3CHL1   C13  174   2.883   1.793   9.510  0.0323 -0.1840 -0.1823
    3CHL1   C18  175   2.981   1.858   9.409 -0.8966  0.3204  0.2999
    3CHL1  H18A  176   3.082   1.888   9.445 -1.4105  1.6266  0.7141
    3CHL1  H18B  177   3.004   1.791   9.323 -0.6096  0.7259  0.0534
    3CHL1  H18C  178   2.940   1.953   9.368  0.5447  1.3139  1.0613
    3CHL1   C12  179   2.828   1.895   9.608  0.0810 -0.3766  0.1071
    3CHL1  H12A  180   2.777   1.979   9.556  1.6392 -0.6323 -1.9977
    3CHL1  H12B  181   2.754   1.842   9.672  0.8340 -2.0883 -0.3844
    3CHL1   C11  182   2.932   1.950   9.711 -0.6080 -0.2275 -0.4523
    3CHL1  H11A  183   3.011   2.006   9.657  1.6602 -4.0781 -1.5358
    3CHL1  H11B  184   2.891   2.016   9.790 -1.1957 -2.2806  1.0672
    3CHL1    C9  185   3.007   1.841   9.791 -0.7211  0.5485  0.4914
    3CHL1    H9  186   2.930   1.790   9.852 -1.3746  0.5594 -0.3186
    3CHL1   C10  187   3.117   1.884   9.888 -0.2674 -0.1444  0.3091
    3CHL1   C19  188   3.217   1.974   9.806 -0.6835  0.0741 -0.4788
    3CHL1  H19A  189   3.178   2.074   9.778  1.7336  1.6652  1.3639
    3CHL1  H19B  190   3.305   2.004   9.868 -2.1578 -1.4023  2.5263
    3CHL1  H19C  191   3.243   1.919   9.713 -1.3914 -0.8235 -0.1576
    3CHL1    C1  192   3.058   1.970   9.999  0.1172 -1.2742  0.1994
    3CHL1   H1A  193   3.033   2.068   9.952  0.1237 -1.5279 -0.3404
    3CHL1   H1B  194   2.965   1.931  10.046 -1.6828  3.1601  0.7716
    3CHL1    C2  195   3.167   2.012  10.098  0.4838 -0.6218 -0.2671
    3CHL1   H2A  196   3.125   2.080  10.175  1.3525 -0.5162  0.1251
    3CHL1   H2B  197   3.258   2.060  10.054  0.2506  0.2566  0.1836
    3CHL1   C20  198   2.690   1.788   9.333 -0.0101 -0.8513  0.3993
    3CHL1   H20  199   2.760   1.859   9.283  1.3863 -1.8766  0.8420
    3CHL1   C21  200   2.567   1.860   9.396  0.5681  0.4596 -0.3590
    3CHL1  H21A  201   2.515   1.801   9.474  0.1014  2.4658  0.8992
    3CHL1  H21B  202   2.497   1.880   9.312 -0.2045 -0.8444 -0.0536
    3CHL1  H21C  203   2.597   1.959   9.436 -0.3359  0.7017 -0.2611
    3CHL1   C22  204   2.635   1.692   9.224  0.1873  0.2625  0.2169
    3CHL1  H22A  205   2.704   1.606   9.204  0.8626  0.6503  0.8290
    3CHL1  H22B  206   2.544   1.642   9.262 -0.0529  0.3137 -0.2809
    3CHL1   C23  207   2.595   1.754   9.087  0.3133 -0.0873 -0.2459
    3CHL1  H23A  208   2.512   1.821   9.116 -0.2630 -0.5882 -0.7005
    3CHL1  H23B  209   2.673   1.801   9.023 -2.5575  0.3051 -3.8230
    3CHL1   C24  210   2.528   1.648   8.995  0.8532  0.1229 -0.2614
    3CHL1  H24A  211   2.593   1.559   9.002  2.9356  1.6066  0.2338
    3CHL1  H24B  212   2.431   1.618   9.041  1.2535  0.5938  0.9472
    3CHL1   C25  213   2.522   1.696   8.854  0.2098  0.0057  0.0468
    3CHL1   H25  214   2.628   1.709   8.823  0.1623 -0.3986 -0.2832
    3CHL1   C26  215   2.454   1.598   8.757 -0.3014 -0.5444  0.5348
    3CHL1  H26A  216   2.505   1.500   8.749  0.8954  0.1479 -1.3481
    3CHL1  H26B  217   2.344   1.597   8.771 -0.3561  1.5359  0.6111
    3CHL1  H26C  218   2.472   1.632   8.652 -0.0310 -1.7400  0.1840
    3CHL1   C27  219   2.457   1.839   8.835 -0.0088 -0.0532 -0.0137
    3CHL1  H27A  220   2.363   1.850   8.893  0.1689 -1.8345  0.6900
    3CHL1  H27B  221   2.530   1.917   8.864 -0.6180  0.6239 -0.2962
    3CHL1  H27C  222   2.433   1.845   8.726 -0.2102  0.3876  0.0545
    4CHL1    C3  223   3.054   4.040  10.377 -0.5908  0.2362 -0.5083
    4CHL1    H3  224   3.094   3.944  10.339 -1.6344  0.2288 -1.6491
    4CHL1    O3  225   3.044   4.052  10.520 -0.2025  0.5647 -0.3238
    4CHL1   H3'  226   2.961   4.007  10.539  0.3076 -0.0529  0.5216
    4CHL1    C4  227   3.153   4.152  10.323 -0.5682  0.3839  0.6813
    4CHL1   H4A  228   3.125   4.248  10.372 -0.2839  0.0857  1.4450
    4CHL1   H4B  229   3.255   4.121  10.355 -0.5027  1.2567  1.3781
    4CHL1    C5  230   3.161   4.156  10.173 -0.1201  0.3048 -0.2180
    4CHL1    C6  231   3.277   4.130  10.106  0.6605  0.3020  0.3708
    4CHL1    H6  232   3.370   4.132  10.166 -0.1555 -0.1606  1.6867
    4CHL1    C7  233   3.283   4.139   9.958  0.5746 -0.2737  0.3189
    4CHL1   H7A  234   3.378   4.190   9.933 -1.3204  4.9601  2.4757
    4CHL1   H7B  235   3.291   4.034   9.923 -0.8625 -1.1179  2.3282
    4CHL1    C8  236   3.166   4.208   9.887  0.6366 -0.5052  0.1773
    4CHL1    H8  237   3.173   4.318   9.903  0.7329 -0.2246 -1.6103
    4CHL1   C14  238   3.176   4.175   9.739  0.8585 -0.7705  0.7136
    4CHL1   H14  239   3.160   4.065   9.732  0.7793 -0.8573  2.0133
    4CHL1   C15  240   3.305   4.203   9.667  0.1830 -0.0478  0.1063
    4CHL1  H15A  241   3.355   4.296   9.699  1.0876 -0.1596 -0.9409
    4CHL1  H15B  242   3.381   4.123   9.678  1.3665  1.2294  1.7786
    4CHL1   C16  243   3.257   4.226   9.517 -0.4159 -0.0417  0.2764
    4CHL1  H16A  244   3.288   4.327   9.483 -0.7208 -0.0778 -0.1117
    4CHL1  H16B  245   3.305   4.152   9.449  0.3861  0.1279  0.6444
    4CHL1   C17  246   3.108   4.214   9.517  0.4723 -0.1300 -0.3169
    4CHL1   H17  247   3.077   4.108   9.511  2.3522 -0.8531  1.4176
    4CHL1   C13  248   3.069   4.248   9.661 -0.4001 -0.2676 -0.1400
    4CHL1   C18  249   3.089   4.403   9.676  0.3543 -0.1111 -0.3292
    4CHL1  H18A  250   3.191   4.442   9.654  1.5136 -2.4526  0.5091
    4CHL1  H18B  251   3.029   4.456   9.599  3.6565  1.7102 -1.9143
    4CHL1  H18C  252   3.060   4.440   9.776  0.1498 -1.1200 -0.0080
    4CHL1   C12  253   2.929   4.209   9.705  0.5023  0.7368 -0.0365
    4CHL1  H12A  254   2.856   4.277   9.657  0.3729  1.9574  1.7846
    4CHL1  H12B  255   2.914   4.109   9.660  1.3086 -1.0353  3.2764
    4CHL1   C11  256   2.901   4.209   9.857 -1.0999 -0.1947 -0.2150
    4CHL1  H11A  257   2.874   4.315   9.881 -2.0121 -0.8113  1.6517
    4CHL1  H11B  258   2.808   4.155   9.885  0.1192 -1.7693  0.9405
    4CHL1    C9  259   3.033   4.160   9.945  0.4221 -0.4219  0.1305
    4CHL1    H9  260   3.032   4.050   9.928  1.1126 -0.4591  0.2896
    4CHL1   C10  261   3.021   4.176  10.099 -0.0103 -0.2191  0.1607
    4CHL1   C19  262   2.977   4.322  10.122 -0.2401  0.0868  0.0648
    4CHL1  H19A  263   3.022   4.397  10.053 -1.8628  1.2143  0.1735
    4CHL1  H19B  264   2.869   4.336  10.104 -0.5030 -1.4337  0.3153
    4CHL1  H19C  265   3.003   4.358  10.223  1.1675  1.1682 -0.6363
    4CHL1    C1  266   2.928   4.065  10.161 -0.4571  0.4066  0.6071
    4CHL1   H1A  267   2.831   4.070  10.106 -0.5827 -3.9865  0.0517
    4CHL1   H1B  268   2.981   3.970  10.135 -1.9627  0.1480 -1.8707
    4CHL1    C2  269   2.922   4.073  10.310  0.4400 -0.5400  0.2840
    4CHL1   H2A  270   2.857   3.992  10.350 -0.7117 -0.8087 -1.9637
    4CHL1   H2B  271   2.887   4.171  10.348  1.7872  0.5421 -1.1509
    4CHL1   C20  272   3.057   4.281   9.390  0.5849 -0.7400  0.1373
    4CHL1   H20  273   3.093   4.386   9.396  0.8866 -0.8232 -0.2356
    4CHL1   C21  274   2.899   4.290   9.383 -0.1715 -0.4858 -1.0751
    4CHL1  H21A  275   2.868   4.329   9.284  0.2990  4.5497  0.5248
    4CHL1  H21B  276   2.874   4.372   9.454  0.7832 -1.2328  0.1757
    4CHL1  H21C  277   2.850   4.198   9.422 -0.2112  0.2680  0.7706
    4CHL1   C22  278   3.111   4.225   9.259  0.1245 -0.7357  0.0310
    4CHL1  H22A  279   3.059   4.287   9.182 -2.5303 -0.4821  1.8822
    4CHL1  H22B  280   3.219   4.248   9.246 -0.2421  0.6960 -0.7710
    4CHL1   C23  281   3.085   4.074   9.222 -0.3984  0.4665  0.2390
    4CHL1  H23A  282   3.153   4.007   9.279 -0.7323 -1.7853 -1.9014
    4CHL1  H23B  283   2.981   4.050   9.251 -1.1732  4.0035  0.8413
    4CHL1   C24  284   3.116   4.042   9.076 -0.4147  0.7264  0.0303
    4CHL1  H24A  285   3.062   4.115   9.013 -0.4605 -1.0927 -2.1883
    4CHL1  H24B  286   3.223   4.060   9.050 -0.5393 -0.7228 -1.7050
    4CHL1   C25  287   3.071   3.905   9.025  0.0665  0.1577  0.7749
    4CHL1   H25  288   3.115   3.824   9.086  0.1449 -0.6562 -0.3218
    4CHL1   C26  289   2.910   3.900   9.036 -0.0669  0.0594  0.2024
    4CHL1  H26A  290   2.889   3.898   9.145  0.3303  2.4467  0.3800
    4CHL1  H26B  291   2.856   3.980   8.981 -2.2359 -0.8378  0.9623
    4CHL1  H26C  292   2.877   3.808   8.983 -2.9004  0.2407  1.5125
    4CHL1   C27  293   3.104   3.881   8.877  0.0285  0.0266  0.0869
    4CHL1  H27A  294   3.056   3.966   8.825 -1.8281  0.5015  2.4139
    4CHL1  H27B  295   3.214   3.885   8.861 -0.1479  0.6496 -1.0748
    4CHL1  H27C  296   3.063   3.785   8.839 -0.7349  0.7362 -0.9033
    5CHL1    C3  297   4.095   1.171  10.086  0.0143 -0.5551  0.2180
    5CHL1    H3  298   4.201   1.155  10.058  0.2074  0.5064  0.2887
    5CHL1    O3  299   4.075   1.161  10.227 -0.2356  0.7453  0.2721
    5CHL1   H3'  300   4.025   1.084  10.256  1.2502  0.5817  2.6204
    5CHL1    C4  301   4.043   1.305  10.025  0.1130 -0.1696  0.2697
    5CHL1   H4A  302   3.948   1.338  10.073 -0.0529  0.5961 -0.5657
    5CHL1   H4B  303   4.112   1.385  10.059  0.9763 -0.8826  0.2307
    5CHL1    C5  304   4.046   1.311   9.874  0.5184  0.3255  0.5552
    5CHL1    C6  305   4.106   1.404   9.803  0.2680 -0.7227  0.0272
    5CHL1    H6  306   4.144   1.486   9.866 -1.6667 -0.0864  0.4440
    5CHL1    C7  307   4.112   1.422   9.654  0.8374 -0.1587  0.0431
    5CHL1   H7A  308   4.086   1.524   9.619  2.7013  0.3798  0.1112
    5CHL1   H7B  309   4.216   1.399   9.622  0.3573 -0.8269 -1.0980
    5CHL1    C8  310   4.014   1.329   9.588  0.0899  0.6020  1.0265
    5CHL1    H8  311   3.918   1.383   9.600  0.5392  1.2729  1.6385
    5CHL1   C14  312   4.035   1.317   9.440 -0.1335 -0.3894 -0.7339
    5CHL1   H14  313   4.132   1.264   9.434 -0.6047 -1.2088 -1.2292
    5CHL1   C15  314   4.066   1.457   9.368 -0.2836  0.0582 -0.8145
    5CHL1  H15A  315   3.998   1.531   9.415  0.9272  0.4856  0.3414
    5CHL1  H15B  316   4.175   1.475   9.382 -0.5211  0.7729  0.1781
    5CHL1   C16  317   4.031   1.428   9.225  0.6813  0.6312 -0.1172
    5CHL1  H16A  318   3.942   1.485   9.190 -0.9014  0.0302  2.6316
    5CHL1  H16B  319   4.117   1.443   9.156  0.6087  0.0369 -0.3399
    5CHL1   C17  320   3.984   1.276   9.214 -0.1698  0.0075 -0.7653
    5CHL1   H17  321   4.079   1.219   9.212  0.4504  0.4109  4.3357
    5CHL1   C13  322   3.931   1.240   9.357  0.4003  0.3046 -0.0090
    5CHL1   C18  323   3.793   1.298   9.382  0.4889 -0.7787  0.1438
    5CHL1  H18A  324   3.787   1.409   9.369 -0.8505 -0.8213  0.2533
    5CHL1  H18B  325   3.709   1.269   9.315  0.9635  2.7255 -2.2653
    5CHL1  H18C  326   3.768   1.271   9.487  1.9917 -2.5934  0.0838
    5CHL1   C12  327   3.950   1.097   9.412 -0.2566  1.0841 -1.2378
    5CHL1  H12A  328   3.882   1.024   9.364  0.4375 -1.0612  0.8373
    5CHL1  H12B  329   4.051   1.053   9.397 -0.9192 -2.0204  1.9921
    5CHL1   C11  330   3.932   1.083   9.569 -0.0639  0.3805 -0.0901
    5CHL1  H11A  331   3.823   1.096   9.584 -0.1802  0.3819 -0.8840
    5CHL1  H11B  332   3.955   0.981   9.607 -0.3021  0.5054  0.3967
    5CHL1    C9  333   4.015   1.186   9.653 -0.2753  0.4119  0.5073
    5CHL1    H9  334   4.121   1.153   9.643 -0.1363  1.0732 -0.3470
    5CHL1   C10  335   3.982   1.194   9.806  0.3344  0.0235 -0.1251
    5CHL1   C19  336   3.824   1.213   9.816 -0.1617 -0.4384  0.0779
    5CHL1  H19A  337   3.808   1.229   9.925 -3.2581 -0.5607 -0.2794
    5CHL1  H19B  338   3.781   1.303   9.768  1.3775  0.6228  0.6111
    5CHL1  H19C  339   3.770   1.118   9.798  2.0653 -1.7864  0.1122
    5CHL1    C1  340   4.015   1.062   9.874 -0.9810  0.3558 -0.1997
    5CHL1   H1A  341   3.958   0.974   9.838 -1.0167  0.8810 -1.4567
    5CHL1   H1B  342   4.120   1.030   9.858 -1.1591 -0.3161 -0.0580
    5CHL1    C2  343   4.009   1.062  10.019  1.0111  0.4556 -0.9830
    5CHL1   H2A  344   4.043   0.961  10.052  0.8764  1.2691  1.9533
    5CHL1   H2B  345   3.906   1.078  10.058  1.2390  1.4381 -0.7473
    5CHL1   C20  346   3.892   1.246   9.100  0.5915  0.1282  0.0838
    5CHL1   H20  347   3.799   1.305   9.120  1.3434  2.2511 -2.1481
    5CHL1   C21  348   3.870   1.099   9.084 -0.5526  0.7438 -0.0778
    5CHL1  H21A  349   3.967   1.046   9.071  0.1650  1.4061  2.1157
    5CHL1  H21B  350   3.814   1.081   8.989  0.9495  0.8961 -1.0205
    5CHL1  H21C  351   3.821   1.057   9.175  0.2730 -1.5609 -0.6131
    5CHL1   C22  352   3.948   1.302   8.967 -0.3410 -0.0540  0.7834
    5CHL1  H22A  353   3.992   1.403   8.972  0.9908 -0.6129  0.7037
    5CHL1  H22B  354   4.027   1.234   8.928 -2.4407 -2.5133  0.5588
    5CHL1   C23  355   3.844   1.315   8.857  0.9011  0.1780 -0.2542
    5CHL1  H23A  356   3.802   1.215   8.833 -1.5006  0.2864  2.8752
    5CHL1  H23B  357   3.760   1.377   8.896  0.5214 -0.9547  0.8200
    5CHL1   C24  358   3.899   1.377   8.724 -0.4341  0.3726 -0.8729
    5CHL1  H24A  359   3.816   1.396   8.654 -1.3056  2.3839  0.6074
    5CHL1  H24B  360   3.935   1.477   8.756  0.6708 -0.2819  0.0664
    5CHL1   C25  361   4.016   1.304   8.652  0.4409  0.5729  0.9084
    5CHL1   H25  362   4.108   1.337   8.706 -1.0124  1.6599  2.8836
    5CHL1   C26  363   4.002   1.150   8.649  0.4791  0.1699 -0.2521
    5CHL1  H26A  364   4.054   1.107   8.561 -1.6527 -0.7078 -1.1437
    5CHL1  H26B  365   4.028   1.096   8.743 -1.1132 -1.7192 -0.8362
    5CHL1  H26C  366   3.897   1.121   8.627  1.2844 -1.4506 -2.1865
    5CHL1   C27  367   4.034   1.361   8.507 -0.4991  0.1655  0.6145
    5CHL1  H27A  368   3.932   1.352   8.464  0.1368  1.1875 -1.2236
    5CHL1  H27B  369   4.078   1.464   8.511  0.5516 -0.1390 -1.6602
    5CHL1  H27C  370   4.121   1.301   8.473 -0.3414  0.3178  0.7419
    6CHL1    C3  371   2.073   6.229  10.464  0.6858  0.7417 -0.1215
    6CHL1    H3  372   2.093   6.330  10.422 -0.4336  1.6591  1.4219
    6CHL1    O3  373   2.060   6.239  10.603 -0.6488 -0.0096  0.2534
    6CHL1   H3'  374   2.114   6.315  10.628 -1.1923  0.7620 -0.8311
    6CHL1    C4  375   1.931   6.186  10.418  1.1774 -0.4115  0.3141
    6CHL1   H4A  376   1.899   6.089  10.462  1.0755 -0.2369  0.6244
    6CHL1   H4B  377   1.857   6.262  10.451  0.6333 -1.6273  2.0508
    6CHL1    C5  378   1.933   6.165  10.265 -0.3231 -0.2918  0.1028
    6CHL1    C6  379   1.851   6.234  10.183 -0.7099 -0.0869  0.2200
    6CHL1    H6  380   1.791   6.317  10.224  2.0439  2.7958 -1.1798
    6CHL1    C7  381   1.854   6.211  10.034  0.6707 -0.2443  0.0741
    6CHL1   H7A  382   1.751   6.208   9.993  1.2259  0.5459 -1.4402
    6CHL1   H7B  383   1.888   6.306   9.988  0.5085  0.3439  1.1360
    6CHL1    C8  384   1.933   6.091   9.980 -0.0022 -0.5152 -0.7053
    6CHL1    H8  385   1.871   6.000   9.992  1.4574 -1.3085  1.4212
    6CHL1   C14  386   1.967   6.106   9.836 -0.2413  0.1864  0.7411
    6CHL1   H14  387   2.022   6.203   9.843  0.6493 -0.4277  3.3224
    6CHL1   C15  388   1.849   6.124   9.734  0.6343  0.2526 -0.3353
    6CHL1  H15A  389   1.770   6.046   9.744 -0.8879  1.7791  0.0876
    6CHL1  H15B  390   1.808   6.227   9.748 -1.1131 -0.3758 -0.6186
    6CHL1   C16  391   1.916   6.102   9.596  0.0331  0.1735 -0.2303
    6CHL1  H16A  392   1.860   6.019   9.548 -1.0151  1.4830 -1.3917
    6CHL1  H16B  393   1.908   6.182   9.519 -0.0430  0.4628  0.0780
    6CHL1   C17  394   2.066   6.067   9.622 -0.4560 -0.2559 -0.6471
    6CHL1   H17  395   2.117   6.164   9.639  1.5113 -1.4030  0.4010
    6CHL1   C13  396   2.062   6.001   9.766  0.0348 -1.1810  0.4432
    6CHL1   C18  397   1.992   5.862   9.768  0.6113  1.3294 -0.5283
    6CHL1  H18A  398   1.884   5.861   9.795  0.8487 -0.9894  0.5308
    6CHL1  H18B  399   2.013   5.807   9.674  0.5293  1.2062 -0.4751
    6CHL1  H18C  400   2.035   5.794   9.844 -2.1108 -0.9052 -0.8194
    6CHL1   C12  401   2.192   5.997   9.852  0.2637 -0.3067  0.4558
    6CHL1  H12A  402   2.265   5.920   9.819  1.0947  0.0174  1.4991
    6CHL1  H12B  403   2.242   6.092   9.825  0.4812 -0.5036  0.1632
    6CHL1   C11  404   2.170   5.982  10.000  0.3541 -0.3346  0.1973
    6CHL1  H11A  405   2.126   5.883  10.022 -0.8611  0.2421  0.4077
    6CHL1  H11B  406   2.266   6.001  10.053 -0.3953 -2.1182  2.3502
    6CHL1    C9  407   2.065   6.080  10.061  0.7265 -0.7778  0.1454
    6CHL1    H9  408   2.112   6.179  10.044 -0.0848 -0.1661  1.2856
    6CHL1   C10  409   2.045   6.075  10.214  0.2269  0.2817  0.4713
    6CHL1   C19  410   1.998   5.928  10.236 -0.8790  0.1568 -0.0330
    6CHL1  H19A  411   1.933   5.891  10.154 -1.4489  3.3716 -1.1818
    6CHL1  H19B  412   2.091   5.868  10.228 -0.3083  0.6204  2.5106
    6CHL1  H19C  413   1.945   5.898  10.328 -0.8214 -1.9792 -0.6515
    6CHL1    C1  414   2.180   6.097  10.289  0.0301 -0.3932 -0.0600
    6CHL1   H1A  415   2.255   6.017  10.274  2.0972  1.2913  0.7441
    6CHL1   H1B  416   2.220   6.188  10.239 -1.7993  1.3230  1.4219
    6CHL1    C2  417   2.176   6.127  10.435  0.5816  0.4715  0.3095
    6CHL1   H2A  418   2.280   6.146  10.470  0.9154  1.4660 -1.1702
    6CHL1   H2B  419   2.142   6.030  10.478  1.0793 -0.5103 -1.4156
    6CHL1   C20  420   2.140   5.993   9.506  0.0928 -0.0297  0.2668
    6CHL1   H20  421   2.103   5.888   9.508 -0.7088  0.2050 -1.0942
    6CHL1   C21  422   2.294   5.984   9.542  0.4180  0.2171  0.0134
    6CHL1  H21A  423   2.361   5.953   9.459  1.8101 -1.8029  1.7852
    6CHL1  H21B  424   2.323   5.909   9.619  1.5698  1.5618  0.9326
    6CHL1  H21C  425   2.343   6.079   9.570  1.8343 -0.5100  0.0676
    6CHL1   C22  426   2.127   6.061   9.370  0.8154 -1.3289  0.0010
    6CHL1  H22A  427   2.029   6.109   9.348  1.6112 -0.7989 -2.8396
    6CHL1  H22B  428   2.207   6.138   9.366  1.2220 -1.4971  2.9762
    6CHL1   C23  429   2.162   5.969   9.255 -0.2087  0.0195 -0.2291
    6CHL1  H23A  430   2.266   5.934   9.270 -0.7412 -1.2361  0.7361
    6CHL1  H23B  431   2.098   5.879   9.260 -0.3054 -0.1110 -2.7485
    6CHL1   C24  432   2.165   6.043   9.120  0.4821  0.1603 -0.0822
    6CHL1  H24A  433   2.071   6.092   9.087  0.7311 -1.0510 -2.8947
    6CHL1  H24B  434   2.223   6.134   9.144 -0.5103  0.1000  2.9002
    6CHL1   C25  435   2.227   5.959   9.007 -0.4260 -0.3916 -0.3593
    6CHL1   H25  436   2.301   5.892   9.057 -0.2145  2.5016  3.7243
    6CHL1   C26  437   2.121   5.877   8.937  0.2563 -0.0971 -0.2537
    6CHL1  H26A  438   2.164   5.783   8.896 -0.9292 -0.7091 -0.1464
    6CHL1  H26B  439   2.041   5.846   9.007  0.5838 -1.3506 -0.4090
    6CHL1  H26C  440   2.079   5.935   8.852  2.3372  0.0495 -1.2521
    6CHL1   C27  441   2.309   6.042   8.909 -0.0848  0.3861 -0.0099
    6CHL1  H27A  442   2.242   6.118   8.861 -0.2852  0.4629  0.3864
    6CHL1  H27B  443   2.396   6.096   8.952  0.8579  0.7085 -2.1997
    6CHL1  H27C  444   2.341   5.974   8.827  0.1018 -1.1758  1.3251
    7CHL1    C3  445   4.044   2.518  10.285 -0.5200  0.2542 -0.1823
    7CHL1    H3  446   4.140   2.567  10.257 -0.1754 -0.0291  0.4751
    7CHL1    O3  447   4.026   2.505  10.429 -0.0201 -0.3246  0.0538
    7CHL1   H3'  448   4.108   2.471  10.465  0.1979  0.3629  0.2159
    7CHL1    C4  449   3.922   2.589  10.230  0.4529 -0.3881  0.3876
    7CHL1   H4A  450   3.830   2.556  10.283  0.9700 -0.5803  1.1952
    7CHL1   H4B  451   3.942   2.691  10.270 -0.3122 -0.2435  0.4085
    7CHL1    C5  452   3.907   2.586  10.078  0.0669  0.1510  0.1099
    7CHL1    C6  453   3.887   2.701  10.006 -0.0921 -0.1032  0.0415
    7CHL1    H6  454   3.878   2.801  10.052 -2.1529  0.2681 -1.0881
    7CHL1    C7  455   3.877   2.705   9.855  0.0622  0.1100 -0.3929
    7CHL1   H7A  456   3.802   2.783   9.828  0.2346  0.5671  0.4169
    7CHL1   H7B  457   3.975   2.745   9.821  2.0618 -0.2680  4.1927
    7CHL1    C8  458   3.841   2.568   9.798 -0.5581  0.5098  0.2219
    7CHL1    H8  459   3.736   2.546   9.825 -0.3536  0.3339  0.9022
    7CHL1   C14  460   3.864   2.560   9.646  0.2352  0.0161  0.5072
    7CHL1   H14  461   3.975   2.557   9.638  0.3575  0.6729  1.7522
    7CHL1   C15  462   3.823   2.685   9.565 -1.3022 -0.1822 -0.3130
    7CHL1  H15A  463   3.721   2.717   9.594 -0.4389 -0.6348  3.8202
    7CHL1  H15B  464   3.892   2.770   9.584 -1.8851 -0.2300  2.3792
    7CHL1   C16  465   3.831   2.633   9.419 -0.3419  0.4457 -0.4308
    7CHL1  H16A  466   3.731   2.633   9.370  0.2128 -4.5572 -2.1368
    7CHL1  H16B  467   3.906   2.686   9.357 -0.1077 -1.3735 -1.7691
    7CHL1   C17  468   3.857   2.479   9.432 -0.0733 -0.0665  0.2185
    7CHL1   H17  469   3.967   2.466   9.440  0.0818  1.8562  1.7838
    7CHL1   C13  470   3.808   2.439   9.577 -0.4876  0.2285  0.5977
    7CHL1   C18  471   3.658   2.433   9.583  1.0074  0.0301 -0.1235
    7CHL1  H18A  472   3.629   2.420   9.689  1.1181  0.7607  0.0026
    7CHL1  H18B  473   3.600   2.518   9.542  0.1559  0.2435  1.4740
    7CHL1  H18C  474   3.616   2.354   9.516  2.3532 -0.0086 -0.9693
    7CHL1   C12  475   3.879   2.314   9.641 -0.6457  0.0824  0.7180
    7CHL1  H12A  476   3.822   2.222   9.615  0.7701 -1.4854  2.8232
    7CHL1  H12B  477   3.988   2.315   9.618 -0.7467  1.6591  0.2015
    7CHL1   C11  478   3.871   2.325   9.798 -1.0810 -0.1223  0.3424
    7CHL1  H11A  479   3.761   2.329   9.813 -1.4300  0.4888 -1.9664
    7CHL1  H11B  480   3.917   2.237   9.848  1.1941 -0.1949 -1.6727
    7CHL1    C9  481   3.918   2.450   9.862 -0.0402  0.0208 -0.1253
    7CHL1    H9  482   4.023   2.460   9.826 -0.3753  0.8628 -0.9181
    7CHL1   C10  483   3.918   2.447  10.016  0.2228  0.5641  0.9999
    7CHL1   C19  484   3.794   2.362  10.061  0.3356 -0.7055 -0.0404
    7CHL1  H19A  485   3.794   2.257  10.024 -1.8746 -0.1405 -1.8983
    7CHL1  H19B  486   3.767   2.361  10.168  1.0079  1.6936  0.2089
    7CHL1  H19C  487   3.702   2.408  10.018 -0.0437 -1.0126  0.4246
    7CHL1    C1  488   4.051   2.380  10.073  0.1437 -0.7163  0.8778
    7CHL1   H1A  489   4.047   2.276  10.032  0.9074 -0.4669  0.1409
    7CHL1   H1B  490   4.136   2.428  10.020 -1.1031  1.6546  0.8899
    7CHL1    C2  491   4.060   2.378  10.227 -0.5013 -0.3869  0.2932
    7CHL1   H2A  492   4.151   2.322  10.256 -0.0248 -1.2037 -2.4360
    7CHL1   H2B  493   3.974   2.319  10.266 -0.6278 -1.3827 -1.3584
    7CHL1   C20  494   3.811   2.401   9.311  0.2953 -0.2691  0.3330
    7CHL1   H20  495   3.702   2.419   9.300  0.6327  1.8085 -0.1314
    7CHL1   C21  496   3.839   2.250   9.328  0.1632 -0.4212 -0.1738
    7CHL1  H21A  497   3.804   2.196   9.238  2.1421 -0.2106 -1.1261
    7CHL1  H21B  498   3.774   2.202   9.404  1.1131 -1.2696  0.1397
    7CHL1  H21C  499   3.947   2.238   9.352  0.4808  0.8907 -0.8319
    7CHL1   C22  500   3.878   2.455   9.181  0.4312  0.2942  0.1535
    7CHL1  H22A  501   3.840   2.559   9.185 -0.9991 -0.2546  2.5489
    7CHL1  H22B  502   3.989   2.452   9.187  0.4126 -0.7554  0.2084
    7CHL1   C23  503   3.830   2.384   9.051  0.0072  0.7829  0.2183
    7CHL1  H23A  504   3.867   2.280   9.055 -2.2421 -0.0482  0.4995
    7CHL1  H23B  505   3.721   2.367   9.039  0.1631  0.8458 -1.5996
    7CHL1   C24  506   3.887   2.454   8.925 -0.0919 -0.0878  0.0163
    7CHL1  H24A  507   3.835   2.413   8.836  1.0939 -1.9106  0.1114
    7CHL1  H24B  508   3.850   2.559   8.918 -0.3331 -0.2406 -1.4279
    7CHL1   C25  509   4.039   2.456   8.907 -0.2710  0.2484 -0.9801
    7CHL1   H25  510   4.079   2.510   8.996 -1.1309 -2.0941  0.9339
    7CHL1   C26  511   4.104   2.319   8.919  0.3705  0.0187 -0.5215
    7CHL1  H26A  512   4.092   2.280   9.022 -0.8047 -2.5930 -1.5726
    7CHL1  H26B  513   4.069   2.253   8.837 -2.1287  1.9332 -1.1625
    7CHL1  H26C  514   4.213   2.334   8.906  0.4006 -1.6516 -2.7911
    7CHL1   C27  515   4.085   2.530   8.782 -0.2554  0.0697 -0.3773
    7CHL1  H27A  516   4.036   2.630   8.780  1.0479  0.8464  2.1299
    7CHL1  H27B  517   4.193   2.557   8.788 -0.7070  1.8358  0.5310
    7CHL1  H27C  518   4.056   2.471   8.693  1.7618  0.3190 -1.2453
    8CHL1    C3  519   5.093   3.814  10.390 -0.3283  0.3450 -0.1017
    8CHL1    H3  520   5.161   3.895  10.355 -2.1187  1.1501 -1.9008
    8CHL1    O3  521   5.079   3.825  10.529  0.0465 -0.2135 -0.0160
    8CHL1   H3'  522   5.029   3.746  10.551 -3.4728  1.8489  0.2685
    8CHL1    C4  523   4.953   3.828  10.326 -0.1951  0.1839  0.5538
    8CHL1   H4A  524   4.880   3.758  10.372  1.1261 -1.0530  0.8238
    8CHL1   H4B  525   4.918   3.932  10.344  0.7442  1.0968 -2.3121
    8CHL1    C5  526   4.946   3.804  10.174  1.2201  0.2198 -0.9219
    8CHL1    C6  527   4.890   3.890  10.089  0.0049 -0.1887 -0.0402
    8CHL1    H6  528   4.860   3.987  10.132 -0.6192 -0.7543  0.8492
    8CHL1    C7  529   4.886   3.861   9.945  0.5577  0.1071 -0.8006
    8CHL1   H7A  530   4.786   3.889   9.904 -0.6240 -2.1493  0.3464
    8CHL1   H7B  531   4.963   3.925   9.896 -0.2429  0.2137 -1.9756
    8CHL1    C8  532   4.894   3.711   9.905  0.2315  0.2985 -0.0258
    8CHL1    H8  533   4.806   3.650   9.932  0.4227  0.3697  0.7795
    8CHL1   C14  534   4.920   3.701   9.760 -0.4413  0.1048 -0.3680
    8CHL1   H14  535   5.011   3.764   9.752 -0.0093 -0.5542 -0.7514
    8CHL1   C15  536   4.821   3.763   9.670  0.1616 -0.4118  0.5647
    8CHL1  H15A  537   4.723   3.713   9.683  1.2163 -2.4061  1.2085
    8CHL1  H15B  538   4.791   3.870   9.681 -0.8530 -0.9020  3.7847
    8CHL1   C16  539   4.871   3.715   9.529  0.4314 -0.1902 -0.8388
    8CHL1  H16A  540   4.782   3.683   9.471 -0.3323  1.9080 -0.9173
    8CHL1  H16B  541   4.908   3.806   9.477 -1.7156  0.4013 -1.4358
    8CHL1   C17  542   4.974   3.601   9.552  0.0952 -0.1398 -0.0704
    8CHL1   H17  543   5.078   3.639   9.535 -0.2360  0.8697  0.0640
    8CHL1   C13  544   4.958   3.566   9.702 -0.7741 -0.2914 -0.5733
    8CHL1   C18  545   4.842   3.467   9.715  1.0215 -0.1682 -0.0552
    8CHL1  H18A  546   4.868   3.369   9.670  0.2824 -0.6020  0.4498
    8CHL1  H18B  547   4.813   3.451   9.821 -2.4005 -0.3831 -0.9292
    8CHL1  H18C  548   4.751   3.507   9.666  0.7514 -0.5744  0.1123
    8CHL1   C12  549   5.084   3.521   9.775 -0.3982  0.5515 -0.5680
    8CHL1  H12A  550   5.094   3.417   9.737 -2.4590  0.3450 -0.6760
    8CHL1  H12B  551   5.170   3.581   9.739  1.2565 -0.2170  1.8771
    8CHL1   C11  552   5.078   3.530   9.925  0.3337  0.3848 -0.2623
    8CHL1  H11A  553   5.012   3.448   9.961  0.9167  0.3110  0.6563
    8CHL1  H11B  554   5.164   3.516   9.993 -1.5618  1.8966  2.6547
    8CHL1    C9  555   5.016   3.660   9.983  0.0854  0.3384  0.4230
    8CHL1    H9  556   5.106   3.724   9.966  0.9693 -0.6765  1.1072
    8CHL1   C10  557   4.996   3.665  10.136 -0.2675 -0.3662 -0.1644
    8CHL1   C19  558   4.889   3.559  10.175 -0.2804  0.1820  0.0725
    8CHL1  H19A  559   4.792   3.582  10.125  1.2349  0.7564 -2.8300
    8CHL1  H19B  560   4.919   3.455  10.150  1.6643  0.7478 -0.1340
    8CHL1  H19C  561   4.882   3.569  10.286  0.4859 -0.3556  0.1811
    8CHL1    C1  562   5.137   3.660  10.209 -1.0612 -0.0519 -0.0875
    8CHL1   H1A  563   5.190   3.568  10.178 -2.4383 -0.5312 -1.1117
    8CHL1   H1B  564   5.198   3.744  10.170  0.9616 -1.2396  0.3888
    8CHL1    C2  565   5.141   3.673  10.359  0.5139  0.3326 -0.6626
    8CHL1   H2A  566   5.246   3.654  10.388  0.2122  1.9820  1.7819
    8CHL1   H2B  567   5.083   3.586  10.398 -0.6607  1.0745 -0.7044
    8CHL1   C20  568   4.958   3.494   9.441 -0.2674  0.3268  0.3969
    8CHL1   H20  569   4.856   3.450   9.445  0.1719 -1.1352 -2.3951
    8CHL1   C21  570   5.061   3.376   9.468  0.1005  0.3806  0.1329
    8CHL1  H21A  571   5.031   3.318   9.558 -2.7803 -0.3471 -1.1703
    8CHL1  H21B  572   5.158   3.429   9.470 -0.4387  1.3889  1.0932
    8CHL1  H21C  573   5.056   3.311   9.378 -2.8549  1.1882 -0.4174
    8CHL1   C22  574   4.966   3.530   9.289  0.0209  0.1679  0.7175
    8CHL1  H22A  575   4.942   3.441   9.226 -0.8368 -0.1057  1.3996
    8CHL1  H22B  576   4.877   3.597   9.288 -0.9447 -1.0717  0.5506
    8CHL1   C23  577   5.089   3.610   9.250 -0.2221 -0.5066  0.0685
    8CHL1  H23A  578   5.117   3.691   9.321  1.3751 -0.0586 -1.0025
    8CHL1  H23B  579   5.186   3.556   9.239  1.0142  1.6777 -0.4249
    8CHL1   C24  580   5.073   3.680   9.111  0.2570  0.3679 -0.4240
    8CHL1  H24A  581   4.977   3.736   9.116 -0.0747 -0.0537 -1.6721
    8CHL1  H24B  582   5.160   3.748   9.104 -1.0104  1.9867 -0.9856
    8CHL1   C25  583   5.074   3.581   8.994  0.6418 -0.2513 -0.1537
    8CHL1   H25  584   4.988   3.510   9.000  0.0870  0.5217  1.6513
    8CHL1   C26  585   5.066   3.650   8.858 -0.0497 -0.2111  0.3768
    8CHL1  H26A  586   5.148   3.722   8.839  0.3474 -1.0535 -1.3635
    8CHL1  H26B  587   5.079   3.567   8.784  0.2536  0.2714 -0.1245
    8CHL1  H26C  588   4.970   3.703   8.843  1.2164  1.7378 -1.6171
    8CHL1   C27  589   5.204   3.497   8.988 -0.3112  0.0258  0.0233
    8CHL1  H27A  590   5.236   3.449   9.083 -0.3319 -0.3343 -0.1493
    8CHL1  H27B  591   5.205   3.423   8.904  0.5417  1.0414 -0.8817
    8CHL1  H27C  592   5.276   3.570   8.947  0.2115 -0.9413 -0.8332
    9CHL1    C3  593   1.181   1.258  10.383  0.0035  0.5495  0.1516
    9CHL1    H3  594   1.090   1.195  10.385 -0.2774  0.9536  0.1731
    9CHL1    O3  595   1.202   1.312  10.511  0.0255 -0.6785 -0.1499
    9CHL1   H3'  596   1.132   1.374  10.529  2.7554  2.3454  0.8908
    9CHL1    C4  597   1.301   1.172  10.333  0.2892 -0.6066 -0.1203
    9CHL1   H4A  598   1.382   1.247  10.320  0.4814  0.3531  4.6815
    9CHL1   H4B  599   1.336   1.103  10.413  0.7245  0.5311  0.7017
    9CHL1    C5  600   1.274   1.116  10.195  0.3528  0.3124  0.0457
    9CHL1    C6  601   1.283   0.986  10.158  0.6507  0.6528 -0.1045
    9CHL1    H6  602   1.325   0.914  10.230 -1.0412  1.1942  1.4784
    9CHL1    C7  603   1.259   0.931  10.022  0.4153 -0.4064  0.1013
    9CHL1   H7A  604   1.338   0.858   9.996 -0.6739 -2.0893  1.3421
    9CHL1   H7B  605   1.162   0.876  10.023  0.6014 -0.7448  1.4051
    9CHL1    C8  606   1.261   1.051   9.915  0.1418 -0.2488 -1.5791
    9CHL1    H8  607   1.364   1.092   9.907 -0.7984  2.0636 -2.8025
    9CHL1   C14  608   1.206   0.998   9.783  0.0779  0.7195  0.1286
    9CHL1   H14  609   1.105   0.960   9.808 -0.1275  1.6063  0.6896
    9CHL1   C15  610   1.273   0.867   9.718  0.4356  0.4701 -0.2293
    9CHL1  H15A  611   1.383   0.872   9.728  0.9027 -1.6276 -2.9552
    9CHL1  H15B  612   1.216   0.785   9.766  0.5423 -0.3555 -1.4580
    9CHL1   C16  613   1.235   0.884   9.565 -0.2381  0.5182  0.1228
    9CHL1  H16A  614   1.320   0.902   9.496 -1.2503 -1.4925 -1.7832
    9CHL1  H16B  615   1.186   0.791   9.527  2.3097 -0.3355 -1.3499
    9CHL1   C17  616   1.149   1.019   9.559  0.4517  0.1851 -0.1837
    9CHL1   H17  617   1.045   0.993   9.587  1.2163 -3.6854 -0.4814
    9CHL1   C13  618   1.190   1.107   9.673  0.1649 -0.5533 -0.5289
    9CHL1   C18  619   1.330   1.168   9.647  0.5869  0.1740 -0.3112
    9CHL1  H18A  620   1.356   1.227   9.738 -0.3730  1.4400 -0.8266
    9CHL1  H18B  621   1.406   1.088   9.635  0.1768 -0.4350  0.9648
    9CHL1  H18C  622   1.320   1.242   9.564 -0.9367 -0.1032 -0.4082
    9CHL1   C12  623   1.079   1.195   9.734 -0.2569 -0.4774  0.5957
    9CHL1  H12A  624   1.047   1.274   9.663 -0.7362 -1.6670 -0.5567
    9CHL1  H12B  625   0.987   1.136   9.750 -0.3262 -0.7429 -0.6962
    9CHL1   C11  626   1.123   1.258   9.857 -0.1155  0.5483  0.0656
    9CHL1  H11A  627   1.192   1.343   9.838 -1.0777  0.8857 -2.1470
    9CHL1  H11B  628   1.035   1.305   9.906 -0.8835 -2.0545  1.3773
    9CHL1    C9  629   1.170   1.161   9.971  0.8679  0.0112 -0.4624
    9CHL1    H9  630   1.080   1.109  10.011  0.6539  0.5510 -0.2375
    9CHL1   C10  631   1.225   1.225  10.096  0.6034  0.7303 -0.6051
    9CHL1   C19  632   1.352   1.309  10.059 -0.4548  0.3836 -0.3247
    9CHL1  H19A  633   1.326   1.396   9.995 -1.4376  3.0930  3.4403
    9CHL1  H19B  634   1.402   1.353  10.147 -1.2954  1.4236 -0.3434
    9CHL1  H19C  635   1.439   1.252  10.020 -0.3988  1.8774 -2.5844
    9CHL1    C1  636   1.109   1.316  10.148 -0.3168  0.6972  0.0770
    9CHL1   H1A  637   1.094   1.401  10.077 -1.2481 -0.7724 -1.5691
    9CHL1   H1B  638   1.013   1.261  10.140  0.9066 -1.3256 -1.8754
    9CHL1    C2  639   1.139   1.366  10.286  0.2798 -1.1606 -1.2416
    9CHL1   H2A  640   1.054   1.433  10.309  2.1298  1.4356 -1.4939
    9CHL1   H2B  641   1.227   1.435  10.292  0.9609 -2.0711 -0.4182
    9CHL1   C20  642   1.122   1.096   9.424  0.1417 -0.2229  0.2222
    9CHL1   H20  643   1.107   1.204   9.442 -1.2871 -0.2620 -0.5737
    9CHL1   C21  644   0.988   1.053   9.354 -0.6145  0.7415  0.0764
    9CHL1  H21A  645   0.995   0.944   9.333  0.7765  0.4899  1.6001
    9CHL1  H21B  646   0.971   1.107   9.259 -0.0055 -1.0485 -1.0872
    9CHL1  H21C  647   0.901   1.072   9.421 -0.4918 -0.0593  0.4676
    9CHL1   C22  648   1.240   1.078   9.329 -0.2452  1.0605  0.6884
    9CHL1  H22A  649   1.332   1.106   9.385  0.1633 -0.5213  0.8677
    9CHL1  H22B  650   1.257   0.973   9.295 -0.6596  0.9446  0.8433
    9CHL1   C23  651   1.242   1.183   9.218  0.5306 -0.3991  0.2489
    9CHL1  H23A  652   1.163   1.142   9.152  0.6464 -0.7005  0.2997
    9CHL1  H23B  653   1.204   1.277   9.265 -3.6752 -1.9943  0.4665
    9CHL1   C24  654   1.380   1.204   9.148  0.5815 -0.2495 -0.4848
    9CHL1  H24A  655   1.363   1.282   9.071  1.4015 -0.1313 -0.5530
    9CHL1  H24B  656   1.466   1.226   9.216 -1.3135 -0.4608  2.1255
    9CHL1   C25  657   1.422   1.087   9.060 -1.1347 -0.4779 -0.1027
    9CHL1   H25  658   1.471   1.018   9.132  0.0161 -1.4396 -1.7531
    9CHL1   C26  659   1.313   1.014   8.985 -0.2277 -0.4103 -0.6340
    9CHL1  H26A  660   1.239   1.088   8.950 -0.7872  0.3264  1.8555
    9CHL1  H26B  661   1.363   0.962   8.900  2.0194 -4.4932  2.7592
    9CHL1  H26C  662   1.263   0.936   9.047 -1.0383 -1.2550 -2.2902
    9CHL1   C27  663   1.537   1.132   8.967  0.2493 -0.0289 -0.4008
    9CHL1  H27A  664   1.507   1.218   8.903  2.7519  1.5751  0.4484
    9CHL1  H27B  665   1.621   1.172   9.028  0.5439 -1.1790 -0.0285
    9CHL1  H27C  666   1.582   1.053   8.903 -2.2941 -1.3437 -0.6784
   10CHL1    C3  667   6.169   5.183  10.136  0.5941 -0.2784 -0.2635
   10CHL1    H3  668   6.270   5.136  10.148  0.4397 -0.8088 -0.9729
   10CHL1    O3  669   6.107   5.198  10.263  0.1614  0.5617 -0.1956
   10CHL1   H3'  670   6.012   5.201  10.249 -0.0361  0.8739  1.0787
   10CHL1    C4  671   6.187   5.327  10.085  0.6860  0.5497  0.6502
   10CHL1   H4A  672   6.101   5.397  10.079  0.5608  0.2921 -1.4163
   10CHL1   H4B  673   6.265   5.371  10.151  0.5765  3.1790 -0.8217
   10CHL1    C5  674   6.235   5.321   9.943  0.0029 -0.5117  0.0104
   10CHL1    C6  675   6.349   5.382   9.891 -0.0142 -0.0819 -0.3216
   10CHL1    H6  676   6.419   5.439   9.954  0.0935  0.7700 -1.1947
   10CHL1    C7  677   6.395   5.390   9.747  0.5171  0.4186 -0.2361
   10CHL1   H7A  678   6.434   5.487   9.710 -0.1162  1.2170  1.1221
   10CHL1   H7B  679   6.481   5.320   9.738 -0.5205 -1.2055  1.6628
   10CHL1    C8  680   6.283   5.348   9.651  0.8491  0.1704 -0.3867
   10CHL1    H8  681   6.218   5.437   9.645  0.4322 -0.0607  0.5142
   10CHL1   C14  682   6.332   5.319   9.509 -0.4595  0.4741 -0.5133
   10CHL1   H14  683   6.404   5.238   9.532 -1.1386  0.2893  1.1112
   10CHL1   C15  684   6.413   5.416   9.429  0.4604  0.3835 -0.0309
   10CHL1  H15A  685   6.364   5.515   9.440 -0.5555 -0.1651  0.5091
   10CHL1  H15B  686   6.521   5.422   9.457 -0.1632  1.9596  2.2552
   10CHL1   C16  687   6.414   5.371   9.283 -0.0159 -0.1539 -0.1200
   10CHL1  H16A  688   6.379   5.454   9.218 -0.8214 -1.1533 -1.0064
   10CHL1  H16B  689   6.515   5.346   9.246  0.2725  0.1650  0.4395
   10CHL1   C17  690   6.330   5.246   9.283  0.3519  0.6999 -0.6129
   10CHL1   H17  691   6.397   5.161   9.308 -3.3896 -2.2792  0.1067
   10CHL1   C13  692   6.238   5.254   9.409  0.0420 -0.4793 -0.1333
   10CHL1   C18  693   6.127   5.350   9.363 -0.0736 -0.3546 -0.4753
   10CHL1  H18A  694   6.082   5.397   9.453  2.6344  2.5158 -0.4358
   10CHL1  H18B  695   6.166   5.434   9.303  3.0203 -1.4115 -0.1407
   10CHL1  H18C  696   6.046   5.298   9.309 -0.1046 -1.3335  0.4718
   10CHL1   C12  697   6.173   5.132   9.467  0.3995 -0.4627 -0.6307
   10CHL1  H12A  698   6.099   5.079   9.403  1.0224 -0.2997 -1.5001
   10CHL1  H12B  699   6.252   5.060   9.498  1.3503  1.4567  1.7029
   10CHL1   C11  700   6.099   5.169   9.595  0.2907 -0.8772  0.2926
   10CHL1  H11A  701   6.012   5.235   9.577 -0.2956 -1.9802 -1.2198
   10CHL1  H11B  702   6.056   5.070   9.625  2.2741 -1.3302  1.8323
   10CHL1    C9  703   6.203   5.222   9.702 -0.3874 -0.4131  0.5414
   10CHL1    H9  704   6.280   5.142   9.708 -0.2184 -0.2758  0.2230
   10CHL1   C10  705   6.155   5.236   9.842  0.5190 -0.4085  0.0970
   10CHL1   C19  706   6.012   5.306   9.832 -0.3577  0.7458 -0.1127
   10CHL1  H19A  707   6.031   5.406   9.787  0.0552  1.7517  2.1392
   10CHL1  H19B  708   5.946   5.243   9.770  2.6752 -1.1847 -1.6437
   10CHL1  H19C  709   5.977   5.326   9.936  0.8114  1.9575  0.0824
   10CHL1    C1  710   6.140   5.093   9.902  1.3342 -0.3230  0.3739
   10CHL1   H1A  711   6.069   5.028   9.846 -0.5878  1.4593  0.6056
   10CHL1   H1B  712   6.236   5.040   9.889  0.4704 -1.6351 -0.9507
   10CHL1    C2  713   6.088   5.093  10.045  0.3012  0.0851  0.1836
   10CHL1   H2A  714   6.097   4.987  10.078 -1.4350 -0.7217 -1.7207
   10CHL1   H2B  715   5.982   5.127  10.052 -0.7762 -3.0342  0.6953
   10CHL1   C20  716   6.262   5.219   9.149 -0.0329  0.5316  0.2788
   10CHL1   H20  717   6.184   5.294   9.124 -2.8891 -2.8086 -1.8993
   10CHL1   C21  718   6.168   5.091   9.154  0.5058  0.2589  0.1173
   10CHL1  H21A  719   6.211   5.002   9.204  1.6628  0.9883  0.4785
   10CHL1  H21B  720   6.149   5.067   9.048  0.2963 -0.4392  0.3110
   10CHL1  H21C  721   6.073   5.106   9.210 -1.7976 -0.9056 -3.1840
   10CHL1   C22  722   6.354   5.210   9.023 -0.5601  0.2175  1.4807
   10CHL1  H22A  723   6.435   5.284   9.043  0.1797 -0.3930  0.7611
   10CHL1  H22B  724   6.410   5.114   9.021  1.1975  1.1621 -1.4673
   10CHL1   C23  725   6.278   5.240   8.891  0.0328  0.0692  0.4065
   10CHL1  H23A  726   6.203   5.160   8.870 -0.7851  0.6125  1.1659
   10CHL1  H23B  727   6.222   5.332   8.917  0.6310  0.4292  0.4368
   10CHL1   C24  728   6.376   5.273   8.774 -0.6473  0.5828 -0.5442
   10CHL1  H24A  729   6.311   5.291   8.686 -0.0890  1.1207 -0.8599
   10CHL1  H24B  730   6.422   5.372   8.792 -0.3634  0.6766 -1.7323
   10CHL1   C25  731   6.480   5.171   8.734  0.7143 -0.4662  0.2807
   10CHL1   H25  732   6.561   5.177   8.809 -0.1308  0.4388  1.1529
   10CHL1   C26  733   6.416   5.036   8.721  0.2849  0.5915 -0.2265
   10CHL1  H26A  734   6.491   4.957   8.700  1.7001  1.6840  0.6008
   10CHL1  H26B  735   6.380   5.003   8.821  3.4579 -0.4131  0.6897
   10CHL1  H26C  736   6.344   5.033   8.636  0.6740 -1.4971 -0.5452
   10CHL1   C27  737   6.555   5.204   8.600  0.2625 -0.2896  1.0569
   10CHL1  H27A  738   6.478   5.187   8.521  0.2557 -1.3188  1.2770
   10CHL1  H27B  739   6.587   5.311   8.597 -0.5275 -0.0616  0.3691
   10CHL1  H27C  740   6.636   5.131   8.579  0.6063  1.0028 -3.0629
   11CHL1    C3  741   2.200   0.685  10.037  0.1857  0.3974  0.1621
   11CHL1    H3  742   2.286   0.752  10.015 -0.0571  0.3885 -0.8680
   11CHL1    O3  743   2.194   0.673  10.178  0.2393  0.3052  0.1212
   11CHL1   H3'  744   2.206   0.579  10.195 -1.5625 -0.0014 -0.0699
   11CHL1    C4  745   2.079   0.753   9.978  0.1388 -0.5367  0.1245
   11CHL1   H4A  746   1.991   0.699  10.019  0.8647 -1.1346  0.9494
   11CHL1   H4B  747   2.090   0.856  10.017  0.5592  0.4259 -2.3547
   11CHL1    C5  748   2.084   0.756   9.828  0.6814  0.0721 -0.7120
   11CHL1    C6  749   2.086   0.875   9.757 -0.2442  1.0827 -0.4378
   11CHL1    H6  750   2.070   0.968   9.815 -1.4369  0.5330  0.1567
   11CHL1    C7  751   2.089   0.881   9.606  0.4528  0.2819 -0.0629
   11CHL1   H7A  752   2.018   0.956   9.565  0.4986 -0.1769 -1.0024
   11CHL1   H7B  753   2.194   0.897   9.575  0.7926  0.5553  1.1667
   11CHL1    C8  754   2.050   0.746   9.548 -0.6351  0.4355  0.6919
   11CHL1    H8  755   1.939   0.733   9.549 -0.7150  0.4165 -1.5860
   11CHL1   C14  756   2.084   0.737   9.400  0.4087 -0.2237  0.6390
   11CHL1   H14  757   2.194   0.753   9.398  0.4123 -0.2223 -0.8717
   11CHL1   C15  758   2.041   0.853   9.315  0.0241  0.0907  0.4950
   11CHL1  H15A  759   1.947   0.899   9.353  0.2003 -0.8286  2.1237
   11CHL1  H15B  760   2.123   0.927   9.328  2.2765 -2.1016 -0.4992
   11CHL1   C16  761   2.035   0.803   9.170  0.4617 -0.6791 -0.0049
   11CHL1  H16A  762   1.931   0.809   9.131 -0.0628  1.2773  1.5137
   11CHL1  H16B  763   2.105   0.857   9.102  1.2875 -1.1756  0.4298
   11CHL1   C17  764   2.090   0.658   9.173 -1.0185  0.0459  0.1275
   11CHL1   H17  765   2.201   0.660   9.175 -0.9737  1.5676  4.1489
   11CHL1   C13  766   2.053   0.616   9.315 -0.1872 -1.0674  0.0634
   11CHL1   C18  767   1.900   0.588   9.328  0.5425 -0.1096  0.1022
   11CHL1  H18A  768   1.867   0.564   9.431  1.2459 -1.0100  0.1290
   11CHL1  H18B  769   1.830   0.668   9.295 -0.6468 -1.6440 -1.2347
   11CHL1  H18C  770   1.870   0.496   9.275 -0.7088 -1.3607  2.7891
   11CHL1   C12  771   2.142   0.500   9.373 -0.4641  0.0513 -0.8580
   11CHL1  H12A  772   2.107   0.399   9.342 -0.7554 -0.1585  0.1122
   11CHL1  H12B  773   2.252   0.512   9.364 -0.5779  1.6108 -0.3305
   11CHL1   C11  774   2.116   0.496   9.528  0.0151 -0.2259 -1.1596
   11CHL1  H11A  775   2.014   0.454   9.545  0.7126 -1.3711  0.5256
   11CHL1  H11B  776   2.193   0.419   9.551  1.6391  0.1268 -4.6532
   11CHL1    C9  777   2.129   0.630   9.607 -0.4271  0.4457  0.3297
   11CHL1    H9  778   2.236   0.659   9.594 -0.5177  0.7154  0.1643
   11CHL1   C10  779   2.101   0.617   9.763  0.4434 -0.2850  0.4338
   11CHL1   C19  780   1.958   0.551   9.773 -0.1796  0.6364  0.2670
   11CHL1  H19A  781   1.978   0.446   9.742 -0.3196  0.5063  0.6051
   11CHL1  H19B  782   1.916   0.548   9.876 -0.6951  0.1818  0.0493
   11CHL1  H19C  783   1.886   0.597   9.703 -1.4315 -0.1970  0.9661
   11CHL1    C1  784   2.218   0.530   9.832 -0.0655  0.0774  0.1873
   11CHL1   H1A  785   2.213   0.423   9.803  2.2792  0.0714 -0.4197
   11CHL1   H1B  786   2.313   0.570   9.791 -0.4562 -0.3094 -1.1215
   11CHL1    C2  787   2.217   0.540   9.986 -0.9959 -0.1886 -0.1632
   11CHL1   H2A  788   2.307   0.490  10.027 -0.6337  0.0265 -0.6750
   11CHL1   H2B  789   2.129   0.480  10.017 -0.8980 -0.2371  0.0183
   11CHL1   C20  790   2.043   0.570   9.052 -0.1122 -0.0703 -0.1367
   11CHL1   H20  791   1.932   0.575   9.053 -0.0683  1.3024  0.4582
   11CHL1   C21  792   2.082   0.430   9.069  0.2781  0.0543  0.7641
   11CHL1  H21A  793   2.032   0.391   9.160 -2.8103 -0.9929 -1.2016
   11CHL1  H21B  794   2.192   0.418   9.068  0.2296 -0.3583  0.2319
   11CHL1  H21C  795   2.029   0.375   8.988 -0.7753  1.5575  0.3742
   11CHL1   C22  796   2.098   0.621   8.923 -0.2864 -0.3015  0.0440
   11CHL1  H22A  797   2.069   0.727   8.909 -1.6645 -0.6774 -0.0934
   11CHL1  H22B  798   2.209   0.618   8.916 -0.1992  1.7316  0.0374
   11CHL1   C23  799   2.040   0.538   8.804  0.4022 -0.0887  0.4546
   11CHL1  H23A  800   2.054   0.428   8.809  1.4294  0.0609  0.9802
   11CHL1  H23B  801   1.929   0.544   8.806  0.2306 -1.7601 -0.8496
   11CHL1   C24  802   2.072   0.597   8.660 -0.0012 -0.0453 -0.3637
   11CHL1  H24A  803   2.091   0.706   8.666 -0.1288 -0.0955  1.3438
   11CHL1  H24B  804   2.175   0.562   8.639  0.8962  0.9231  2.1383
   11CHL1   C25  805   1.971   0.565   8.553  0.2769  0.5008  0.4417
   11CHL1   H25  806   1.873   0.586   8.602 -0.3648  0.5825 -0.8220
   11CHL1   C26  807   1.991   0.662   8.437 -0.6393  0.2167 -0.0107
   11CHL1  H26A  808   1.914   0.662   8.358 -0.8826 -0.0988  0.2281
   11CHL1  H26B  809   1.993   0.770   8.467 -0.9222  0.1387  0.3021
   11CHL1  H26C  810   2.090   0.636   8.393 -1.7457 -2.6908 -0.9732
   11CHL1   C27  811   1.973   0.419   8.508  0.0485  0.1168 -0.2468
   11CHL1  H27A  812   2.058   0.425   8.438 -0.4827  2.2459 -0.8017
   11CHL1  H27B  813   2.004   0.345   8.585  0.5507  0.7675  0.1892
   11CHL1  H27C  814   1.877   0.388   8.461 -0.4043  1.2374 -0.1042
   12CHL1    C3  815   5.674   3.691  10.230 -0.2995  0.0340 -0.1379
   12CHL1    H3  816   5.781   3.710  10.207 -0.3020  0.9837  0.5748
   12CHL1    O3  817   5.661   3.691  10.375  0.6471  0.3262 -0.0423
   12CHL1   H3'  818   5.704   3.610  10.406 -0.2109  0.6198  2.0705
   12CHL1    C4  819   5.590   3.802  10.173 -0.1434 -0.8015  0.6402
   12CHL1   H4A  820   5.484   3.796  10.207 -1.0022 -0.4914 -1.7626
   12CHL1   H4B  821   5.622   3.898  10.219 -1.1066 -1.1236  2.0407
   12CHL1    C5  822   5.599   3.798  10.023 -0.0828  0.2516  0.0452
   12CHL1    C6  823   5.640   3.910   9.955 -0.4521 -0.2052 -0.0644
   12CHL1    H6  824   5.667   4.003  10.006  0.3448 -0.9125  0.8295
   12CHL1    C7  825   5.654   3.917   9.804 -0.5151 -0.4314  1.1900
   12CHL1   H7A  826   5.616   4.019   9.783 -0.5670 -1.0802 -2.5582
   12CHL1   H7B  827   5.762   3.913   9.780 -0.8051 -1.0845 -0.0983
   12CHL1    C8  828   5.563   3.805   9.743 -0.4334  0.4545 -0.4642
   12CHL1    H8  829   5.455   3.831   9.754 -0.8618 -1.6713  0.9901
   12CHL1   C14  830   5.602   3.807   9.597  0.8407 -0.0206 -0.0832
   12CHL1   H14  831   5.712   3.793   9.610  1.0844  1.6142 -0.0693
   12CHL1   C15  832   5.580   3.941   9.517  0.3263  0.0835 -0.3355
   12CHL1  H15A  833   5.489   3.994   9.553  0.3986 -0.3042  0.4484
   12CHL1  H15B  834   5.659   4.010   9.553 -0.0977  0.6178 -0.4241
   12CHL1   C16  835   5.589   3.898   9.375 -0.3759  0.3997  0.8229
   12CHL1  H16A  836   5.499   3.920   9.314  1.1277  0.9150 -1.3596
   12CHL1  H16B  837   5.676   3.948   9.327 -0.5651 -0.9087 -1.0146
   12CHL1   C17  838   5.611   3.742   9.370 -0.5498  0.4978  0.5675
   12CHL1   H17  839   5.720   3.721   9.376 -0.6170  0.0592  0.3161
   12CHL1   C13  840   5.548   3.696   9.511  0.1195 -0.1031  0.5506
   12CHL1   C18  841   5.388   3.705   9.493  0.3795 -0.1613 -0.6033
   12CHL1  H18A  842   5.346   3.800   9.453 -1.3222 -1.3545 -1.7688
   12CHL1  H18B  843   5.345   3.606   9.469 -0.5788 -0.2865  1.4810
   12CHL1  H18C  844   5.362   3.709   9.601  2.7406 -1.5421  0.0895
   12CHL1   C12  845   5.586   3.566   9.569  0.2402  0.4645  0.1415
   12CHL1  H12A  846   5.528   3.483   9.522 -0.1719 -0.2872  1.8976
   12CHL1  H12B  847   5.693   3.545   9.545  0.7941 -3.4660  4.5315
   12CHL1   C11  848   5.546   3.550   9.716  0.1157  0.0291 -0.0554
   12CHL1  H11A  849   5.435   3.553   9.723  0.0205  0.6854 -1.5171
   12CHL1  H11B  850   5.580   3.450   9.749  0.4623 -0.9071 -2.9648
   12CHL1    C9  851   5.598   3.665   9.806  0.0608  0.3887  0.2730
   12CHL1    H9  852   5.708   3.661   9.797 -0.0383 -0.6356 -0.6339
   12CHL1   C10  853   5.568   3.661   9.954 -0.4277 -0.0829  0.1305
   12CHL1   C19  854   5.423   3.627   9.979  0.2932  0.3101  0.2611
   12CHL1  H19A  855   5.394   3.526   9.945 -1.5937  0.6912  0.5676
   12CHL1  H19B  856   5.394   3.639  10.086 -1.3962 -2.0337  0.1310
   12CHL1  H19C  857   5.358   3.693   9.917  1.7319 -0.1358 -1.7948
   12CHL1    C1  858   5.653   3.558  10.029 -0.1948  0.3374 -0.7035
   12CHL1   H1A  859   5.630   3.453   9.998  0.3454 -0.8014  2.3884
   12CHL1   H1B  860   5.762   3.566  10.007 -0.2444  1.1369 -0.6696
   12CHL1    C2  861   5.646   3.552  10.179 -0.3500 -0.0232 -0.6119
   12CHL1   H2A  862   5.709   3.470  10.218 -1.5922 -1.0384 -0.7022
   12CHL1   H2B  863   5.539   3.537  10.203 -0.4481  3.2773  1.8144
   12CHL1   C20  864   5.558   3.675   9.245  0.1345  0.4037  0.3630
   12CHL1   H20  865   5.447   3.679   9.243 -0.0267 -2.2717 -0.3312
   12CHL1   C21  866   5.608   3.527   9.240 -0.0449  0.1831 -0.1698
   12CHL1  H21A  867   5.716   3.501   9.238 -0.7033 -2.8429 -0.7825
   12CHL1  H21B  868   5.554   3.473   9.160 -0.9008 -0.0997  0.5949
   12CHL1  H21C  869   5.565   3.474   9.327  1.3701 -1.3583 -0.3582
   12CHL1   C22  870   5.604   3.759   9.122  0.4355 -0.1060  0.1116
   12CHL1  H22A  871   5.595   3.869   9.132  1.0599  0.0103 -0.5665
   12CHL1  H22B  872   5.713   3.747   9.101  0.0286 -0.3140 -2.1240
   12CHL1   C23  873   5.547   3.720   8.982  0.6000  0.2135  0.3541
   12CHL1  H23A  874   5.592   3.623   8.956  0.3812 -0.1650  1.3216
   12CHL1  H23B  875   5.437   3.704   8.992  0.9655 -2.4158  0.6474
   12CHL1   C24  876   5.576   3.823   8.873  0.5722 -0.5455  0.2499
   12CHL1  H24A  877   5.539   3.927   8.887 -1.6441 -1.0599 -1.2406
   12CHL1  H24B  878   5.686   3.835   8.868  0.5940 -0.7792  0.1392
   12CHL1   C25  879   5.526   3.781   8.733 -0.4957 -0.1092  0.5414
   12CHL1   H25  880   5.415   3.787   8.739 -0.4061  0.5887  2.2117
   12CHL1   C26  881   5.592   3.883   8.630  0.6412 -0.1090  0.0591
   12CHL1  H26A  882   5.570   3.989   8.655 -1.2986  0.0931 -2.1282
   12CHL1  H26B  883   5.695   3.845   8.614  0.9624  0.7576  0.0443
   12CHL1  H26C  884   5.551   3.866   8.528 -1.0168  0.4070  0.6044
   12CHL1   C27  885   5.575   3.651   8.696 -0.2442  0.6318 -0.6135
   12CHL1  H27A  886   5.577   3.648   8.585  1.7650  2.9833 -0.7264
   12CHL1  H27B  887   5.681   3.641   8.727 -0.0743 -1.8231 -1.8087
   12CHL1  H27C  888   5.510   3.574   8.743 -1.1852  0.7182 -1.7218
   13CHL1    C3  889   4.996   6.032   9.578  0.1823  0.8522 -0.2510
   13CHL1    H3  890   4.915   5.963   9.545  2.4978 -2.4222  0.3265
   13CHL1    O3  891   5.010   6.016   9.723  0.1937  0.3416  0.6868
   13CHL1   H3'  892   5.002   5.923   9.746 -0.7588 -0.0793 -1.1526
   13CHL1    C4  893   5.130   5.984   9.516  0.5811  0.8556  0.2471
   13CHL1   H4A  894   5.222   6.032   9.555  3.1978 -3.3828 -0.1492
   13CHL1   H4B  895   5.140   5.877   9.546 -2.4027 -0.0951 -1.7095
   13CHL1    C5  896   5.124   5.994   9.364  0.1383 -0.0351  0.6210
   13CHL1    C6  897   5.176   5.892   9.294 -0.1179 -0.2668  0.4507
   13CHL1    H6  898   5.225   5.804   9.339 -0.9587 -0.5629  0.8062
   13CHL1    C7  899   5.177   5.900   9.143  0.0265  0.3037 -0.1739
   13CHL1   H7A  900   5.268   5.859   9.094  0.9238  3.4387 -1.3720
   13CHL1   H7B  901   5.090   5.850   9.095 -1.3217  2.0105  0.4145
   13CHL1    C8  902   5.157   6.045   9.090 -0.5435  0.5672  0.0924
   13CHL1    H8  903   5.256   6.094   9.104 -0.3936  1.5473 -3.3287
   13CHL1   C14  904   5.137   6.040   8.937 -0.1162 -0.1536  0.8798
   13CHL1   H14  905   5.047   5.978   8.915 -1.3640  2.2610 -1.3193
   13CHL1   C15  906   5.252   5.973   8.840 -0.2360  0.3695 -0.2476
   13CHL1  H15A  907   5.354   6.014   8.852  1.2952 -2.4457 -2.5154
   13CHL1  H15B  908   5.255   5.866   8.870  2.3094  0.4771  0.1416
   13CHL1   C16  909   5.212   6.013   8.692 -0.3987 -0.1506 -1.3206
   13CHL1  H16A  910   5.303   6.057   8.645  0.9009  1.0849  2.0384
   13CHL1  H16B  911   5.182   5.919   8.640  0.5905 -1.4359  0.3400
   13CHL1   C17  912   5.108   6.123   8.717 -0.3658 -0.3617  0.4227
   13CHL1   H17  913   5.010   6.072   8.705  0.5308 -1.9227 -0.5994
   13CHL1   C13  914   5.118   6.175   8.865  0.1349 -0.3942 -0.9570
   13CHL1   C18  915   5.242   6.266   8.882  0.6288 -0.3363  0.3888
   13CHL1  H18A  916   5.231   6.362   8.827 -0.3057 -0.9273 -0.4980
   13CHL1  H18B  917   5.249   6.282   8.991 -0.8635 -0.6799  0.5596
   13CHL1  H18C  918   5.333   6.216   8.842  0.7950 -0.0599  0.4168
   13CHL1   C12  919   4.994   6.238   8.930 -0.3563 -0.1208 -0.0351
   13CHL1  H12A  920   4.974   6.335   8.881  1.3187 -0.5047 -1.5740
   13CHL1  H12B  921   4.910   6.166   8.925  0.0865 -0.5909 -1.0527
   13CHL1   C11  922   5.011   6.255   9.081  0.0370 -0.2039 -0.3571
   13CHL1  H11A  923   5.075   6.344   9.102 -0.7324  0.8612 -2.2814
   13CHL1  H11B  924   4.918   6.290   9.129  0.2012 -0.3556  0.0788
   13CHL1    C9  925   5.044   6.120   9.158 -0.1002 -0.6401  0.4135
   13CHL1    H9  926   4.950   6.061   9.154 -1.3096  1.2755 -1.9361
   13CHL1   C10  927   5.076   6.129   9.313 -0.4040  0.3055  0.8132
   13CHL1   C19  928   5.198   6.228   9.343  0.1296 -1.1032  0.3295
   13CHL1  H19A  929   5.161   6.331   9.326  1.4521 -0.6293  0.2062
   13CHL1  H19B  930   5.223   6.223   9.452  0.7696 -0.6457  0.2095
   13CHL1  H19C  931   5.296   6.201   9.298  1.7742  0.4748  2.6898
   13CHL1    C1  932   4.951   6.184   9.385  0.1628 -0.0155 -0.5818
   13CHL1   H1A  933   4.943   6.291   9.355  1.2264 -0.3090 -2.0382
   13CHL1   H1B  934   4.854   6.137   9.358 -1.6692  2.2097  1.6719
   13CHL1    C2  935   4.964   6.178   9.544 -0.1835 -0.5157  0.1595
   13CHL1   H2A  936   4.870   6.204   9.597 -0.3562 -0.2108 -0.2965
   13CHL1   H2B  937   5.045   6.247   9.576 -1.5807  1.5553 -0.5816
   13CHL1   C20  938   5.107   6.230   8.607 -0.1350 -0.6274 -0.7203
   13CHL1   H20  939   5.188   6.306   8.608  2.4546 -3.1991 -1.7828
   13CHL1   C21  940   4.976   6.321   8.613 -0.4485  0.4949 -0.7098
   13CHL1  H21A  941   4.885   6.259   8.629  0.2998 -0.5840 -0.4619
   13CHL1  H21B  942   4.974   6.376   8.517 -2.2152 -0.4360 -1.2511
   13CHL1  H21C  943   4.980   6.396   8.695 -4.6192 -1.4308  1.6146
   13CHL1   C22  944   5.122   6.158   8.468 -0.6643 -0.1266  0.7646
   13CHL1  H22A  945   5.149   6.242   8.401  3.7055 -2.1492 -0.3848
   13CHL1  H22B  946   5.205   6.085   8.459 -0.6895 -0.1456  0.6930
   13CHL1   C23  947   4.999   6.081   8.419 -0.8687 -0.1491  0.4057
   13CHL1  H23A  948   4.965   6.024   8.508 -1.6747 -0.6384 -0.2044
   13CHL1  H23B  949   4.909   6.141   8.394 -0.5452  0.9001  1.6740
   13CHL1   C24  950   5.029   5.981   8.303  0.2121 -0.0631  0.4746
   13CHL1  H24A  951   5.036   6.032   8.204 -0.2689  0.2949  0.6234
   13CHL1  H24B  952   5.124   5.924   8.310 -0.1452 -0.6881  0.3028
   13CHL1   C25  953   4.922   5.868   8.280 -0.9076 -0.0147  0.0384
   13CHL1   H25  954   4.920   5.806   8.373  1.7966 -1.3702 -0.7058
   13CHL1   C26  955   4.781   5.917   8.246  0.8117  0.2489  0.4979
   13CHL1  H26A  956   4.711   5.835   8.218  1.6004 -0.4835  0.6260
   13CHL1  H26B  957   4.740   5.961   8.340 -0.2842 -1.8350  1.0491
   13CHL1  H26C  958   4.800   5.996   8.171  2.3546  0.6522  1.2638
   13CHL1   C27  959   4.973   5.775   8.173  0.8397  0.0263  0.8593
   13CHL1  H27A  960   4.994   5.826   8.077 -0.9677 -1.5584 -0.4409
   13CHL1  H27B  961   5.063   5.722   8.211  1.7841  0.3085 -0.8947
   13CHL1  H27C  962   4.896   5.698   8.154  1.3515 -0.1936 -0.4379
   14CHL1    C3  963   3.155   0.485  10.148 -0.0568  0.0056  0.5454
   14CHL1    H3  964   3.178   0.376  10.147  1.8636  0.3676 -0.4073
   14CHL1    O3  965   3.126   0.511  10.286 -0.3229 -0.1510  0.5379
   14CHL1   H3'  966   3.114   0.606  10.275  0.6084 -0.2540 -2.1275
   14CHL1    C4  967   3.274   0.557  10.084 -0.5327 -0.2243  0.0091
   14CHL1   H4A  968   3.271   0.664  10.114  4.0653  0.1624 -0.2353
   14CHL1   H4B  969   3.368   0.524  10.133  1.1009  0.3051 -2.6047
   14CHL1    C5  970   3.283   0.527   9.936  0.8280 -0.3253  0.1925
   14CHL1    C6  971   3.404   0.488   9.881  0.8128  0.4446  0.3733
   14CHL1    H6  972   3.492   0.471   9.945  0.6010 -0.5781  0.4212
   14CHL1    C7  973   3.438   0.482   9.731  0.1805 -0.3946  0.4449
   14CHL1   H7A  974   3.537   0.528   9.711  0.6194 -1.2010  0.7045
   14CHL1   H7B  975   3.449   0.377   9.697 -2.1250 -0.3118 -0.7597
   14CHL1    C8  976   3.318   0.540   9.650  0.0456 -0.4778 -0.0844
   14CHL1    H8  977   3.327   0.651   9.657 -2.0970 -0.3134  0.9568
   14CHL1   C14  978   3.327   0.494   9.503  0.2939 -0.3409  0.6796
   14CHL1   H14  979   3.320   0.383   9.494 -1.5342 -0.1003 -1.7642
   14CHL1   C15  980   3.466   0.511   9.432  0.3063 -0.6833  0.7413
   14CHL1  H15A  981   3.508   0.602   9.479 -0.5557  0.1593 -0.0592
   14CHL1  H15B  982   3.532   0.424   9.451  0.6453 -0.2696  1.4629
   14CHL1   C16  983   3.427   0.519   9.284 -0.0120 -0.3932  0.2139
   14CHL1  H16A  984   3.469   0.613   9.243  1.9899 -1.9996 -1.6962
   14CHL1  H16B  985   3.474   0.443   9.217  1.6065  0.1836  0.6430
   14CHL1   C17  986   3.273   0.516   9.271  0.0243  0.0687 -0.4808
   14CHL1   H17  987   3.244   0.408   9.266  1.5230 -0.5145  1.8004
   14CHL1   C13  988   3.221   0.550   9.413  0.3742 -0.7195 -0.6069
   14CHL1   C18  989   3.204   0.703   9.417  0.4794  0.3188 -0.4155
   14CHL1  H18A  990   3.293   0.757   9.379  0.1912  1.8668  0.9650
   14CHL1  H18B  991   3.111   0.730   9.363  0.4228 -0.9606 -0.9898
   14CHL1  H18C  992   3.196   0.742   9.521  1.0413 -0.9341  0.1169
   14CHL1   C12  993   3.089   0.489   9.461  0.3001 -0.2851  0.7448
   14CHL1  H12A  994   3.009   0.531   9.398  2.6909 -0.4461 -2.6728
   14CHL1  H12B  995   3.075   0.380   9.443  0.6507 -0.4284  1.2916
   14CHL1   C11  996   3.062   0.531   9.609  0.3830  0.5564 -0.1918
   14CHL1  H11A  997   3.039   0.639   9.619  2.8025  1.1952 -0.9116
   14CHL1  H11B  998   2.969   0.481   9.646  1.2682 -0.5883  0.5482
   14CHL1    C9  999   3.179   0.500   9.709 -0.0232  0.5325  0.4391
   14CHL1    H9 1000   3.190   0.389   9.711  1.2168  0.6358  2.2668
   14CHL1   C10 1001   3.165   0.551   9.852 -0.2479 -1.4022  0.7350
   14CHL1   C19 1002   3.136   0.703   9.855 -0.6460  0.4379  0.3796
   14CHL1  H19A 1003   3.162   0.750   9.952  2.3451 -3.3117  1.6068
   14CHL1  H19B 1004   3.196   0.755   9.777 -1.9750  0.9014 -0.3625
   14CHL1  H19C 1005   3.030   0.723   9.829 -0.3451  0.0816 -1.2194
   14CHL1    C1 1006   3.047   0.485   9.915  0.1102  0.7273 -0.5086
   14CHL1   H1A 1007   2.957   0.524   9.863 -0.9353 -0.4417  0.3917
   14CHL1   H1B 1008   3.055   0.376   9.895  2.0827  0.3524  1.8609
   14CHL1    C2 1009   3.031   0.524  10.065 -0.4713 -0.1159  0.7800
   14CHL1   H2A 1010   2.941   0.484  10.116 -0.1791 -0.9673  0.6444
   14CHL1   H2B 1011   3.017   0.635  10.063 -0.2833 -0.0955  0.4584
   14CHL1   C20 1012   3.207   0.587   9.149  0.5115  0.3808  1.2463
   14CHL1   H20 1013   3.223   0.696   9.163  1.3738  0.1230  2.4219
   14CHL1   C21 1014   3.061   0.553   9.123  0.9780  0.6188  0.1260
   14CHL1  H21A 1015   2.982   0.574   9.199  1.4960  0.0506  0.8313
   14CHL1  H21B 1016   3.044   0.444   9.111 -0.1176  0.4450  2.5045
   14CHL1  H21C 1017   3.030   0.615   9.037 -0.0263  1.9781  1.4050
   14CHL1   C22 1018   3.285   0.566   9.015  0.1246 -0.2642  0.3755
   14CHL1  H22A 1019   3.219   0.622   8.946 -1.5975 -0.8420  1.4889
   14CHL1  H22B 1020   3.383   0.618   9.022 -1.0546  2.1758 -0.1061
   14CHL1   C23 1021   3.302   0.418   8.986 -0.3180  0.2475 -0.6976
   14CHL1  H23A 1022   3.356   0.372   9.072  0.1686  0.9298 -0.6278
   14CHL1  H23B 1023   3.200   0.375   8.988 -0.3807  0.3994 -0.6255
   14CHL1   C24 1024   3.370   0.380   8.854 -0.1789 -0.7632  0.5106
   14CHL1  H24A 1025   3.479   0.399   8.852  0.1935 -2.7018 -1.2273
   14CHL1  H24B 1026   3.377   0.271   8.830  3.3322 -0.1309 -2.1818
   14CHL1   C25 1027   3.297   0.454   8.741 -0.6313  0.7693  0.1054
   14CHL1   H25 1028   3.294   0.564   8.755 -3.2889  1.3415 -3.5251
   14CHL1   C26 1029   3.375   0.441   8.612 -0.5335  0.8993 -0.0003
   14CHL1  H26A 1030   3.325   0.503   8.534 -1.0542  1.3234  0.6597
   14CHL1  H26B 1031   3.484   0.461   8.616 -0.1894 -0.9854  1.5084
   14CHL1  H26C 1032   3.374   0.337   8.575  0.0982  0.1910  1.8477
   14CHL1   C27 1033   3.157   0.397   8.717  0.1782  0.4998  0.4228
   14CHL1  H27A 1034   3.160   0.288   8.696  1.6909  0.6859 -0.3846
   14CHL1  H27B 1035   3.094   0.418   8.806 -0.4136  0.0427  0.1195
   14CHL1  H27C 1036   3.134   0.447   8.621  0.6096 -1.0868 -0.5385
   15CHL1    C3 1037   3.266   0.076  10.106 -0.8496  1.2453  0.1959
   15CHL1    H3 1038   3.259   0.186  10.091  1.1750  1.3541 -0.2353
   15CHL1    O3 1039   3.322   0.043  10.234 -0.2889 -0.0470 -0.2897
   15CHL1   H3' 1040   3.329  -0.053  10.236  0.4048  0.0194  1.1001
   15CHL1    C4 1041   3.131   0.004  10.081  0.2674 -0.1776  0.1711
   15CHL1   H4A 1042   3.109  -0.102  10.109 -0.2006 -0.6190 -1.7330
   15CHL1   H4B 1043   3.077   0.056  10.163 -1.3164 -1.2848 -0.1191
   15CHL1    C5 1044   3.076   0.034   9.948 -0.0923  0.0899 -0.1652
   15CHL1    C6 1045   2.959   0.104   9.941  0.5083  0.4535  0.4808
   15CHL1    H6 1046   2.908   0.137  10.033  1.5334  1.3889  0.7263
   15CHL1    C7 1047   2.900   0.129   9.805  0.1767 -0.1784  0.0274
   15CHL1   H7A 1048   2.799   0.084   9.789 -0.2537  1.7421 -3.7411
   15CHL1   H7B 1049   2.898   0.236   9.776  3.4003  0.4937  1.7379
   15CHL1    C8 1050   2.968   0.051   9.691  0.6986  0.0981 -0.2593
   15CHL1    H8 1051   2.921  -0.049   9.705 -0.8302  0.7435 -0.6100
   15CHL1   C14 1052   2.934   0.117   9.563  0.0392  0.1086  0.6103
   15CHL1   H14 1053   2.993   0.212   9.558  2.2217 -1.2067  0.0544
   15CHL1   C15 1054   2.782   0.148   9.540  0.4318 -0.2522  0.1149
   15CHL1  H15A 1055   2.720   0.063   9.575 -1.2744  1.4624  1.4550
   15CHL1  H15B 1056   2.732   0.237   9.585  1.5996  0.6351 -0.3048
   15CHL1   C16 1057   2.759   0.154   9.385  1.1389  0.7451 -0.3135
   15CHL1  H16A 1058   2.698   0.070   9.346  1.0551  0.8481 -0.4055
   15CHL1  H16B 1059   2.711   0.247   9.348  0.1777  0.5739  0.4527
   15CHL1   C17 1060   2.901   0.121   9.321 -0.4257 -0.1541  0.0178
   15CHL1   H17 1061   2.959   0.215   9.328 -0.7504  0.1367 -0.9913
   15CHL1   C13 1062   2.975   0.036   9.436  0.0433 -0.4763  0.0080
   15CHL1   C18 1063   2.919  -0.110   9.444 -0.2103  0.5704  0.0395
   15CHL1  H18A 1064   2.964  -0.168   9.360  1.7663  1.7770  0.1793
   15CHL1  H18B 1065   2.941  -0.168   9.536  0.7482  1.2689  0.2731
   15CHL1  H18C 1066   2.811  -0.102   9.419 -0.1740  0.7374 -0.0697
   15CHL1   C12 1067   3.130   0.030   9.439  0.6316 -0.4788  0.2490
   15CHL1  H12A 1068   3.188  -0.023   9.360 -0.4023 -0.7315 -0.3513
   15CHL1  H12B 1069   3.167   0.135   9.436 -1.9181  0.5096  0.8007
   15CHL1   C11 1070   3.183  -0.017   9.571 -0.7596  0.3067  0.2721
   15CHL1  H11A 1071   3.170  -0.127   9.573  4.5489 -0.5617  0.5343
   15CHL1  H11B 1072   3.294  -0.013   9.565 -0.6958 -0.4827  0.8381
   15CHL1    C9 1073   3.117   0.043   9.700  0.2933 -0.4133 -0.2661
   15CHL1    H9 1074   3.159   0.146   9.696  0.9065 -0.6385  0.3087
   15CHL1   C10 1075   3.163  -0.016   9.834 -0.2760  0.3877  0.8038
   15CHL1   C19 1076   3.147  -0.170   9.833 -0.5622  0.1821  0.5806
   15CHL1  H19A 1077   3.046  -0.192   9.792 -1.0052  1.5507  0.8907
   15CHL1  H19B 1078   3.229  -0.224   9.780 -0.8509  0.4301 -0.1329
   15CHL1  H19C 1079   3.151  -0.225   9.929  0.6400 -0.4416  0.2090
   15CHL1    C1 1080   3.310   0.025   9.860 -0.8431 -0.9184 -0.1826
   15CHL1   H1A 1081   3.377  -0.029   9.790  0.4243  1.0238 -0.5718
   15CHL1   H1B 1082   3.322   0.133   9.837 -0.1826 -0.7221  1.0351
   15CHL1    C2 1083   3.359   0.012  10.001 -0.5485 -0.2303  0.1703
   15CHL1   H2A 1084   3.465   0.035  10.023  0.0408 -1.6382 -1.0105
   15CHL1   H2B 1085   3.362  -0.096  10.026  0.0126 -0.3789 -0.5189
   15CHL1   C20 1086   2.899   0.067   9.176 -0.4882  0.0737  0.6927
   15CHL1   H20 1087   2.874  -0.040   9.188 -2.0006  0.3000 -0.2062
   15CHL1   C21 1088   3.037   0.065   9.110 -0.1431  0.4993  0.3176
   15CHL1  H21A 1089   3.025   0.037   9.003 -1.1915 -1.2789  0.8497
   15CHL1  H21B 1090   3.106  -0.012   9.151 -0.1048 -0.5180 -1.5309
   15CHL1  H21C 1091   3.079   0.167   9.112  1.6655 -0.2106  1.5487
   15CHL1   C22 1092   2.786   0.125   9.087  0.2289 -0.6759  0.9801
   15CHL1  H22A 1093   2.787   0.059   8.997 -0.4691  0.3930  0.1548
   15CHL1  H22B 1094   2.684   0.112   9.130 -0.4305  2.6686  0.6596
   15CHL1   C23 1095   2.797   0.268   9.036 -0.4876  0.2964 -0.2028
   15CHL1  H23A 1096   2.741   0.334   9.105 -0.6364  0.9702 -0.9451
   15CHL1  H23B 1097   2.907   0.284   9.047 -0.2044 -2.0058  0.8812
   15CHL1   C24 1098   2.758   0.287   8.888  0.3080  0.0886 -0.2645
   15CHL1  H24A 1099   2.790   0.202   8.825 -0.1430  0.3230 -0.8235
   15CHL1  H24B 1100   2.647   0.281   8.881  0.1818  0.8002  0.8599
   15CHL1   C25 1101   2.793   0.421   8.820 -0.2017  0.7711 -0.6822
   15CHL1   H25 1102   2.904   0.428   8.827 -0.3532  1.9233  1.9258
   15CHL1   C26 1103   2.734   0.437   8.677 -0.1097  0.9386 -0.4351
   15CHL1  H26A 1104   2.782   0.361   8.613  0.2809  0.0927  0.8185
   15CHL1  H26B 1105   2.624   0.429   8.660  0.0765 -1.5210 -0.8147
   15CHL1  H26C 1106   2.776   0.533   8.641  0.0475  1.7423  1.7234
   15CHL1   C27 1107   2.730   0.544   8.894 -0.2069 -0.3594  0.4036
   15CHL1  H27A 1108   2.728   0.641   8.840  1.4901  0.9555  2.5260
   15CHL1  H27B 1109   2.623   0.530   8.921 -0.6567  1.0457 -0.5358
   15CHL1  H27C 1110   2.777   0.560   8.994 -0.5029  1.3110  0.2975
   16CHL1    C3 1111   5.733   1.006  10.195 -0.1235  0.3159 -0.5587
   16CHL1    H3 1112   5.808   1.085  10.172 -0.6511  0.8018 -0.6353
   16CHL1    O3 1113   5.676   1.025  10.325  0.0886  0.1935  0.0811
   16CHL1   H3' 1114   5.716   0.957  10.379  0.5369  0.0834 -0.3815
   16CHL1    C4 1115   5.612   1.004  10.101  0.0207  0.3712 -1.0840
   16CHL1   H4A 1116   5.541   0.930  10.146  0.9013  0.5166  0.6134
   16CHL1   H4B 1117   5.564   1.102  10.122 -2.3165 -1.0005  0.4200
   16CHL1    C5 1118   5.646   0.976   9.955 -0.8990 -0.0298  0.0023
   16CHL1    C6 1119   5.625   1.067   9.853  0.0638 -0.6101  0.1719
   16CHL1    H6 1120   5.572   1.161   9.874 -0.3971 -1.1855  1.7041
   16CHL1    C7 1121   5.650   1.036   9.708  0.0801 -0.2871 -0.1265
   16CHL1   H7A 1122   5.562   1.052   9.642 -0.4257 -1.3423  0.2638
   16CHL1   H7B 1123   5.730   1.106   9.679  0.0672 -0.2503 -0.0740
   16CHL1    C8 1124   5.709   0.891   9.683  0.5715 -0.2599  0.6602
   16CHL1    H8 1125   5.617   0.828   9.684 -0.5118  1.2652  1.3475
   16CHL1   C14 1126   5.773   0.876   9.552  0.1080  0.4789  0.3015
   16CHL1   H14 1127   5.849   0.957   9.551 -1.6817  2.3366 -2.2439
   16CHL1   C15 1128   5.690   0.925   9.429  0.4160 -0.1267 -0.3447
   16CHL1  H15A 1129   5.582   0.901   9.432  0.1636  1.0277 -0.0692
   16CHL1  H15B 1130   5.699   1.035   9.420  2.7003 -0.2677 -0.3941
   16CHL1   C16 1131   5.778   0.855   9.317  0.0709 -0.3778 -0.3816
   16CHL1  H16A 1132   5.707   0.784   9.268 -3.0224  0.8892  1.8806
   16CHL1  H16B 1133   5.821   0.925   9.243  4.2652 -1.1311  1.0929
   16CHL1   C17 1134   5.893   0.775   9.379 -0.6835  0.1571 -0.5708
   16CHL1   H17 1135   5.979   0.845   9.389  2.2821 -3.1714 -0.6383
   16CHL1   C13 1136   5.836   0.740   9.518  0.4761 -0.5762  0.2892
   16CHL1   C18 1137   5.721   0.637   9.500 -0.1276  0.4288  0.0213
   16CHL1  H18A 1138   5.669   0.655   9.403  0.0335  0.6037 -0.0322
   16CHL1  H18B 1139   5.761   0.535   9.479  0.2119  0.1423  1.9135
   16CHL1  H18C 1140   5.653   0.638   9.587  1.5284  2.0618  1.3660
   16CHL1   C12 1141   5.928   0.699   9.638 -0.0145 -0.2160  0.1242
   16CHL1  H12A 1142   5.981   0.602   9.625  1.2014  0.1958  1.6794
   16CHL1  H12B 1143   6.019   0.763   9.646  2.4348 -3.6177  2.1508
   16CHL1   C11 1144   5.859   0.697   9.770  0.7512  0.5280  0.0035
   16CHL1  H11A 1145   5.775   0.625   9.759 -1.2552  2.5700  0.9878
   16CHL1  H11B 1146   5.935   0.673   9.847 -1.9631 -1.2713  2.3465
   16CHL1    C9 1147   5.800   0.838   9.794  0.4981 -0.3015 -0.3048
   16CHL1    H9 1148   5.878   0.915   9.809  1.9495 -1.8867  0.6607
   16CHL1   C10 1149   5.725   0.850   9.936 -0.3345  0.1851  0.0693
   16CHL1   C19 1150   5.621   0.737   9.955 -0.0796 -0.1261  0.1119
   16CHL1  H19A 1151   5.676   0.640   9.959  2.5457  1.3108  1.2557
   16CHL1  H19B 1152   5.563   0.739  10.050 -1.4934  0.1834 -0.7212
   16CHL1  H19C 1153   5.546   0.728   9.873 -1.2533 -0.1130  1.1536
   16CHL1    C1 1154   5.837   0.842  10.050  0.1670  1.1254  1.0022
   16CHL1   H1A 1155   5.870   0.736  10.045 -0.5436  0.8247  2.3383
   16CHL1   H1B 1156   5.918   0.911  10.021  0.9226 -0.8002 -1.8638
   16CHL1    C2 1157   5.800   0.872  10.195  0.5858  0.1403 -0.3350
   16CHL1   H2A 1158   5.897   0.875  10.248  1.8087  0.4004 -2.4631
   16CHL1   H2B 1159   5.745   0.785  10.237  1.6916 -1.0625 -1.3048
   16CHL1   C20 1160   5.945   0.666   9.283 -0.7531 -0.1637 -0.1321
   16CHL1   H20 1161   5.871   0.584   9.297  0.8906 -1.8723 -1.0499
   16CHL1   C21 1162   6.071   0.602   9.340  0.1593  0.5758 -0.4907
   16CHL1  H21A 1163   6.142   0.678   9.379 -0.1554  0.9866 -0.7151
   16CHL1  H21B 1164   6.134   0.538   9.274 -0.4417 -1.3357  0.7027
   16CHL1  H21C 1165   6.035   0.538   9.424  1.2773  1.6777  0.8943
   16CHL1   C22 1166   5.974   0.706   9.141 -0.1690 -0.5558  0.2663
   16CHL1  H22A 1167   5.911   0.792   9.108 -0.0439 -1.1986 -1.8287
   16CHL1  H22B 1168   6.078   0.743   9.131  0.2494 -1.5653  0.8091
   16CHL1   C23 1169   5.946   0.587   9.050  0.1364  0.0415 -0.6646
   16CHL1  H23A 1170   5.998   0.497   9.089  0.5300 -1.0790 -3.5316
   16CHL1  H23B 1171   5.837   0.573   9.045  0.1221 -0.4626  0.6867
   16CHL1   C24 1172   6.003   0.613   8.911 -0.0325 -0.6115 -1.3317
   16CHL1  H24A 1173   5.980   0.719   8.890  1.6231 -0.1852 -1.1139
   16CHL1  H24B 1174   6.114   0.613   8.920 -0.0376  1.9727 -0.3883
   16CHL1   C25 1175   5.948   0.529   8.806  0.1966  0.0472 -0.2721
   16CHL1   H25 1176   5.841   0.556   8.793  0.6874  1.6300 -1.3764
   16CHL1   C26 1177   6.025   0.565   8.677 -0.0041 -1.0096  0.1947
   16CHL1  H26A 1178   5.983   0.502   8.595 -2.6400 -1.7700  1.9924
   16CHL1  H26B 1179   6.022   0.671   8.644 -0.7503 -0.5956  1.5287
   16CHL1  H26C 1180   6.133   0.538   8.683  0.3198 -0.1412 -1.2037
   16CHL1   C27 1181   5.952   0.380   8.843 -0.2056 -0.9903  0.0296
   16CHL1  H27A 1182   5.936   0.327   8.747 -1.3800  0.9042 -0.8825
   16CHL1  H27B 1183   6.055   0.358   8.878  0.0783 -0.2638 -0.3139
   16CHL1  H27C 1184   5.873   0.359   8.917 -1.5760  0.8115 -0.8489
   17CHL1    C3 1185   0.855   5.882  10.336 -0.2813 -0.0316  0.6431
   17CHL1    H3 1186   0.848   5.780  10.380  0.1051 -0.1920  0.3428
   17CHL1    O3 1187   0.818   5.962  10.450 -0.6017  0.0486 -0.3428
   17CHL1   H3' 1188   0.742   5.917  10.488 -0.0981 -0.8666 -0.3823
   17CHL1    C4 1189   0.994   5.916  10.285 -0.5408  0.7812  0.5794
   17CHL1   H4A 1190   0.996   6.025  10.265 -1.6393  0.9865  1.4503
   17CHL1   H4B 1191   1.062   5.907  10.372  2.4838  2.0689 -1.5023
   17CHL1    C5 1192   1.032   5.838  10.160  0.3413  0.2560 -0.7192
   17CHL1    C6 1193   1.147   5.768  10.147 -0.3711 -0.2447 -0.6280
   17CHL1    H6 1194   1.216   5.764  10.233  0.8501  2.7980 -1.3404
   17CHL1    C7 1195   1.197   5.690  10.031 -0.3256 -0.4067  1.2324
   17CHL1   H7A 1196   1.306   5.706  10.020 -0.4556 -0.6820 -1.0624
   17CHL1   H7B 1197   1.179   5.582  10.048  1.3125 -1.0161 -0.5451
   17CHL1    C8 1198   1.120   5.720   9.895 -0.2821 -0.3784 -0.3001
   17CHL1    H8 1199   1.165   5.815   9.857 -1.1599 -0.5815 -1.8824
   17CHL1   C14 1200   1.131   5.605   9.794  0.2938  0.7694  0.2495
   17CHL1   H14 1201   1.075   5.524   9.845  2.3309  0.1325  1.6073
   17CHL1   C15 1202   1.268   5.552   9.759  0.7626  0.4580  0.2296
   17CHL1  H15A 1203   1.329   5.639   9.728  1.5916 -0.2552 -0.1672
   17CHL1  H15B 1204   1.325   5.497   9.837 -0.1490  1.9724  2.0373
   17CHL1   C16 1205   1.245   5.468   9.630  0.0971  0.8253  0.4318
   17CHL1  H16A 1206   1.317   5.515   9.559  1.6984  2.3011  2.8472
   17CHL1  H16B 1207   1.274   5.362   9.641 -2.7376 -0.2765 -1.5507
   17CHL1   C17 1208   1.097   5.497   9.584  0.0402  0.3458 -0.2816
   17CHL1   H17 1209   1.044   5.406   9.619  1.6934 -0.7519 -0.4891
   17CHL1   C13 1210   1.058   5.624   9.661  1.0449  0.1084  0.4663
   17CHL1   C18 1211   1.111   5.751   9.590 -0.0093  0.1052  0.2325
   17CHL1  H18A 1212   1.059   5.775   9.495  0.4658 -0.1638 -0.1023
   17CHL1  H18B 1213   1.098   5.846   9.647 -1.3555  0.3709 -0.4745
   17CHL1  H18C 1214   1.221   5.754   9.572 -0.1677  1.7855 -0.6829
   17CHL1   C12 1215   0.905   5.634   9.689 -1.2181  0.3876 -0.1748
   17CHL1  H12A 1216   0.837   5.659   9.605 -0.8344  2.1031 -0.0005
   17CHL1  H12B 1217   0.860   5.537   9.718 -1.2104  0.4724  0.1269
   17CHL1   C11 1218   0.885   5.740   9.802  0.8446  0.1188 -0.2289
   17CHL1  H11A 1219   0.905   5.839   9.756  2.1628  0.0987  0.2687
   17CHL1  H11B 1220   0.778   5.729   9.829  0.4965  0.0945 -1.5749
   17CHL1    C9 1221   0.970   5.734   9.932  0.1799  0.3488  0.1924
   17CHL1    H9 1222   0.939   5.634   9.971  0.8640  0.4691  1.0469
   17CHL1   C10 1223   0.928   5.842  10.044 -0.4028  0.1402 -0.6831
   17CHL1   C19 1224   0.920   5.985   9.981 -0.5167  0.4542 -0.1269
   17CHL1  H19A 1225   0.950   6.065  10.052 -1.3203  1.3967 -0.8167
   17CHL1  H19B 1226   0.994   5.987   9.898 -0.9173  2.4594 -0.5109
   17CHL1  H19C 1227   0.822   6.000   9.931 -0.1122 -1.3778 -1.5540
   17CHL1    C1 1228   0.780   5.814  10.096  0.1114 -0.2941 -0.1319
   17CHL1   H1A 1229   0.699   5.832  10.023 -0.1224 -0.1067  0.1693
   17CHL1   H1B 1230   0.778   5.710  10.135  0.7167  0.8923  3.4509
   17CHL1    C2 1231   0.746   5.899  10.225 -0.5574 -0.1900 -0.5852
   17CHL1   H2A 1232   0.644   5.872  10.259 -0.5719  1.1209  0.4599
   17CHL1   H2B 1233   0.752   6.005  10.193  0.0595  0.0241  0.1947
   17CHL1   C20 1234   1.073   5.493   9.431 -0.6489  0.5732 -0.4714
   17CHL1   H20 1235   1.086   5.595   9.389  0.8514  0.0118 -1.4312
   17CHL1   C21 1236   0.937   5.438   9.392 -0.1084  0.1498 -0.3616
   17CHL1  H21A 1237   0.856   5.503   9.432 -0.8855 -1.1642  0.2580
   17CHL1  H21B 1238   0.924   5.343   9.447 -1.2383  1.3765  1.6109
   17CHL1  H21C 1239   0.925   5.425   9.282  0.8968 -1.1301 -0.3510
   17CHL1   C22 1240   1.171   5.394   9.362  0.5118  0.3888  0.7718
   17CHL1  H22A 1241   1.276   5.400   9.397  1.2601 -1.4743 -0.9615
   17CHL1  H22B 1242   1.141   5.289   9.381  1.5058 -0.0667 -0.0622
   17CHL1   C23 1243   1.198   5.424   9.209 -0.5901  0.1651 -0.3067
   17CHL1  H23A 1244   1.107   5.414   9.145  1.5510 -0.9235 -3.3937
   17CHL1  H23B 1245   1.218   5.533   9.214  2.7142 -0.3072 -1.0425
   17CHL1   C24 1246   1.315   5.348   9.155  1.1530 -0.4871  0.1497
   17CHL1  H24A 1247   1.400   5.374   9.222  1.2215  0.0541 -0.1453
   17CHL1  H24B 1248   1.296   5.240   9.170  0.7988 -0.3220  0.9884
   17CHL1   C25 1249   1.345   5.381   9.007 -0.2092 -0.7784 -0.5809
   17CHL1   H25 1250   1.263   5.340   8.945  0.2675 -0.9455 -1.1041
   17CHL1   C26 1251   1.359   5.528   8.973  0.6736 -0.2018 -0.4232
   17CHL1  H26A 1252   1.443   5.578   9.026  0.5627 -0.5789  0.1154
   17CHL1  H26B 1253   1.383   5.527   8.864  1.5035 -0.4352 -0.2425
   17CHL1  H26C 1254   1.264   5.582   8.992  1.8267  0.9381  2.6577
   17CHL1   C27 1255   1.480   5.314   8.963 -0.6941 -0.3281 -0.6063
   17CHL1  H27A 1256   1.564   5.358   9.021 -2.0329  1.4262  0.1305
   17CHL1  H27B 1257   1.477   5.206   8.989 -1.3044 -0.0777  0.4513
   17CHL1  H27C 1258   1.502   5.326   8.855  0.5283 -0.5521 -0.4016
   18CHL1    C3 1259   6.505   4.558  10.042  0.0034 -0.1286 -0.2094
   18CHL1    H3 1260   6.430   4.632  10.009 -1.2445 -0.6808  1.2529
   18CHL1    O3 1261   6.554   4.597  10.169  0.2902 -0.1009 -0.2009
   18CHL1   H3' 1262   6.522   4.535  10.236 -0.1493  0.1044 -0.2213
   18CHL1    C4 1263   6.433   4.422  10.054  0.2625 -0.1303 -0.5686
   18CHL1   H4A 1264   6.493   4.341  10.101 -0.5509 -0.9955 -0.9851
   18CHL1   H4B 1265   6.359   4.452  10.131  2.8183  0.8939  1.6702
   18CHL1    C5 1266   6.371   4.371   9.927  0.3327  0.6388 -0.1435
   18CHL1    C6 1267   6.246   4.343   9.923 -0.4161 -0.9266  0.3583
   18CHL1    H6 1268   6.187   4.351  10.015 -1.2125  1.1105 -0.2831
   18CHL1    C7 1269   6.169   4.308   9.796 -0.1145  0.0286  0.4232
   18CHL1   H7A 1270   6.096   4.226   9.813 -1.2166  0.9316  0.1785
   18CHL1   H7B 1271   6.113   4.399   9.764 -0.2023 -0.5854 -1.2886
   18CHL1    C8 1272   6.259   4.277   9.674 -1.2612 -0.0719 -0.0773
   18CHL1    H8 1273   6.302   4.175   9.688  1.5567  1.1218  0.5909
   18CHL1   C14 1274   6.182   4.281   9.534 -0.1679  0.1072 -0.1926
   18CHL1   H14 1275   6.156   4.389   9.520  2.7014  0.6255 -2.7097
   18CHL1   C15 1276   6.056   4.199   9.527 -0.9138 -1.1417 -0.1495
   18CHL1  H15A 1277   6.065   4.106   9.587  2.2365  0.2638  1.7900
   18CHL1  H15B 1278   5.973   4.266   9.558  0.0435  0.6384 -1.2553
   18CHL1   C16 1279   6.050   4.179   9.373 -0.3886 -0.0007  0.9156
   18CHL1  H16A 1280   6.053   4.068   9.364 -2.1697  0.0452 -1.0316
   18CHL1  H16B 1281   5.957   4.218   9.326 -0.3781 -1.2171 -0.1853
   18CHL1   C17 1282   6.174   4.238   9.301  0.3363  0.2115 -0.6105
   18CHL1   H17 1283   6.145   4.342   9.275 -0.2863  0.1300 -0.2705
   18CHL1   C13 1284   6.277   4.250   9.414  0.2308 -0.6820  0.0631
   18CHL1   C18 1285   6.345   4.113   9.433  0.5128  0.3778 -0.0304
   18CHL1  H18A 1286   6.405   4.079   9.345 -0.9483 -1.5181 -0.3619
   18CHL1  H18B 1287   6.405   4.114   9.527 -2.0695  0.8302  1.6945
   18CHL1  H18C 1288   6.272   4.032   9.456 -1.6198  1.1181 -3.4221
   18CHL1   C12 1289   6.373   4.366   9.411  0.1540 -0.2036 -0.1137
   18CHL1  H12A 1290   6.448   4.356   9.329  1.5109  1.1602  0.9101
   18CHL1  H12B 1291   6.310   4.456   9.394 -0.1463 -0.7970 -2.5128
   18CHL1   C11 1292   6.455   4.373   9.540 -0.1426  0.1731  0.0083
   18CHL1  H11A 1293   6.526   4.288   9.538  0.4682  0.6836 -1.5919
   18CHL1  H11B 1294   6.520   4.461   9.518  0.3331  0.3270  1.8545
   18CHL1    C9 1295   6.377   4.374   9.673 -0.3360  0.1829 -0.4708
   18CHL1    H9 1296   6.328   4.474   9.671  0.0620  0.3704 -1.7478
   18CHL1   C10 1297   6.467   4.383   9.803  0.6380  0.2407  0.1453
   18CHL1   C19 1298   6.558   4.252   9.809  0.5163  0.2026 -0.0349
   18CHL1  H19A 1299   6.624   4.250   9.898  1.7723 -0.0263 -0.9456
   18CHL1  H19B 1300   6.506   4.154   9.800  2.1412 -0.5593 -1.7273
   18CHL1  H19C 1301   6.629   4.261   9.724  2.0652  0.7236  1.2718
   18CHL1    C1 1302   6.554   4.508   9.807 -0.4999 -0.3993 -0.3322
   18CHL1   H1A 1303   6.634   4.505   9.730 -1.1741  2.4019 -1.2619
   18CHL1   H1B 1304   6.484   4.585   9.768  1.8202  0.3709 -3.3303
   18CHL1    C2 1305   6.617   4.554   9.939 -0.1717  0.3831  0.8613
   18CHL1   H2A 1306   6.670   4.651   9.932  0.5089  0.0825  1.6430
   18CHL1   H2B 1307   6.690   4.479   9.975 -0.0257  0.5213  0.8483
   18CHL1   C20 1308   6.207   4.169   9.169 -0.1603  0.2760 -0.0226
   18CHL1   H20 1309   6.219   4.061   9.193 -0.3723 -0.2310 -2.0449
   18CHL1   C21 1310   6.339   4.219   9.102  0.0750 -0.4597 -0.7135
   18CHL1  H21A 1311   6.422   4.184   9.167 -0.3527  0.6722  0.4725
   18CHL1  H21B 1312   6.339   4.330   9.101  0.0902 -0.4579 -0.4426
   18CHL1  H21C 1313   6.364   4.176   9.002  0.1126  3.5874 -2.6248
   18CHL1   C22 1314   6.090   4.192   9.065 -0.0445  0.4144 -0.4960
   18CHL1  H22A 1315   5.995   4.183   9.120  1.2726 -0.0427  1.8247
   18CHL1  H22B 1316   6.096   4.298   9.031  2.5755 -0.1444 -2.0416
   18CHL1   C23 1317   6.084   4.109   8.935  0.1191 -0.8718 -0.0134
   18CHL1  H23A 1318   6.178   4.091   8.877 -0.7790  0.0248 -1.8421
   18CHL1  H23B 1319   6.052   4.005   8.958 -1.5919 -0.5208 -0.6750
   18CHL1   C24 1320   5.966   4.163   8.848  0.1662  0.0828 -0.6344
   18CHL1  H24A 1321   5.876   4.139   8.909  0.6979 -0.6862 -0.1393
   18CHL1  H24B 1322   5.968   4.272   8.831 -0.2614  0.0920 -0.6479
   18CHL1   C25 1323   5.965   4.121   8.697  0.5778 -0.2977  0.2776
   18CHL1   H25 1324   5.877   4.181   8.666  1.0156  0.7069  0.8894
   18CHL1   C26 1325   6.084   4.189   8.629 -0.5463 -0.0061  0.7992
   18CHL1  H26A 1326   6.100   4.161   8.523 -0.8583  1.6096  0.3013
   18CHL1  H26B 1327   6.076   4.300   8.639 -0.9696 -0.0001  0.4254
   18CHL1  H26C 1328   6.174   4.151   8.681  0.3146  1.1496  0.1881
   18CHL1   C27 1329   5.963   3.965   8.676 -0.2071  0.3754  0.1358
   18CHL1  H27A 1330   5.867   3.943   8.728  0.7717  0.6774  2.1791
   18CHL1  H27B 1331   5.965   3.939   8.568  5.0233  1.3643 -0.2403
   18CHL1  H27C 1332   6.049   3.906   8.712 -0.6287  0.0413  0.6223
   19CHL1    C3 1333   4.128   6.519  10.184 -0.7559 -0.1765  0.2310
   19CHL1    H3 1334   4.052   6.439  10.169 -2.7160  1.9841 -2.3693
   19CHL1    O3 1335   4.150   6.544  10.326 -0.0887 -0.0252 -0.3105
   19CHL1   H3' 1336   4.201   6.623  10.347 -2.3757  1.1152  1.3853
   19CHL1    C4 1337   4.261   6.488  10.120 -0.8424  1.0561 -0.2934
   19CHL1   H4A 1338   4.318   6.578  10.149  0.7314  0.6050 -1.7764
   19CHL1   H4B 1339   4.308   6.403  10.173 -1.3197  0.2008 -1.1966
   19CHL1    C5 1340   4.242   6.460   9.972 -0.2255 -0.8136 -0.2204
   19CHL1    C6 1341   4.267   6.341   9.915 -0.0728  0.3517  0.5635
   19CHL1    H6 1342   4.312   6.264   9.980  1.6660 -0.6545 -1.7003
   19CHL1    C7 1343   4.245   6.314   9.769 -0.0634  0.0196  0.0537
   19CHL1   H7A 1344   4.333   6.265   9.722 -0.8126 -1.2171 -0.1061
   19CHL1   H7B 1345   4.167   6.237   9.751  2.0370 -2.2559  0.0889
   19CHL1    C8 1346   4.229   6.441   9.684  0.3165 -0.2426  0.1600
   19CHL1    H8 1347   4.326   6.488   9.656 -0.0005 -0.3152 -1.1007
   19CHL1   C14 1348   4.150   6.406   9.549  0.8082  0.3300 -1.1956
   19CHL1   H14 1349   4.048   6.374   9.578  0.6266  2.2297  0.4452
   19CHL1   C15 1350   4.213   6.287   9.472 -0.4108 -0.1302  0.4066
   19CHL1  H15A 1351   4.318   6.298   9.505 -0.4602  0.6550  0.3256
   19CHL1  H15B 1352   4.183   6.186   9.508  2.6215 -1.4873 -0.5761
   19CHL1   C16 1353   4.177   6.312   9.324 -0.3351 -0.3828  0.1217
   19CHL1  H16A 1354   4.267   6.311   9.259  1.2336  1.6254  2.0972
   19CHL1  H16B 1355   4.105   6.234   9.290 -0.3485 -1.2084  1.9206
   19CHL1   C17 1356   4.107   6.454   9.321  0.2444  0.3351 -0.0839
   19CHL1   H17 1357   3.997   6.442   9.335  0.0494  2.6184  0.8519
   19CHL1   C13 1358   4.145   6.519   9.453  0.3660 -0.4707  1.2762
   19CHL1   C18 1359   4.287   6.583   9.416 -0.0399 -0.0729 -0.1904
   19CHL1  H18A 1360   4.345   6.608   9.507 -0.5296  0.9627 -0.1449
   19CHL1  H18B 1361   4.354   6.529   9.346  0.1832  2.0084 -1.6799
   19CHL1  H18C 1362   4.274   6.688   9.382  2.7416  1.6599  3.4607
   19CHL1   C12 1363   4.054   6.625   9.518 -0.1214  0.2352  0.3115
   19CHL1  H12A 1364   4.044   6.715   9.454 -2.1428 -0.9802 -1.2163
   19CHL1  H12B 1365   3.949   6.589   9.524  0.0349 -0.3118 -0.0688
   19CHL1   C11 1366   4.106   6.665   9.663  0.1522 -0.5349  0.3057
   19CHL1  H11A 1367   4.199   6.725   9.649  0.1732 -1.0295 -2.0949
   19CHL1  H11B 1368   4.022   6.721   9.708 -1.3934 -2.2528 -0.2846
   19CHL1    C9 1369   4.143   6.546   9.757  0.4153  0.5148 -1.2123
   19CHL1    H9 1370   4.046   6.494   9.773 -0.1426  2.2572  1.8391
   19CHL1   C10 1371   4.191   6.588   9.899 -0.6314 -0.1534 -0.5900
   19CHL1   C19 1372   4.297   6.699   9.892  0.4488  0.2853 -0.2332
   19CHL1  H19A 1373   4.366   6.672   9.809  1.6074 -1.7753  1.3146
   19CHL1  H19B 1374   4.259   6.801   9.872  0.2487  0.2640  0.0303
   19CHL1  H19C 1375   4.363   6.711   9.980 -0.2369  1.8041  0.1039
   19CHL1    C1 1376   4.064   6.635   9.976  0.6651  0.0058 -0.5437
   19CHL1   H1A 1377   4.048   6.735   9.929  3.4735 -0.3581 -2.5604
   19CHL1   H1B 1378   3.983   6.562   9.956 -1.2056  1.6013  0.7989
   19CHL1    C2 1379   4.085   6.647  10.125 -0.2395 -0.9493 -0.4833
   19CHL1   H2A 1380   3.986   6.679  10.164 -0.5558 -1.2294 -1.0499
   19CHL1   H2B 1381   4.163   6.723  10.151  0.2269 -0.8227 -2.1558
   19CHL1   C20 1382   4.116   6.512   9.180  0.1379 -0.0829  0.6449
   19CHL1   H20 1383   4.226   6.513   9.161  0.4798 -1.4486  2.2681
   19CHL1   C21 1384   4.053   6.657   9.186  0.9415 -0.9126 -0.4050
   19CHL1  H21A 1385   4.114   6.720   9.255  1.5403 -2.8262  0.8845
   19CHL1  H21B 1386   3.953   6.657   9.235  1.2368  2.3646  0.4402
   19CHL1  H21C 1387   4.058   6.699   9.083  0.4960 -3.3610 -1.4812
   19CHL1   C22 1388   4.038   6.429   9.080 -0.6365  0.4898  0.5008
   19CHL1  H22A 1389   4.063   6.325   9.110  0.2566  0.7606  0.7384
   19CHL1  H22B 1390   3.927   6.436   9.083 -0.9095 -0.8698 -2.4408
   19CHL1   C23 1391   4.084   6.434   8.937 -0.2072  0.3143 -0.5698
   19CHL1  H23A 1392   3.998   6.393   8.879  0.3268  0.7329 -1.6910
   19CHL1  H23B 1393   4.088   6.535   8.892  1.2920  0.0420 -1.0868
   19CHL1   C24 1394   4.223   6.363   8.907  0.2302 -0.1660  0.2125
   19CHL1  H24A 1395   4.303   6.423   8.956  0.7439  0.3898 -1.2234
   19CHL1  H24B 1396   4.224   6.259   8.944 -0.3340 -0.6439 -1.0482
   19CHL1   C25 1397   4.251   6.353   8.762 -0.6999 -0.6514 -0.3317
   19CHL1   H25 1398   4.237   6.445   8.701 -1.4276 -0.8201 -0.4238
   19CHL1   C26 1399   4.392   6.301   8.731  0.2188  0.3267 -0.5764
   19CHL1  H26A 1400   4.468   6.380   8.749 -0.8878  1.2380  0.2388
   19CHL1  H26B 1401   4.430   6.205   8.771  0.2803 -0.4738 -2.4870
   19CHL1  H26C 1402   4.389   6.287   8.621  0.2940  2.7190 -0.9466
   19CHL1   C27 1403   4.152   6.252   8.710 -1.0162 -0.3545  0.5761
   19CHL1  H27A 1404   4.174   6.150   8.749  0.4790  0.0121  0.7733
   19CHL1  H27B 1405   4.045   6.282   8.713 -0.9260  0.2902 -1.2792
   19CHL1  H27C 1406   4.163   6.247   8.600 -4.6432  1.5645 -0.0190
   20CHL1    C3 1407   5.740   1.416  10.326  0.6612 -0.7962  0.8219
   20CHL1    H3 1408   5.700   1.316  10.299 -0.2564 -0.2260  0.0272
   20CHL1    O3 1409   5.706   1.438  10.466 -0.7861 -0.1338  0.1456
   20CHL1   H3' 1410   5.783   1.415  10.520 -0.0412 -2.5660 -1.7696
   20CHL1    C4 1411   5.890   1.437  10.299 -0.0405 -0.3480 -0.2440
   20CHL1   H4A 1412   5.921   1.536  10.338 -2.7647 -0.7553  3.5611
   20CHL1   H4B 1413   5.940   1.364  10.367  0.1368  0.5450  0.6031
   20CHL1    C5 1414   5.922   1.398  10.159 -0.3930 -0.2052 -0.1236
   20CHL1    C6 1415   5.995   1.289  10.130  0.2241 -0.2771  0.5302
   20CHL1    H6 1416   6.036   1.221  10.206  2.9566  1.1279  0.4395
   20CHL1    C7 1417   6.042   1.264   9.990 -0.8895 -0.1224 -0.0902
   20CHL1   H7A 1418   6.146   1.225   9.993 -1.0781 -0.5993  0.3240
   20CHL1   H7B 1419   5.987   1.177   9.948 -0.3522 -0.0206 -1.0152
   20CHL1    C8 1420   6.017   1.367   9.884  0.2954  0.6029 -0.1780
   20CHL1    H8 1421   6.098   1.443   9.886  0.5946  0.2826 -0.1489
   20CHL1   C14 1422   5.994   1.307   9.746  0.1955  0.0137  0.3829
   20CHL1   H14 1423   5.909   1.236   9.746  0.2110 -0.0412 -1.3937
   20CHL1   C15 1424   6.109   1.213   9.692 -0.7518  0.2755 -0.8119
   20CHL1  H15A 1425   6.200   1.276   9.691 -1.4907  1.3819 -0.3704
   20CHL1  H15B 1426   6.129   1.125   9.756 -0.0944  1.0729  0.1173
   20CHL1   C16 1427   6.078   1.183   9.546  0.1674 -0.8981 -0.2261
   20CHL1  H16A 1428   6.165   1.207   9.481  0.1277 -0.8225 -0.2525
   20CHL1  H16B 1429   6.038   1.084   9.518  2.7332 -1.5719 -1.8366
   20CHL1   C17 1430   5.961   1.287   9.513 -0.2064 -0.7621 -0.6137
   20CHL1   H17 1431   5.864   1.232   9.515 -1.2117  0.9404 -1.1317
   20CHL1   C13 1432   5.968   1.395   9.622 -1.0039  0.0504 -0.8603
   20CHL1   C18 1433   6.093   1.489   9.601 -0.3019  0.1200 -0.3110
   20CHL1  H18A 1434   6.188   1.443   9.567  0.4800  1.2246  0.2821
   20CHL1  H18B 1435   6.072   1.559   9.517  3.3039 -1.3170 -2.6581
   20CHL1  H18C 1436   6.110   1.549   9.694 -0.5562 -0.5798  0.1915
   20CHL1   C12 1437   5.835   1.473   9.658 -0.6694  0.3513  0.4522
   20CHL1  H12A 1438   5.803   1.553   9.589  0.1708 -0.7319 -1.2604
   20CHL1  H12B 1439   5.752   1.398   9.661 -1.2260  0.9393 -0.0772
   20CHL1   C11 1440   5.848   1.537   9.792  0.1373 -0.5735  0.5931
   20CHL1  H11A 1441   5.928   1.614   9.789  0.1616 -0.5995 -1.7434
   20CHL1  H11B 1442   5.763   1.591   9.838  0.3773 -2.1214  3.0101
   20CHL1    C9 1443   5.881   1.440   9.911  0.5178 -0.2330 -0.4199
   20CHL1    H9 1444   5.813   1.353   9.894  0.0479  0.1133 -0.3242
   20CHL1   C10 1445   5.851   1.488  10.059  0.0275  0.4907 -0.7175
   20CHL1   C19 1446   5.914   1.626  10.069 -0.0328 -0.1345 -0.6269
   20CHL1  H19A 1447   6.024   1.606  10.071 -0.3108 -1.7967 -0.3729
   20CHL1  H19B 1448   5.889   1.700   9.990 -1.4004 -0.4338 -0.4922
   20CHL1  H19C 1449   5.871   1.678  10.157 -2.4159  0.3872 -2.0009
   20CHL1    C1 1450   5.694   1.486  10.086 -1.0990 -0.0324 -0.0115
   20CHL1   H1A 1451   5.647   1.570  10.031 -0.8950  0.9055  1.2135
   20CHL1   H1B 1452   5.660   1.386  10.050  0.2710 -0.2044 -0.9030
   20CHL1    C2 1453   5.665   1.512  10.232  0.1893 -0.3151  0.2679
   20CHL1   H2A 1454   5.555   1.507  10.249  0.0799 -0.1144 -0.3447
   20CHL1   H2B 1455   5.694   1.615  10.263 -1.1102  0.1259  0.0976
   20CHL1   C20 1456   5.971   1.339   9.367 -0.9633  0.1221  0.4988
   20CHL1   H20 1457   6.065   1.397   9.357  0.5392 -1.9041  1.9267
   20CHL1   C21 1458   5.845   1.424   9.343  0.5361 -0.3900 -0.2208
   20CHL1  H21A 1459   5.833   1.465   9.240  0.1739  1.8656  0.6497
   20CHL1  H21B 1460   5.842   1.522   9.396 -0.8430  0.7199 -2.2247
   20CHL1  H21C 1461   5.750   1.381   9.382  0.1832 -0.4781 -1.1524
   20CHL1   C22 1462   5.976   1.218   9.271  0.2323  0.2751 -0.0716
   20CHL1  H22A 1463   6.070   1.159   9.274 -0.0804 -0.2371  3.0841
   20CHL1  H22B 1464   5.907   1.138   9.306  0.9948 -0.5131 -0.3280
   20CHL1   C23 1465   5.948   1.244   9.122  0.0659 -0.0864  0.5407
   20CHL1  H23A 1466   5.840   1.266   9.108 -0.1525 -1.9772 -1.3129
   20CHL1  H23B 1467   6.003   1.335   9.086 -1.0095 -0.3791 -2.0524
   20CHL1   C24 1468   5.975   1.130   9.015 -0.2641 -0.4331 -0.9456
   20CHL1  H24A 1469   6.085   1.117   9.009  0.0555  2.1167 -1.8858
   20CHL1  H24B 1470   5.922   1.047   9.067 -0.7880  0.4949  0.0510
   20CHL1   C25 1471   5.927   1.161   8.878 -0.5659 -0.4083 -0.6472
   20CHL1   H25 1472   5.816   1.151   8.878 -0.3685 -4.1652  0.7117
   20CHL1   C26 1473   5.980   1.295   8.826 -0.3929 -0.2096 -0.1907
   20CHL1  H26A 1474   5.960   1.303   8.716 -1.0833 -2.1693 -0.2522
   20CHL1  H26B 1475   5.936   1.383   8.878 -0.9038 -0.2696 -0.5023
   20CHL1  H26C 1476   6.091   1.297   8.833 -0.5040  0.4597  2.3590
   20CHL1   C27 1477   5.965   1.046   8.789 -0.3105 -0.6719 -0.0646
   20CHL1  H27A 1478   6.076   1.042   8.780 -0.0094  1.2392  1.7841
   20CHL1  H27B 1479   5.940   0.942   8.817 -0.7355 -1.1012 -1.9310
   20CHL1  H27C 1480   5.914   1.063   8.692  0.2881 -0.2443 -0.3149
   21CHL1    C3 1481   4.480   4.725  10.240  0.0895  0.4666 -0.6017
   21CHL1    H3 1482   4.370   4.707  10.240  0.6837 -4.7962 -0.4655
   21CHL1    O3 1483   4.521   4.741  10.376 -0.1020  0.0577  0.3722
   21CHL1   H3' 1484   4.617   4.742  10.377 -0.0855 -0.6166  1.6591
   21CHL1    C4 1485   4.539   4.601  10.172  0.8331  0.5865  0.2804
   21CHL1   H4A 1486   4.650   4.610  10.176  0.8719  0.2472  0.0421
   21CHL1   H4B 1487   4.523   4.503  10.222  2.8404 -1.0538 -2.0202
   21CHL1    C5 1488   4.510   4.595  10.025 -0.3831  0.1891  0.2277
   21CHL1    C6 1489   4.450   4.484   9.971  0.2822  0.0212 -0.2605
   21CHL1    H6 1490   4.424   4.397  10.032 -2.3645  0.1977 -1.0176
   21CHL1    C7 1491   4.394   4.460   9.830 -0.0437 -0.1767  0.2248
   21CHL1   H7A 1492   4.413   4.358   9.791 -0.4089 -0.1919  0.0835
   21CHL1   H7B 1493   4.283   4.466   9.823  0.0855  1.6732 -1.2371
   21CHL1    C8 1494   4.445   4.571   9.734  0.2568 -0.4593 -0.5400
   21CHL1    H8 1495   4.552   4.548   9.717 -0.2653 -1.6513 -2.5959
   21CHL1   C14 1496   4.372   4.561   9.600 -0.4777  0.3654  0.0176
   21CHL1   H14 1497   4.267   4.595   9.617 -0.5533  0.9699 -1.4264
   21CHL1   C15 1498   4.357   4.432   9.519 -0.7178  0.4774 -0.0797
   21CHL1  H15A 1499   4.460   4.394   9.507 -0.1273  1.7669  0.7725
   21CHL1  H15B 1500   4.298   4.354   9.572  0.6821 -0.8153 -0.3580
   21CHL1   C16 1501   4.318   4.479   9.381  0.0072  0.5174  0.1005
   21CHL1  H16A 1502   4.387   4.433   9.308  0.4380 -0.8167  1.3041
   21CHL1  H16B 1503   4.215   4.443   9.360  0.4229 -0.7636  0.2049
   21CHL1   C17 1504   4.324   4.635   9.381  0.7641  0.5606  0.7953
   21CHL1   H17 1505   4.216   4.658   9.394 -0.3394 -2.6765 -1.4481
   21CHL1   C13 1506   4.415   4.672   9.497  0.2302 -0.2096 -0.4312
   21CHL1   C18 1507   4.565   4.657   9.455 -0.4875  0.3831  0.3979
   21CHL1  H18A 1508   4.634   4.664   9.542  1.0947  0.8340 -0.8254
   21CHL1  H18B 1509   4.578   4.565   9.393 -0.2800 -0.3702  1.5263
   21CHL1  H18C 1510   4.610   4.737   9.392  1.4580  0.2529  1.5183
   21CHL1   C12 1511   4.385   4.801   9.573 -0.6778  0.3052 -0.4785
   21CHL1  H12A 1512   4.428   4.882   9.511  2.5441 -1.9634 -1.4764
   21CHL1  H12B 1513   4.278   4.815   9.597 -0.6941  0.2834 -0.5378
   21CHL1   C11 1514   4.453   4.826   9.706  0.2764 -0.1125 -0.1278
   21CHL1  H11A 1515   4.559   4.833   9.673  0.1231  1.3467 -0.3566
   21CHL1  H11B 1516   4.416   4.923   9.745 -2.6029 -0.7518 -1.0573
   21CHL1    C9 1517   4.433   4.708   9.808  0.3969  0.0924 -0.2747
   21CHL1    H9 1518   4.325   4.715   9.833  0.8713  1.4508  1.4832
   21CHL1   C10 1519   4.517   4.721   9.944  0.5632  0.1444 -0.0787
   21CHL1   C19 1520   4.664   4.755   9.917 -0.4422  0.2976 -0.1987
   21CHL1  H19A 1521   4.683   4.852   9.864  1.5329  0.2126  0.2603
   21CHL1  H19B 1522   4.716   4.750  10.015 -0.2959 -0.3098 -0.3073
   21CHL1  H19C 1523   4.716   4.680   9.855 -0.1545  1.9103 -2.0253
   21CHL1    C1 1524   4.457   4.841  10.023  0.4454  0.2597  0.9977
   21CHL1   H1A 1525   4.475   4.935   9.966 -0.5081  0.0134  0.2607
   21CHL1   H1B 1526   4.348   4.826  10.031  0.2632  0.9366 -0.0151
   21CHL1    C2 1527   4.514   4.851  10.161 -0.3155  0.6186  0.4253
   21CHL1   H2A 1528   4.456   4.930  10.213  0.2778  0.9370  0.6088
   21CHL1   H2B 1529   4.620   4.880  10.178 -1.3734  3.6494  2.7803
   21CHL1   C20 1530   4.359   4.695   9.242 -0.2386 -0.6051 -0.0522
   21CHL1   H20 1531   4.457   4.657   9.205 -0.0414  1.8510 -2.3530
   21CHL1   C21 1532   4.369   4.851   9.254 -0.0146 -0.2980  0.2101
   21CHL1  H21A 1533   4.278   4.889   9.306 -0.7419  0.8669 -1.7939
   21CHL1  H21B 1534   4.392   4.891   9.153 -0.7548 -0.4754 -0.0347
   21CHL1  H21C 1535   4.459   4.863   9.318  0.2124 -3.4474  0.6309
   21CHL1   C22 1536   4.263   4.658   9.128 -0.3200  0.3947  0.2947
   21CHL1  H22A 1537   4.177   4.593   9.154  2.0466 -2.6886  1.0354
   21CHL1  H22B 1538   4.219   4.750   9.084  0.7034  0.2631 -1.0834
   21CHL1   C23 1539   4.321   4.591   9.005  0.6039  0.7351  0.7851
   21CHL1  H23A 1540   4.412   4.640   8.964  0.6901  0.4555  0.6368
   21CHL1  H23B 1541   4.361   4.491   9.033  0.9826  0.2895 -1.1445
   21CHL1   C24 1542   4.215   4.566   8.900  0.3680  0.8592  0.0220
   21CHL1  H24A 1543   4.136   4.502   8.944  0.1093  2.3572  1.8658
   21CHL1  H24B 1544   4.167   4.666   8.886  0.1806  0.8244  0.4062
   21CHL1   C25 1545   4.255   4.492   8.767  0.8424  0.2169  0.0476
   21CHL1   H25 1546   4.344   4.538   8.719  1.3179 -0.0434  0.6750
   21CHL1   C26 1547   4.290   4.343   8.791 -0.2123  0.1577  0.1445
   21CHL1  H26A 1548   4.261   4.277   8.707 -0.9548  0.0287  0.4931
   21CHL1  H26B 1549   4.399   4.323   8.786 -0.4247 -1.1671  0.3108
   21CHL1  H26C 1550   4.262   4.297   8.889  0.7516 -1.0273 -0.1072
   21CHL1   C27 1551   4.145   4.502   8.665  0.2223  0.0591  0.5900
   21CHL1  H27A 1552   4.065   4.435   8.701  2.1653 -1.9049  1.4934
   21CHL1  H27B 1553   4.111   4.608   8.670  0.2259  0.2549 -2.1185
   21CHL1  H27C 1554   4.182   4.471   8.565 -0.1503 -0.0359  0.4819
   22CHL1    C3 1555   5.619   4.750   9.889 -0.0873  0.0535 -0.2175
   22CHL1    H3 1556   5.693   4.679   9.844 -0.5692  0.0121 -0.9521
   22CHL1    O3 1557   5.606   4.746  10.032  0.4052 -0.4305 -0.3480
   22CHL1   H3' 1558   5.555   4.665  10.045  1.0754 -1.0611 -1.4910
   22CHL1    C4 1559   5.662   4.890   9.833  0.4889  0.3891  0.2021
   22CHL1   H4A 1560   5.592   4.959   9.885  1.0224 -0.8497  2.7169
   22CHL1   H4B 1561   5.764   4.917   9.868  0.1151  1.2073  0.7130
   22CHL1    C5 1562   5.645   4.910   9.689  0.0944  0.3991  0.6549
   22CHL1    C6 1563   5.757   4.940   9.619  0.4859 -0.5397 -0.0300
   22CHL1    H6 1564   5.841   4.964   9.686  1.0769 -0.2728 -0.8472
   22CHL1    C7 1565   5.771   4.960   9.468  0.0595  0.1895 -0.0832
   22CHL1   H7A 1566   5.805   5.063   9.444  3.8956 -0.6641  1.0576
   22CHL1   H7B 1567   5.846   4.888   9.430  0.6287  0.2928  0.8226
   22CHL1    C8 1568   5.630   4.958   9.402  0.6517 -0.6832 -0.4100
   22CHL1    H8 1569   5.577   5.055   9.417  0.2049 -1.1004  0.8795
   22CHL1   C14 1570   5.656   4.925   9.254 -0.1075 -0.9790  0.1932
   22CHL1   H14 1571   5.718   4.833   9.256  1.4170  0.0264  2.1228
   22CHL1   C15 1572   5.750   5.022   9.181 -0.1309  0.3214  0.2313
   22CHL1  H15A 1573   5.708   5.125   9.184 -0.3185  0.2251  1.1572
   22CHL1  H15B 1574   5.855   5.027   9.216 -0.0894 -1.1984  0.3782
   22CHL1   C16 1575   5.731   4.971   9.033 -0.0535  0.0590  0.6352
   22CHL1  H16A 1576   5.751   5.047   8.955 -0.8694  2.3066  2.5307
   22CHL1  H16B 1577   5.815   4.899   9.020  0.2008  0.5057 -0.3143
   22CHL1   C17 1578   5.597   4.890   9.025 -0.1661  0.8787  0.5519
   22CHL1   H17 1579   5.632   4.784   9.031 -2.8550 -0.0190  5.2149
   22CHL1   C13 1580   5.533   4.912   9.166  0.0458  0.1798  0.0877
   22CHL1   C18 1581   5.456   5.053   9.164 -1.0514 -0.0446 -0.1848
   22CHL1  H18A 1582   5.365   5.053   9.100 -0.2606  1.8919 -1.3791
   22CHL1  H18B 1583   5.427   5.080   9.268 -2.7019 -0.1270 -0.5977
   22CHL1  H18C 1584   5.522   5.133   9.125  1.0957 -1.3582  0.5632
   22CHL1   C12 1585   5.428   4.812   9.228 -0.4144 -0.0601  0.0372
   22CHL1  H12A 1586   5.326   4.820   9.184 -0.6139 -0.6188  0.3959
   22CHL1  H12B 1587   5.473   4.718   9.191  3.1975  1.7891 -0.7246
   22CHL1   C11 1588   5.413   4.825   9.381 -0.1474 -0.2325  0.2681
   22CHL1  H11A 1589   5.358   4.921   9.392  0.0803 -0.1255  0.4877
   22CHL1  H11B 1590   5.346   4.750   9.429 -0.7743 -1.0487 -1.7698
   22CHL1    C9 1591   5.546   4.838   9.464  0.1055 -0.2589 -0.7313
   22CHL1    H9 1592   5.611   4.750   9.449 -1.3026 -1.9405  2.1190
   22CHL1   C10 1593   5.513   4.853   9.618  0.8210  0.6586 -0.0310
   22CHL1   C19 1594   5.387   4.947   9.643 -0.0227 -0.5893  0.0439
   22CHL1  H19A 1595   5.298   4.898   9.598  0.5981 -3.4130  1.6642
   22CHL1  H19B 1596   5.362   4.950   9.751 -0.1612 -1.9642  0.0729
   22CHL1  H19C 1597   5.399   5.051   9.606 -1.9121 -0.9428 -1.7688
   22CHL1    C1 1598   5.484   4.712   9.681  0.3890  0.6732 -0.3474
   22CHL1   H1A 1599   5.391   4.663   9.645  0.1233 -0.3222  1.5886
   22CHL1   H1B 1600   5.571   4.650   9.649  0.0218  0.0613 -0.1867
   22CHL1    C2 1601   5.483   4.707   9.836  0.0655  0.1919 -0.4325
   22CHL1   H2A 1602   5.455   4.604   9.867 -3.6882  0.6712 -1.7453
   22CHL1   H2B 1603   5.411   4.776   9.883  1.6527  1.1038  0.7626
   22CHL1   C20 1604   5.509   4.921   8.899  0.1655  0.2216 -0.1012
   22CHL1   H20 1605   5.473   5.025   8.888  1.4344  0.4425 -3.0038
   22CHL1   C21 1606   5.383   4.835   8.913  1.0160  1.0448  0.1700
   22CHL1  H21A 1607   5.321   4.882   8.992  0.0858 -1.4691  1.0530
   22CHL1  H21B 1608   5.415   4.737   8.956 -3.6474 -0.7526  0.1308
   22CHL1  H21C 1609   5.321   4.825   8.821 -1.1251  1.9311  1.4323
   22CHL1   C22 1610   5.583   4.880   8.770  0.0151  0.2076 -1.0343
   22CHL1  H22A 1611   5.689   4.909   8.790  0.5384 -2.3100  0.2125
   22CHL1  H22B 1612   5.585   4.769   8.773  1.2840  0.1569  2.7815
   22CHL1   C23 1613   5.527   4.939   8.649 -0.6772 -0.9712  0.2668
   22CHL1  H23A 1614   5.421   4.912   8.634 -0.6368  0.0620 -2.5427
   22CHL1  H23B 1615   5.523   5.050   8.647 -1.2801 -0.9159  2.3563
   22CHL1   C24 1616   5.601   4.883   8.528 -0.3436  0.2257 -0.3835
   22CHL1  H24A 1617   5.709   4.884   8.552 -0.5315 -2.9212  1.1772
   22CHL1  H24B 1618   5.575   4.775   8.522  0.1708  0.1350 -1.0564
   22CHL1   C25 1619   5.566   4.962   8.400 -0.9651 -0.6344  0.4289
   22CHL1   H25 1620   5.583   5.071   8.419  0.2310 -0.3242 -1.9833
   22CHL1   C26 1621   5.666   4.911   8.283 -0.6757 -0.5507  0.1763
   22CHL1  H26A 1622   5.662   4.983   8.199  1.1258 -0.9318 -0.2671
   22CHL1  H26B 1623   5.768   4.897   8.325 -0.3069  1.5274  0.0908
   22CHL1  H26C 1624   5.625   4.815   8.247 -0.3424 -1.3098  1.7357
   22CHL1   C27 1625   5.421   4.953   8.344 -0.0795 -0.1797  0.3331
   22CHL1  H27A 1626   5.379   4.850   8.351  1.6754 -1.0321 -0.8601
   22CHL1  H27B 1627   5.344   5.021   8.386  0.0888  0.0373  0.2963
   22CHL1  H27C 1628   5.426   4.972   8.235 -0.8231  0.7300  0.4478
   23CHL1    C3 1629   2.606   5.950  10.047  0.4399  0.0898  0.5752
   23CHL1    H3 1630   2.501   5.925  10.021  1.3765 -0.4739 -3.2305
   23CHL1    O3 1631   2.609   5.955  10.184 -0.1242  0.0257  0.0146
   23CHL1   H3' 1632   2.634   6.047  10.199 -3.5007  1.3021 -1.2278
   23CHL1    C4 1633   2.694   5.837  10.002 -0.2054 -0.3304 -0.2081
   23CHL1   H4A 1634   2.800   5.854  10.029 -0.5039 -1.5392  1.9769
   23CHL1   H4B 1635   2.659   5.744  10.053 -2.1636 -1.2137 -2.9195
   23CHL1    C5 1636   2.690   5.826   9.854  0.4352 -0.3163 -0.1147
   23CHL1    C6 1637   2.659   5.711   9.798 -0.1575 -0.4010 -0.3423
   23CHL1    H6 1638   2.643   5.622   9.860 -0.2535 -0.2663 -0.1720
   23CHL1    C7 1639   2.657   5.690   9.648 -0.1636  0.1585  0.4516
   23CHL1   H7A 1640   2.704   5.592   9.626  2.5615  0.7834  2.8481
   23CHL1   H7B 1641   2.556   5.692   9.601  0.2378  0.5988 -0.4211
   23CHL1    C8 1642   2.726   5.801   9.569 -0.5249 -0.2484 -0.6819
   23CHL1    H8 1643   2.835   5.788   9.590 -0.6028  1.9008  1.5755
   23CHL1   C14 1644   2.693   5.791   9.420  0.1213  0.9015  0.1804
   23CHL1   H14 1645   2.583   5.806   9.416  0.1055  0.5760 -0.8424
   23CHL1   C15 1646   2.719   5.657   9.350  0.2139 -0.4633  0.2667
   23CHL1  H15A 1647   2.816   5.618   9.388 -0.1832  0.6083  2.5581
   23CHL1  H15B 1648   2.642   5.578   9.367 -1.0914  1.1265  2.1548
   23CHL1   C16 1649   2.735   5.690   9.199 -0.4911  0.6564  0.0420
   23CHL1  H16A 1650   2.834   5.649   9.172 -0.3274  0.2378  1.2123
   23CHL1  H16B 1651   2.661   5.639   9.133  1.6271 -0.4907 -1.5347
   23CHL1   C17 1652   2.721   5.844   9.186 -0.5734 -0.0029  1.0872
   23CHL1   H17 1653   2.614   5.871   9.176 -0.2243  1.0763  0.0836
   23CHL1   C13 1654   2.757   5.895   9.330  0.2976  0.2493 -0.6881
   23CHL1   C18 1655   2.909   5.885   9.355  0.0872 -0.4308  0.0822
   23CHL1  H18A 1656   2.948   5.781   9.348 -3.0521 -1.9355  2.4670
   23CHL1  H18B 1657   2.965   5.942   9.278 -0.1681  1.3260  1.1525
   23CHL1  H18C 1658   2.936   5.927   9.453  0.0379 -1.7203  0.6714
   23CHL1   C12 1659   2.695   6.035   9.377 -0.5188  0.0408  0.1438
   23CHL1  H12A 1660   2.727   6.117   9.308 -2.5226  0.9829  0.2686
   23CHL1  H12B 1661   2.586   6.021   9.361 -0.4489  1.8508 -2.6385
   23CHL1   C11 1662   2.730   6.058   9.528 -0.4059 -0.5186  1.3864
   23CHL1  H11A 1663   2.837   6.087   9.537 -0.5658 -0.0243  1.7043
   23CHL1  H11B 1664   2.677   6.151   9.558  0.7599  0.6385  0.0185
   23CHL1    C9 1665   2.685   5.937   9.622 -0.4810 -0.1800  0.7379
   23CHL1    H9 1666   2.576   5.953   9.611 -0.2898  0.8506  0.1868
   23CHL1   C10 1667   2.711   5.956   9.775 -0.4431  0.3262  0.1443
   23CHL1   C19 1668   2.862   5.985   9.794 -0.3884 -0.0460  0.2235
   23CHL1  H19A 1669   2.897   6.071   9.733 -0.5130 -0.9217 -1.1153
   23CHL1  H19B 1670   2.895   6.008   9.898 -0.0926  2.2073 -0.3229
   23CHL1  H19C 1671   2.917   5.896   9.757 -0.2875 -0.1309  0.5703
   23CHL1    C1 1672   2.623   6.070   9.823 -0.0800 -0.1818  0.1035
   23CHL1   H1A 1673   2.655   6.164   9.773  2.7524 -0.0868  1.8588
   23CHL1   H1B 1674   2.516   6.046   9.805  0.3825 -2.4206  0.1041
   23CHL1    C2 1675   2.631   6.087   9.983 -0.6831 -0.7216  0.4356
   23CHL1   H2A 1676   2.550   6.159  10.012 -0.6391 -0.9470  1.1336
   23CHL1   H2B 1677   2.737   6.116   9.997  0.3619 -2.3391 -3.0250
   23CHL1   C20 1678   2.800   5.884   9.059 -0.8685 -0.1598  0.1207
   23CHL1   H20 1679   2.910   5.878   9.077 -1.1456 -0.2212  2.0298
   23CHL1   C21 1680   2.765   6.032   9.029 -0.0685  0.7635  0.0557
   23CHL1  H21A 1681   2.785   6.049   8.921 -2.1970 -0.6468 -0.6052
   23CHL1  H21B 1682   2.814   6.106   9.097 -0.7275  2.5542 -1.3272
   23CHL1  H21C 1683   2.656   6.050   9.037 -0.7822 -1.5722 -3.0746
   23CHL1   C22 1684   2.777   5.791   8.936  0.6042 -0.3750 -0.3710
   23CHL1  H22A 1685   2.856   5.823   8.864  1.7162  0.2444  1.0806
   23CHL1  H22B 1686   2.814   5.691   8.965 -1.8567 -1.3445 -0.3692
   23CHL1   C23 1687   2.635   5.785   8.869 -0.0576  0.1017 -0.0750
   23CHL1  H23A 1688   2.566   5.739   8.943 -1.1940  1.1390 -0.4640
   23CHL1  H23B 1689   2.585   5.882   8.852 -4.0737 -0.9711  3.8627
   23CHL1   C24 1690   2.641   5.683   8.748 -1.2853 -0.6564  0.4825
   23CHL1  H24A 1691   2.713   5.717   8.671 -0.1590 -0.6448  1.5195
   23CHL1  H24B 1692   2.668   5.582   8.786 -0.3844 -0.4954  0.2781
   23CHL1   C25 1693   2.507   5.671   8.672 -1.0449  0.4554  0.6055
   23CHL1   H25 1694   2.429   5.692   8.749 -0.8104  2.3758  0.3827
   23CHL1   C26 1695   2.496   5.796   8.578  0.3250  0.5199  0.0925
   23CHL1  H26A 1696   2.477   5.886   8.641  0.9950  1.1093 -0.5275
   23CHL1  H26B 1697   2.588   5.805   8.516 -0.6456  1.0232 -1.3199
   23CHL1  H26C 1698   2.408   5.798   8.510  0.3438  1.0265  0.0771
   23CHL1   C27 1699   2.472   5.537   8.608  0.8131  0.3139 -1.0114
   23CHL1  H27A 1700   2.379   5.544   8.547  0.6013 -1.2464 -0.9099
   23CHL1  H27B 1701   2.558   5.489   8.557  0.5962 -2.5516  1.0735
   23CHL1  H27C 1702   2.446   5.463   8.687  0.8363  0.5215 -0.8056
   24CHL1    C3 1703   2.578   0.681  10.121  0.5022  0.4349 -1.1883
   24CHL1    H3 1704   2.476   0.641  10.136  0.5273 -0.1660 -2.4902
   24CHL1    O3 1705   2.633   0.670  10.254 -0.1499 -0.0716  0.3957
   24CHL1   H3' 1706   2.600   0.581  10.271 -0.6503  0.0038 -0.1581
   24CHL1    C4 1707   2.665   0.592  10.030  0.1136 -0.0790 -0.9535
   24CHL1   H4A 1708   2.770   0.625  10.044 -0.1879  0.5836 -0.1358
   24CHL1   H4B 1709   2.666   0.483  10.052  1.2829 -0.1798 -1.4676
   24CHL1    C5 1710   2.630   0.612   9.886  1.1188 -0.3963 -0.7713
   24CHL1    C6 1711   2.603   0.508   9.809 -0.7546 -0.0026  0.1491
   24CHL1    H6 1712   2.603   0.407   9.852 -1.7950 -0.1868 -0.2390
   24CHL1    C7 1713   2.585   0.521   9.662  0.0691 -0.5126 -1.0879
   24CHL1   H7A 1714   2.643   0.442   9.610  3.2525 -0.1853  1.6681
   24CHL1   H7B 1715   2.480   0.489   9.642 -0.1768 -0.3497 -0.1188
   24CHL1    C8 1716   2.612   0.662   9.598 -0.2074 -0.1011 -0.1455
   24CHL1    H8 1717   2.719   0.671   9.574 -0.3644 -0.4559 -1.0073
   24CHL1   C14 1718   2.550   0.674   9.459 -0.4156 -0.0256  0.1531
   24CHL1   H14 1719   2.441   0.675   9.479 -0.1025 -2.1492  2.4063
   24CHL1   C15 1720   2.564   0.551   9.367 -0.4905 -0.2980  0.1012
   24CHL1  H15A 1721   2.672   0.525   9.359 -0.4794 -0.0712 -0.5105
   24CHL1  H15B 1722   2.497   0.471   9.405  0.1232 -0.9616 -0.1908
   24CHL1   C16 1723   2.521   0.615   9.236  0.0100  0.9893  0.3383
   24CHL1  H16A 1724   2.606   0.604   9.166 -0.2065  1.4812 -0.0045
   24CHL1  H16B 1725   2.429   0.583   9.184 -1.4447  2.7203  1.6939
   24CHL1   C17 1726   2.504   0.774   9.259 -0.2086 -0.0497  0.3799
   24CHL1   H17 1727   2.401   0.800   9.291  0.2819 -0.3754  2.3669
   24CHL1   C13 1728   2.579   0.805   9.388 -0.2589 -0.0223 -0.2871
   24CHL1   C18 1729   2.728   0.822   9.362  0.1376  0.7352  0.6504
   24CHL1  H18A 1730   2.745   0.913   9.301 -1.0259  0.0679 -0.7374
   24CHL1  H18B 1731   2.782   0.820   9.459 -0.1483 -1.0107  0.8150
   24CHL1  H18C 1732   2.776   0.738   9.307  0.2990  0.9050  0.5310
   24CHL1   C12 1733   2.522   0.921   9.479 -0.3544  0.1026 -0.2798
   24CHL1  H12A 1734   2.549   1.026   9.456 -2.3587  0.4062 -1.5115
   24CHL1  H12B 1735   2.412   0.917   9.493 -0.2871  2.2388  1.2904
   24CHL1   C11 1736   2.583   0.909   9.629  1.1283 -0.5449  0.4602
   24CHL1  H11A 1737   2.689   0.943   9.619  1.0894 -0.5482 -0.0291
   24CHL1  H11B 1738   2.540   0.994   9.685  1.6701  0.4406 -0.5630
   24CHL1    C9 1739   2.567   0.766   9.691  0.8436 -0.3686  0.1208
   24CHL1    H9 1740   2.456   0.753   9.690  0.9497 -1.5160 -2.1228
   24CHL1   C10 1741   2.631   0.755   9.835  0.4650  0.3727  0.1852
   24CHL1   C19 1742   2.778   0.810   9.840  0.3669 -0.0583  0.3822
   24CHL1  H19A 1743   2.778   0.921   9.836 -1.3712 -0.0698 -1.7803
   24CHL1  H19B 1744   2.821   0.789   9.940 -0.4317  1.7626  1.1590
   24CHL1  H19C 1745   2.835   0.774   9.751  1.6659  2.0483  0.2921
   24CHL1    C1 1746   2.535   0.838   9.932 -0.2265 -0.3965 -0.0917
   24CHL1   H1A 1747   2.543   0.945   9.905 -1.0417  0.1834  1.7982
   24CHL1   H1B 1748   2.434   0.797   9.912 -0.3801  0.3430 -0.9260
   24CHL1    C2 1749   2.579   0.832  10.077  0.3745  0.5124  0.0248
   24CHL1   H2A 1750   2.518   0.887  10.152 -0.3175 -0.4535  0.1827
   24CHL1   H2B 1751   2.682   0.871  10.085  0.0315  1.5635 -0.4103
   24CHL1   C20 1752   2.531   0.859   9.132  0.6182 -0.2629 -0.6348
   24CHL1   H20 1753   2.640   0.855   9.110  0.5690 -0.0646 -0.9105
   24CHL1   C21 1754   2.496   1.003   9.170  0.2103 -0.1155  0.5190
   24CHL1  H21A 1755   2.394   1.008   9.215 -0.0431  0.1922 -0.0840
   24CHL1  H21B 1756   2.506   1.069   9.082  0.3183 -0.0466  0.5837
   24CHL1  H21C 1757   2.572   1.035   9.244  0.7280  1.2333 -0.5760
   24CHL1   C22 1758   2.451   0.804   9.007 -0.3070 -0.3344  0.8020
   24CHL1  H22A 1759   2.486   0.702   8.979 -0.5170 -0.0009 -0.7607
   24CHL1  H22B 1760   2.341   0.810   9.020 -0.5235 -0.1014 -0.8946
   24CHL1   C23 1761   2.465   0.887   8.873 -0.3057 -0.7795 -0.6155
   24CHL1  H23A 1762   2.410   0.984   8.874 -1.2421 -1.2046 -3.0468
   24CHL1  H23B 1763   2.573   0.917   8.874 -0.6037  0.4307  2.0245
   24CHL1   C24 1764   2.430   0.812   8.742 -1.3348  0.2733  0.3073
   24CHL1  H24A 1765   2.471   0.709   8.743 -0.0070  0.7766  2.2323
   24CHL1  H24B 1766   2.320   0.809   8.730 -1.3013  1.5728 -0.5396
   24CHL1   C25 1767   2.480   0.874   8.609 -0.3417  0.3530  0.1845
   24CHL1   H25 1768   2.439   0.976   8.594  0.2593  0.8433  1.6428
   24CHL1   C26 1769   2.633   0.888   8.596 -0.0599 -0.2057  0.1434
   24CHL1  H26A 1770   2.671   0.783   8.599 -0.3651 -0.4236 -2.2847
   24CHL1  H26B 1771   2.657   0.919   8.493  0.1276  0.9974  0.5365
   24CHL1  H26C 1772   2.687   0.959   8.663  2.3571 -3.0653  1.4984
   24CHL1   C27 1773   2.435   0.792   8.491  0.4283  0.1743 -0.1305
   24CHL1  H27A 1774   2.498   0.701   8.485 -2.1601 -1.8465  1.4071
   24CHL1  H27B 1775   2.328   0.766   8.505 -0.1661  2.2880 -0.2971
   24CHL1  H27C 1776   2.444   0.835   8.388 -0.9316 -0.0745 -0.3749
   25CHL1    C3 1777   4.514   0.845  10.178 -0.2589 -0.0074  0.1561
   25CHL1    H3 1778   4.612   0.896  10.181  0.1958 -0.8177  3.9396
   25CHL1    O3 1779   4.475   0.812  10.306  0.0550 -0.1095  0.1953
   25CHL1   H3' 1780   4.429   0.888  10.344 -1.5282 -0.2746 -1.2532
   25CHL1    C4 1781   4.412   0.940  10.120 -0.0916  0.0130 -0.2576
   25CHL1   H4A 1782   4.311   0.899  10.144 -0.0328  0.6084  1.0772
   25CHL1   H4B 1783   4.418   1.034  10.178  1.0206 -0.5151  0.5120
   25CHL1    C5 1784   4.418   0.957   9.970 -0.3503 -0.0877 -0.2290
   25CHL1    C6 1785   4.424   1.079   9.910  0.4260 -0.1887 -0.5909
   25CHL1    H6 1786   4.414   1.170   9.970 -1.5526  0.5878 -1.9771
   25CHL1    C7 1787   4.433   1.109   9.760 -0.3423  0.6854 -0.1070
   25CHL1   H7A 1788   4.345   1.173   9.740 -0.8000  0.5591  1.4144
   25CHL1   H7B 1789   4.532   1.154   9.735  0.0980 -1.4565 -2.6757
   25CHL1    C8 1790   4.415   0.978   9.671  0.1294  0.4532 -0.6570
   25CHL1    H8 1791   4.305   0.961   9.666  0.3189 -1.7156  0.9772
   25CHL1   C14 1792   4.473   1.003   9.532 -0.8672 -0.1328 -0.0946
   25CHL1   H14 1793   4.582   1.023   9.548 -0.6577 -1.7065  0.6404
   25CHL1   C15 1794   4.427   1.121   9.445  1.3030 -0.0909  0.7116
   25CHL1  H15A 1795   4.316   1.127   9.443  1.2408 -0.5790  1.7171
   25CHL1  H15B 1796   4.470   1.211   9.494  2.9051 -1.3387  1.7026
   25CHL1   C16 1797   4.495   1.095   9.307 -0.1166 -0.7592 -0.2763
   25CHL1  H16A 1798   4.420   1.104   9.225  0.4995 -0.3599 -0.8077
   25CHL1  H16B 1799   4.571   1.170   9.276  0.1219 -0.8451  0.0895
   25CHL1   C17 1800   4.547   0.947   9.314 -0.3421 -0.6099 -0.4653
   25CHL1   H17 1801   4.654   0.940   9.346 -0.2843 -2.4652 -0.9385
   25CHL1   C13 1802   4.474   0.888   9.436 -0.0377 -0.3452 -0.5070
   25CHL1   C18 1803   4.324   0.842   9.391 -0.4430  0.4937  0.2524
   25CHL1  H18A 1804   4.264   0.819   9.482 -1.6480 -1.5492 -0.9829
   25CHL1  H18B 1805   4.280   0.924   9.330  0.3517  0.7439  0.0079
   25CHL1  H18C 1806   4.339   0.752   9.328 -0.2714  0.5031  0.2799
   25CHL1   C12 1807   4.547   0.765   9.503 -0.2834 -1.0401 -1.4153
   25CHL1  H12A 1808   4.535   0.670   9.447 -2.2940 -1.2426 -0.7200
   25CHL1  H12B 1809   4.656   0.785   9.493 -0.5299  0.8682 -0.7047
   25CHL1   C11 1810   4.498   0.742   9.642  0.6521  0.6864 -0.5006
   25CHL1  H11A 1811   4.394   0.703   9.639  0.8334  0.2346 -1.2171
   25CHL1  H11B 1812   4.560   0.663   9.690  1.1742  0.3036 -1.7618
   25CHL1    C9 1813   4.490   0.868   9.736  0.6801  0.4358  0.2458
   25CHL1    H9 1814   4.596   0.901   9.741  0.9421 -0.3291 -0.0333
   25CHL1   C10 1815   4.443   0.828   9.882  0.0784 -0.0995 -0.3933
   25CHL1   C19 1816   4.302   0.763   9.877  0.2365 -0.4769 -0.4743
   25CHL1  H19A 1817   4.260   0.762   9.980  1.0530 -0.7713 -0.1304
   25CHL1  H19B 1818   4.229   0.817   9.813 -0.4511 -0.0526  0.6415
   25CHL1  H19C 1819   4.307   0.659   9.838 -0.7555 -0.5959 -0.3104
   25CHL1    C1 1820   4.545   0.735   9.941 -0.6294 -0.1429  0.2843
   25CHL1   H1A 1821   4.531   0.633   9.900 -0.8877 -0.3627  0.8975
   25CHL1   H1B 1822   4.646   0.780   9.933 -0.8851  0.4839  0.5778
   25CHL1    C2 1823   4.526   0.715  10.095  0.4500  0.3233  0.5205
   25CHL1   H2A 1824   4.615   0.657  10.129 -1.5809 -2.7025  1.0964
   25CHL1   H2B 1825   4.437   0.650  10.112  0.9482 -0.7344 -0.7197
   25CHL1   C20 1826   4.547   0.873   9.180  0.5536 -0.4998 -0.2264
   25CHL1   H20 1827   4.443   0.878   9.141  0.5884 -0.4068 -0.3080
   25CHL1   C21 1828   4.582   0.726   9.181 -0.6587 -0.2837 -0.4522
   25CHL1  H21A 1829   4.506   0.680   9.248  1.2084 -0.8867  1.3502
   25CHL1  H21B 1830   4.677   0.698   9.232 -2.9365 -0.2632  4.3233
   25CHL1  H21C 1831   4.555   0.680   9.083  2.4155 -0.0724 -1.5249
   25CHL1   C22 1832   4.641   0.955   9.087  0.5321  0.3966  0.0205
   25CHL1  H22A 1833   4.611   1.062   9.087 -0.8736  0.0235  0.6387
   25CHL1  H22B 1834   4.746   0.956   9.124  0.8482  0.3947 -0.8550
   25CHL1   C23 1835   4.643   0.910   8.935  0.3491  0.5834 -0.6249
   25CHL1  H23A 1836   4.676   0.993   8.870 -1.0177 -0.9830 -3.5177
   25CHL1  H23B 1837   4.707   0.821   8.923  0.5300  0.7116 -0.6094
   25CHL1   C24 1838   4.508   0.865   8.887  0.0576 -0.3454  0.0605
   25CHL1  H24A 1839   4.466   0.771   8.928 -1.7418  0.0545 -0.7638
   25CHL1  H24B 1840   4.428   0.936   8.917 -1.3071 -1.4930 -0.7202
   25CHL1   C25 1841   4.493   0.855   8.732 -0.2614  0.0373  0.8464
   25CHL1   H25 1842   4.560   0.934   8.692 -0.0903 -1.0508 -1.1488
   25CHL1   C26 1843   4.546   0.722   8.683  0.1463 -0.2785 -0.0139
   25CHL1  H26A 1844   4.483   0.645   8.734 -0.0028  0.4775  0.9608
   25CHL1  H26B 1845   4.548   0.707   8.573 -1.6873 -0.9099  0.0011
   25CHL1  H26C 1846   4.649   0.688   8.707 -0.2171 -1.9760 -0.6697
   25CHL1   C27 1847   4.345   0.886   8.689 -0.5272 -0.1143  0.0114
   25CHL1  H27A 1848   4.294   0.802   8.742  1.5838 -0.7362  1.1978
   25CHL1  H27B 1849   4.308   0.987   8.714  1.6624  0.6816  0.2003
   25CHL1  H27C 1850   4.347   0.875   8.579  1.1690 -1.4432  0.1143
   26CHL1    C3 1851   6.636   4.936  10.054  0.2841  0.0289  0.0763
   26CHL1    H3 1852   6.619   4.827  10.067 -0.4242  0.3079  1.7719
   26CHL1    O3 1853   6.639   4.998  10.184 -0.3618 -0.2500  0.0914
   26CHL1   H3' 1854   6.648   4.919  10.238 -0.7363 -0.5753 -0.3128
   26CHL1    C4 1855   6.759   4.973   9.972  0.9559  0.1788 -0.5429
   26CHL1   H4A 1856   6.763   5.082   9.952  0.3911 -0.0111 -1.8310
   26CHL1   H4B 1857   6.850   4.943  10.027 -0.0357 -0.1661  0.9874
   26CHL1    C5 1858   6.751   4.911   9.838 -0.6134  0.8528 -0.3243
   26CHL1    C6 1859   6.861   4.843   9.789 -0.2395  0.1866 -0.0280
   26CHL1    H6 1860   6.955   4.823   9.843  1.7478  1.0657 -2.9328
   26CHL1    C7 1861   6.859   4.794   9.645  0.3114  0.0648  0.3877
   26CHL1   H7A 1862   6.958   4.800   9.595 -0.3579  0.2080 -0.9685
   26CHL1   H7B 1863   6.835   4.685   9.644  0.1013  0.1082 -0.3863
   26CHL1    C8 1864   6.740   4.851   9.552 -0.2098  0.0475 -0.6794
   26CHL1    H8 1865   6.771   4.953   9.520 -0.8355  0.6396  0.5404
   26CHL1   C14 1866   6.722   4.764   9.427 -1.2279  0.1884 -0.4578
   26CHL1   H14 1867   6.704   4.660   9.460  0.9516  0.7287  2.9219
   26CHL1   C15 1868   6.845   4.749   9.340 -0.2004 -0.1802  0.1231
   26CHL1  H15A 1869   6.899   4.846   9.329 -0.1648 -0.3473 -1.3870
   26CHL1  H15B 1870   6.916   4.679   9.388  1.5172  1.9245  0.7893
   26CHL1   C16 1871   6.789   4.703   9.205  0.6336  0.7982  0.1052
   26CHL1  H16A 1872   6.821   4.785   9.137  2.2321  0.7111  0.7066
   26CHL1  H16B 1873   6.832   4.604   9.177 -1.3592 -1.0034  2.8556
   26CHL1   C17 1874   6.634   4.707   9.226 -0.3247  0.8044  0.7200
   26CHL1   H17 1875   6.602   4.605   9.258  1.4832 -0.4371 -1.1063
   26CHL1   C13 1876   6.602   4.803   9.343 -0.2337  0.5634  0.0510
   26CHL1   C18 1877   6.611   4.949   9.294  0.0231  0.6776 -0.4152
   26CHL1  H18A 1878   6.529   4.949   9.220  0.7828  0.1827 -1.2694
   26CHL1  H18B 1879   6.598   5.023   9.377 -0.6859  1.2783 -1.0415
   26CHL1  H18C 1880   6.699   4.978   9.233  0.8681 -1.7146 -0.4518
   26CHL1   C12 1881   6.478   4.787   9.423 -0.3992  0.1747  0.3484
   26CHL1  H12A 1882   6.396   4.836   9.366  0.6479  1.5131 -0.0681
   26CHL1  H12B 1883   6.467   4.677   9.435 -0.2162 -0.0111 -1.0039
   26CHL1   C11 1884   6.480   4.848   9.562  0.2181 -0.0368 -1.0099
   26CHL1  H11A 1885   6.457   4.955   9.538 -1.3808 -0.5380 -1.8949
   26CHL1  H11B 1886   6.398   4.814   9.628 -0.5374 -0.5148 -2.1710
   26CHL1    C9 1887   6.613   4.848   9.633 -0.4058  0.1739 -0.4309
   26CHL1    H9 1888   6.618   4.747   9.679 -1.9838  0.0760 -0.4268
   26CHL1   C10 1889   6.622   4.943   9.753 -0.4891  0.4590  0.6031
   26CHL1   C19 1890   6.625   5.086   9.710 -0.0910 -0.5830  0.4738
   26CHL1  H19A 1891   6.716   5.109   9.652  0.5429  0.6031  1.8845
   26CHL1  H19B 1892   6.534   5.107   9.649  0.0168  0.2433  0.5933
   26CHL1  H19C 1893   6.625   5.152   9.799  2.0713  1.1971 -0.7580
   26CHL1    C1 1894   6.491   4.929   9.841  1.4386  0.5196 -0.1448
   26CHL1   H1A 1895   6.399   4.970   9.793  0.0742 -1.4394  0.6682
   26CHL1   H1B 1896   6.482   4.819   9.852 -1.6534  0.6523 -0.2686
   26CHL1    C2 1897   6.510   4.991   9.985  0.0799  0.3211  0.3232
   26CHL1   H2A 1898   6.415   4.975  10.041  0.1175 -0.2545  0.2257
   26CHL1   H2B 1899   6.512   5.102   9.974  0.4265  0.4478  1.4911
   26CHL1   C20 1900   6.564   4.724   9.093 -0.3502  0.4241 -0.1185
   26CHL1   H20 1901   6.592   4.816   9.037 -0.2453 -0.6886 -1.9605
   26CHL1   C21 1902   6.409   4.739   9.103 -0.1617 -0.6128  0.1632
   26CHL1  H21A 1903   6.356   4.740   9.006  0.3255 -1.0234 -0.1171
   26CHL1  H21B 1904   6.387   4.835   9.154 -0.2607 -1.6366  2.1929
   26CHL1  H21C 1905   6.363   4.657   9.163  0.4067 -0.5846  0.6520
   26CHL1   C22 1906   6.596   4.604   8.991 -0.2505 -0.5198  0.1028
   26CHL1  H22A 1907   6.704   4.579   8.995 -0.2472 -0.4532  0.4429
   26CHL1  H22B 1908   6.543   4.511   9.022  0.3189 -0.8965 -0.0157
   26CHL1   C23 1909   6.561   4.643   8.844  0.3035  0.5709  0.6139
   26CHL1  H23A 1910   6.463   4.690   8.823 -0.2107 -1.7301 -3.0347
   26CHL1  H23B 1911   6.626   4.729   8.819 -2.1789  2.4292  0.1907
   26CHL1   C24 1912   6.585   4.523   8.745 -0.5961  0.3151 -0.1942
   26CHL1  H24A 1913   6.570   4.564   8.643 -2.2748 -0.8870 -0.4603
   26CHL1  H24B 1914   6.690   4.487   8.756 -1.1911 -1.7090 -0.7797
   26CHL1   C25 1915   6.493   4.395   8.756 -0.3958 -0.2085  0.7772
   26CHL1   H25 1916   6.502   4.358   8.860 -0.7111 -0.4405  0.7256
   26CHL1   C26 1917   6.349   4.434   8.720  1.2727  0.7753 -0.2577
   26CHL1  H26A 1918   6.350   4.468   8.614  1.1731 -0.9813 -0.8524
   26CHL1  H26B 1919   6.277   4.350   8.727  1.1228  1.0338  3.5610
   26CHL1  H26C 1920   6.308   4.506   8.794  0.9699 -0.2138  0.5586
   26CHL1   C27 1921   6.537   4.283   8.655 -0.1753  0.8073  0.0503
   26CHL1  H27A 1922   6.479   4.189   8.673  0.6325 -0.2553 -2.4189
   26CHL1  H27B 1923   6.523   4.306   8.548 -1.0015  1.1145  0.2147
   26CHL1  H27C 1924   6.643   4.258   8.675 -0.2086  1.7919  1.6284
   27CHL1    C3 1925   5.047   1.743  10.341 -0.5928 -0.2969  0.3092
   27CHL1    H3 1926   5.089   1.846  10.347  0.0905 -0.5875  0.6318
   27CHL1    O3 1927   5.031   1.683  10.468  0.2282  0.4308  0.2537
   27CHL1   H3' 1928   5.034   1.591  10.441 -0.3144  0.4740  0.0384
   27CHL1    C4 1929   4.909   1.752  10.273 -0.0660  0.4580 -0.9397
   27CHL1   H4A 1930   4.846   1.663  10.295 -3.4338  2.3526 -2.0845
   27CHL1   H4B 1931   4.859   1.836  10.327  0.5650 -1.1474  2.4334
   27CHL1    C5 1932   4.905   1.793  10.126 -0.3459 -0.0426 -0.0030
   27CHL1    C6 1933   4.837   1.906  10.078 -0.2733  0.7756  0.7288
   27CHL1    H6 1934   4.781   1.974  10.144 -1.2568  0.2980  0.4025
   27CHL1    C7 1935   4.843   1.945   9.936  1.4539  0.2503 -0.5252
   27CHL1   H7A 1936   4.748   1.986   9.895  1.1343  0.0943  0.0471
   27CHL1   H7B 1937   4.912   2.030   9.920  3.0691 -1.0527 -0.7861
   27CHL1    C8 1938   4.885   1.829   9.842 -0.7538 -0.3117  0.0146
   27CHL1    H8 1939   4.807   1.751   9.852 -0.5340 -0.6485 -0.8098
   27CHL1   C14 1940   4.889   1.867   9.698 -0.1978 -0.3817 -0.6875
   27CHL1   H14 1941   4.959   1.953   9.696 -3.1893  2.2184 -0.8352
   27CHL1   C15 1942   4.758   1.923   9.621  0.0957 -0.4708  0.6713
   27CHL1  H15A 1943   4.669   1.873   9.664 -0.6221  2.2260  2.6569
   27CHL1  H15B 1944   4.748   2.027   9.661 -0.5470 -1.3590  2.9692
   27CHL1   C16 1945   4.784   1.921   9.471  0.0182 -0.0110  0.0813
   27CHL1  H16A 1946   4.692   1.889   9.418  0.1972 -0.6229  0.1337
   27CHL1  H16B 1947   4.816   2.024   9.445  0.3957  0.2434  1.4493
   27CHL1   C17 1948   4.901   1.823   9.456  0.0312  0.4542 -0.0409
   27CHL1   H17 1949   4.990   1.882   9.428  1.0974 -1.7724 -1.6656
   27CHL1   C13 1950   4.940   1.762   9.593  0.0773 -0.4671 -0.0692
   27CHL1   C18 1951   4.848   1.639   9.604 -0.1378 -0.0265 -0.2672
   27CHL1  H18A 1952   4.811   1.608   9.704 -0.2352 -1.0441 -0.6004
   27CHL1  H18B 1953   4.750   1.646   9.552  0.4692  1.5367 -1.2642
   27CHL1  H18C 1954   4.909   1.551   9.573  0.3135  0.7774 -1.7501
   27CHL1   C12 1955   5.088   1.725   9.634  0.5100 -0.4507 -0.0653
   27CHL1  H12A 1956   5.136   1.643   9.575  2.5077  0.8438 -0.3392
   27CHL1  H12B 1957   5.140   1.822   9.622 -0.5985  0.2328  0.4806
   27CHL1   C11 1958   5.073   1.665   9.781 -1.6425  0.6572 -0.1750
   27CHL1  H11A 1959   5.015   1.570   9.776  0.2838 -0.6069  0.1374
   27CHL1  H11B 1960   5.177   1.634   9.805 -1.8303  0.1229 -0.0345
   27CHL1    C9 1961   5.013   1.759   9.888  0.1629  0.2791 -0.8380
   27CHL1    H9 1962   5.090   1.838   9.902  1.3684 -0.7503 -1.5278
   27CHL1   C10 1963   4.999   1.700  10.039  0.0001 -0.3026  0.5425
   27CHL1   C19 1964   4.951   1.558  10.032  1.0235  1.4760  0.2635
   27CHL1  H19A 1965   5.015   1.493   9.969  1.3191  0.1840  1.8454
   27CHL1  H19B 1966   4.947   1.506  10.130 -1.2320 -2.0215 -1.4831
   27CHL1  H19C 1967   4.851   1.552   9.985  1.9954 -2.8206 -1.7158
   27CHL1    C1 1968   5.143   1.685  10.104  0.2086  0.5236 -0.7892
   27CHL1   H1A 1969   5.199   1.602  10.055  1.0051 -0.2701  1.3632
   27CHL1   H1B 1970   5.202   1.775  10.078  1.3072 -0.0293 -0.2728
   27CHL1    C2 1971   5.145   1.651  10.259  0.2053 -0.4334 -1.0885
   27CHL1   H2A 1972   5.249   1.663  10.295 -0.0529 -1.6341  0.1180
   27CHL1   H2B 1973   5.116   1.544  10.267 -0.5968 -0.1508 -0.0655
   27CHL1   C20 1974   4.891   1.737   9.336  0.4506 -0.0377  0.0462
   27CHL1   H20 1975   4.805   1.666   9.333  0.5294 -0.3769  2.7828
   27CHL1   C21 1976   5.021   1.651   9.320  0.3490  0.8187 -0.2541
   27CHL1  H21A 1977   5.102   1.717   9.358 -0.3623  2.3128 -1.2351
   27CHL1  H21B 1978   5.045   1.637   9.213 -0.7622  1.0916 -0.5580
   27CHL1  H21C 1979   5.011   1.553   9.371  1.3548  0.1649 -1.2727
   27CHL1   C22 1980   4.874   1.816   9.201 -0.2394 -0.1469 -0.2451
   27CHL1  H22A 1981   4.783   1.880   9.200  0.5092  1.0556 -3.5060
   27CHL1  H22B 1982   4.964   1.880   9.190 -2.7171  4.0451  1.1773
   27CHL1   C23 1983   4.862   1.736   9.070 -0.3153 -0.4685 -0.1154
   27CHL1  H23A 1984   4.926   1.646   9.057 -1.8387 -1.4669 -1.0880
   27CHL1  H23B 1985   4.765   1.681   9.071 -0.5827 -0.0329  1.7836
   27CHL1   C24 1986   4.873   1.822   8.948  0.4530 -0.0806  0.2033
   27CHL1  H24A 1987   4.775   1.872   8.935  0.6666 -0.0067 -1.2913
   27CHL1  H24B 1988   4.958   1.893   8.953  1.0167 -0.8113  3.3719
   27CHL1   C25 1989   4.880   1.741   8.821  0.1055  0.4928  0.5464
   27CHL1   H25 1990   4.975   1.685   8.838  0.2917  0.2449 -1.1553
   27CHL1   C26 1991   4.774   1.634   8.798  0.0738  0.1085  0.0354
   27CHL1  H26A 1992   4.784   1.549   8.868  2.4340 -2.3550 -2.9958
   27CHL1  H26B 1993   4.673   1.680   8.807  0.2798  1.0872 -2.0321
   27CHL1  H26C 1994   4.782   1.596   8.694  1.3003 -0.2078  0.2197
   27CHL1   C27 1995   4.904   1.836   8.706  0.3739  0.2097  0.2291
   27CHL1  H27A 1996   4.821   1.909   8.694  1.7708  1.6293 -1.3734
   27CHL1  H27B 1997   4.991   1.896   8.739 -0.3845  0.1359  2.4752
   27CHL1  H27C 1998   4.922   1.782   8.610 -0.2119  1.5636 -0.6835
   28CHL1    C3 1999   4.830   0.184  10.095 -0.4554 -0.2017  0.1384
   28CHL1    H3 2000   4.924   0.241  10.116 -0.5374  0.5509 -1.4022
   28CHL1    O3 2001   4.777   0.147  10.218  0.6108 -0.3770 -0.1277
   28CHL1   H3' 2002   4.712   0.080  10.194  0.7436 -0.8272  0.7315
   28CHL1    C4 2003   4.720   0.262  10.027  0.5077 -0.3939 -0.5161
   28CHL1   H4A 2004   4.634   0.192  10.034 -0.6337  1.0933  1.3574
   28CHL1   H4B 2005   4.684   0.349  10.087  0.4024 -1.0464  0.3835
   28CHL1    C5 2006   4.753   0.288   9.884 -0.5513 -0.5512 -0.4717
   28CHL1    C6 2007   4.772   0.411   9.836  0.0274  0.0902  0.0358
   28CHL1    H6 2008   4.749   0.492   9.907 -1.1115 -1.2543  1.2630
   28CHL1    C7 2009   4.798   0.450   9.695 -0.4169  0.3237  0.9542
   28CHL1   H7A 2010   4.724   0.530   9.673 -0.6309  0.4238  2.0153
   28CHL1   H7B 2011   4.895   0.504   9.688 -0.6966  0.7412 -0.0067
   28CHL1    C8 2012   4.774   0.325   9.606  0.1359 -0.9892 -0.6509
   28CHL1    H8 2013   4.665   0.308   9.601  0.2273 -1.3518 -1.8452
   28CHL1   C14 2014   4.818   0.347   9.465 -0.1437 -0.3128 -0.0138
   28CHL1   H14 2015   4.929   0.354   9.467 -0.0022 -1.8625  2.3622
   28CHL1   C15 2016   4.759   0.468   9.395  0.8478 -0.9057  0.0835
   28CHL1  H15A 2017   4.648   0.476   9.400  0.8224 -0.4244 -1.0065
   28CHL1  H15B 2018   4.796   0.564   9.437 -1.1327  0.0212 -0.1523
   28CHL1   C16 2019   4.795   0.443   9.247 -0.1252 -0.6703  0.2717
   28CHL1  H16A 2020   4.707   0.457   9.181 -1.1575 -3.2267  0.9740
   28CHL1  H16B 2021   4.878   0.516   9.234  1.2261 -2.2850 -0.5194
   28CHL1   C17 2022   4.846   0.294   9.228  0.1953 -0.5568 -0.8549
   28CHL1   H17 2023   4.957   0.288   9.228  0.1565 -1.4586 -1.0487
   28CHL1   C13 2024   4.801   0.233   9.370  0.0553 -0.3799 -0.1784
   28CHL1   C18 2025   4.653   0.195   9.352  0.0248  0.0461  0.0470
   28CHL1  H18A 2026   4.613   0.139   9.439  2.0779 -0.9864  0.3786
   28CHL1  H18B 2027   4.583   0.278   9.331  1.0666  1.0735  0.5448
   28CHL1  H18C 2028   4.636   0.113   9.279  0.3976 -1.0351  1.1309
   28CHL1   C12 2029   4.891   0.114   9.427 -0.1496 -0.3703  0.2602
   28CHL1  H12A 2030   4.877   0.022   9.367 -2.1243  0.6302 -0.9297
   28CHL1  H12B 2031   4.998   0.143   9.415  0.6552 -2.6970  1.3443
   28CHL1   C11 2032   4.846   0.081   9.569  0.0033  0.6372 -0.2531
   28CHL1  H11A 2033   4.748   0.037   9.540  1.2201 -2.2762 -0.2720
   28CHL1  H11B 2034   4.913   0.000   9.607  0.6395  1.4890  0.4969
   28CHL1    C9 2035   4.843   0.201   9.669  0.2981  0.6887  0.3892
   28CHL1    H9 2036   4.948   0.237   9.674  0.4382  0.3016  0.2878
   28CHL1   C10 2037   4.786   0.165   9.802 -0.9675  0.1931  0.0606
   28CHL1   C19 2038   4.658   0.086   9.774  0.2660 -0.6984 -0.0366
   28CHL1  H19A 2039   4.670  -0.015   9.731 -1.7514  0.0817 -2.7556
   28CHL1  H19B 2040   4.613   0.062   9.873  0.5925 -2.7288 -0.3343
   28CHL1  H19C 2041   4.592   0.146   9.708 -0.7175 -1.1632  0.4957
   28CHL1    C1 2042   4.894   0.075   9.871  0.3885  0.5539 -0.3395
   28CHL1   H1A 2043   4.896  -0.030   9.835 -3.3019 -0.0649  0.7726
   28CHL1   H1B 2044   4.998   0.114   9.871  2.0324 -3.2654  1.6608
   28CHL1    C2 2045   4.862   0.052  10.018  0.1834 -0.2812  0.2799
   28CHL1   H2A 2046   4.951  -0.001  10.059  0.2997 -1.0214 -0.8816
   28CHL1   H2B 2047   4.777  -0.018  10.032  0.8545 -0.9423  1.2210
   28CHL1   C20 2048   4.793   0.228   9.101 -0.3367 -0.1554 -0.5508
   28CHL1   H20 2049   4.682   0.231   9.087 -0.4222  1.2048  0.2896
   28CHL1   C21 2050   4.844   0.084   9.079  0.2664 -0.1789  0.3294
   28CHL1  H21A 2051   4.817   0.045   8.979  3.5713 -0.5331 -0.5151
   28CHL1  H21B 2052   4.786   0.009   9.138 -0.3064 -1.5518 -1.8715
   28CHL1  H21C 2053   4.953   0.073   9.097  0.3700  1.5034  0.8871
   28CHL1   C22 2054   4.836   0.315   8.976 -0.4124 -0.2756  0.2317
   28CHL1  H22A 2055   4.784   0.413   8.988 -0.2403 -0.2175  0.5161
   28CHL1  H22B 2056   4.944   0.340   8.987 -0.2349 -0.9367  0.0324
   28CHL1   C23 2057   4.813   0.256   8.835 -0.1782 -0.2021  0.0293
   28CHL1  H23A 2058   4.909   0.216   8.797 -0.4296  0.4432 -1.3609
   28CHL1  H23B 2059   4.731   0.181   8.835 -1.2431  0.8882 -1.0672
   28CHL1   C24 2060   4.775   0.357   8.724  0.4209 -0.0755 -0.4595
   28CHL1  H24A 2061   4.674   0.400   8.740  1.1266  0.8478  2.0118
   28CHL1  H24B 2062   4.846   0.440   8.744  0.5935 -1.0803  4.1362
   28CHL1   C25 2063   4.787   0.308   8.579  0.3713 -0.0175  0.8143
   28CHL1   H25 2064   4.714   0.227   8.557  0.8416  0.1506 -1.7746
   28CHL1   C26 2065   4.764   0.433   8.483  0.3784 -0.1097 -0.0185
   28CHL1  H26A 2066   4.777   0.415   8.374  0.4217  1.0132 -0.2060
   28CHL1  H26B 2067   4.666   0.480   8.505 -0.1325 -0.3713 -1.5530
   28CHL1  H26C 2068   4.844   0.506   8.506 -0.3330  0.7744 -0.2902
   28CHL1   C27 2069   4.939   0.278   8.561  0.6810  0.4169 -0.3566
   28CHL1  H27A 2070   4.963   0.180   8.607 -0.1655 -0.4877 -1.7756
   28CHL1  H27B 2071   4.944   0.259   8.452 -0.1439  1.3903 -0.5816
   28CHL1  H27C 2072   5.011   0.351   8.605 -0.2893 -0.4138  2.8612
   29CHL1    C3 2073   2.707   6.160   6.611 -0.1480 -1.1942 -0.6771
   29CHL1    H3 2074   2.644   6.251   6.612  1.9778  0.3700 -1.2203
   29CHL1    O3 2075   2.725   6.108   6.482  0.7424 -0.6228  0.4431
   29CHL1   H3' 2076   2.818   6.083   6.484  0.8639 -0.4682 -1.7371
   29CHL1    C4 2077   2.847   6.207   6.657 -0.5027  0.1247 -0.1529
   29CHL1   H4A 2078   2.928   6.134   6.637 -0.7551 -0.7419  1.7235
   29CHL1   H4B 2079   2.865   6.294   6.590 -1.1428 -0.1110 -0.6405
   29CHL1    C5 2080   2.849   6.247   6.808 -0.0242 -0.5188  0.7876
   29CHL1    C6 2081   2.885   6.369   6.844  0.1781 -0.1666 -0.0828
   29CHL1    H6 2082   2.930   6.434   6.767  0.2897  0.9143  0.8569
   29CHL1    C7 2083   2.902   6.412   6.987  0.7033  0.3975 -0.1514
   29CHL1   H7A 2084   3.005   6.447   7.011  0.4662  0.1574  1.3342
   29CHL1   H7B 2085   2.830   6.491   7.016  0.0213  0.6248 -2.3275
   29CHL1    C8 2086   2.883   6.286   7.082 -0.5017  0.6613  0.2370
   29CHL1    H8 2087   2.982   6.237   7.091 -1.4565 -1.1375  1.6531
   29CHL1   C14 2088   2.854   6.339   7.230  0.1535 -0.2955  0.0806
   29CHL1   H14 2089   2.753   6.386   7.227  0.1604 -0.1977  0.9455
   29CHL1   C15 2090   2.947   6.460   7.283 -0.0499 -0.2822  0.2193
   29CHL1  H15A 2091   3.051   6.439   7.251  1.0777 -0.3240  3.5181
   29CHL1  H15B 2092   2.904   6.556   7.246 -0.3988  0.2659  1.9120
   29CHL1   C16 2093   2.930   6.466   7.439 -0.1726  0.4524  0.7832
   29CHL1  H16A 2094   3.031   6.451   7.481  0.5599  0.6884 -0.8236
   29CHL1  H16B 2095   2.896   6.562   7.482  0.8394  0.9172  0.5737
   29CHL1   C17 2096   2.839   6.339   7.469 -0.1866 -1.0249  0.2383
   29CHL1   H17 2097   2.739   6.384   7.447  0.6645  0.9807  0.2583
   29CHL1   C13 2098   2.850   6.243   7.343  0.0546 -0.5200 -0.4099
   29CHL1   C18 2099   2.981   6.168   7.354  0.5824 -0.3553  0.1340
   29CHL1  H18A 2100   2.973   6.090   7.434  1.9906 -1.2326 -0.5356
   29CHL1  H18B 2101   3.000   6.114   7.259 -0.8137  0.9557 -0.9332
   29CHL1  H18C 2102   3.069   6.225   7.390  0.4552 -0.1571  0.1292
   29CHL1   C12 2103   2.737   6.145   7.303  0.2200  0.3443  0.7347
   29CHL1  H12A 2104   2.724   6.067   7.381 -0.1146  1.5123  1.8859
   29CHL1  H12B 2105   2.645   6.207   7.302  0.6273  0.9514  0.2302
   29CHL1   C11 2106   2.755   6.087   7.156  0.4453  0.4759  0.2858
   29CHL1  H11A 2107   2.850   6.029   7.154  0.1004 -0.0907  0.0050
   29CHL1  H11B 2108   2.680   6.007   7.135  1.4062  0.0019 -1.5921
   29CHL1    C9 2109   2.774   6.192   7.041  0.1606  0.0988 -0.2670
   29CHL1    H9 2110   2.685   6.258   7.033  0.4347  0.3227 -1.7179
   29CHL1   C10 2111   2.797   6.137   6.902  0.1290  0.1996  0.6165
   29CHL1   C19 2112   2.898   6.017   6.896  0.0200 -0.2082  0.3875
   29CHL1  H19A 2113   2.937   5.989   6.795 -0.7511 -0.0176  0.0260
   29CHL1  H19B 2114   2.990   6.049   6.949  1.1536 -0.0673 -1.5409
   29CHL1  H19C 2115   2.844   5.933   6.943  0.2218 -2.1381 -2.5687
   29CHL1    C1 2116   2.658   6.084   6.847 -0.2996 -0.2310  0.4193
   29CHL1   H1A 2117   2.635   5.995   6.909 -1.2769 -0.0986  0.2584
   29CHL1   H1B 2118   2.576   6.156   6.866  0.8408  1.1348  0.2922
   29CHL1    C2 2119   2.660   6.046   6.698  0.4312  0.3832  0.5158
   29CHL1   H2A 2120   2.557   6.021   6.666  0.9594 -0.2314 -0.7812
   29CHL1   H2B 2121   2.721   5.955   6.683 -1.4113 -1.2529  2.3267
   29CHL1   C20 2122   2.837   6.290   7.612 -0.4842  0.7770 -0.2873
   29CHL1   H20 2123   2.927   6.226   7.619  0.1792  1.8170  1.1833
   29CHL1   C21 2124   2.721   6.206   7.644  0.1802 -0.5143 -0.2253
   29CHL1  H21A 2125   2.710   6.185   7.753  1.3763 -0.3006 -0.0529
   29CHL1  H21B 2126   2.734   6.103   7.604 -0.3110 -0.6473 -0.0535
   29CHL1  H21C 2127   2.627   6.255   7.610  0.0736 -0.5039  0.0855
   29CHL1   C22 2128   2.854   6.398   7.732  0.7672  0.2017  0.0450
   29CHL1  H22A 2129   2.894   6.494   7.695  0.4511  0.7162  0.9849
   29CHL1  H22B 2130   2.749   6.411   7.769  0.9178  0.5466  0.3550
   29CHL1   C23 2131   2.919   6.345   7.858  0.3429 -0.1028  0.1668
   29CHL1  H23A 2132   2.869   6.257   7.904  2.2595 -0.7083  1.2248
   29CHL1  H23B 2133   3.021   6.312   7.829 -0.1567 -2.0824  0.5143
   29CHL1   C24 2134   2.910   6.449   7.970  0.3478  0.7417  0.3577
   29CHL1  H24A 2135   2.922   6.549   7.924  0.7838 -0.6390 -2.7676
   29CHL1  H24B 2136   2.809   6.444   8.015  1.1088 -0.2856  2.0965
   29CHL1   C25 2137   3.016   6.426   8.082  0.1300 -0.2590 -0.0013
   29CHL1   H25 2138   3.117   6.460   8.051  0.1025 -1.8557 -2.1248
   29CHL1   C26 2139   2.972   6.514   8.207  0.7898  0.6722 -0.3062
   29CHL1  H26A 2140   3.023   6.488   8.302  0.3314 -1.8296 -0.6535
   29CHL1  H26B 2141   2.983   6.622   8.187  0.9768  0.6102 -0.5385
   29CHL1  H26C 2142   2.863   6.494   8.220  0.3615  4.1935  3.8301
   29CHL1   C27 2143   3.031   6.273   8.118  0.1910 -0.3864  0.7154
   29CHL1  H27A 2144   2.937   6.231   8.157 -0.1923  0.0064  0.2289
   29CHL1  H27B 2145   3.057   6.217   8.026 -2.0175  0.2252 -0.3367
   29CHL1  H27C 2146   3.109   6.261   8.197 -0.4916  1.7130  1.7827
   30CHL1    C3 2147   1.237   4.157   7.092 -0.6357  0.2576  1.1831
   30CHL1    H3 2148   1.227   4.262   7.055 -3.2550 -0.7744 -1.4465
   30CHL1    O3 2149   1.202   4.056   6.997 -0.4787  0.3620 -0.5437
   30CHL1   H3' 2150   1.114   4.077   6.965 -0.6340  0.0877 -0.3025
   30CHL1    C4 2151   1.385   4.149   7.136 -0.0819  0.0991 -0.8509
   30CHL1   H4A 2152   1.406   4.044   7.163 -0.4899  0.3622  0.5889
   30CHL1   H4B 2153   1.445   4.176   7.046  0.2754 -0.6887 -0.8552
   30CHL1    C5 2154   1.408   4.235   7.263 -0.0117  0.0344 -0.6754
   30CHL1    C6 2155   1.506   4.328   7.275  0.0217 -0.4985  0.8973
   30CHL1    H6 2156   1.580   4.349   7.197 -0.4910 -1.4801  0.1198
   30CHL1    C7 2157   1.536   4.394   7.406 -0.1981 -0.3701 -0.1267
   30CHL1   H7A 2158   1.647   4.397   7.419 -0.2225 -1.7295  0.5627
   30CHL1   H7B 2159   1.513   4.502   7.394  0.2944 -0.4928 -2.7274
   30CHL1    C8 2160   1.465   4.342   7.532 -0.1619 -0.1682 -0.4574
   30CHL1    H8 2161   1.524   4.251   7.555 -0.1198  0.0633  0.3862
   30CHL1   C14 2162   1.476   4.449   7.644  0.1556  0.3608 -0.2619
   30CHL1   H14 2163   1.401   4.529   7.623  2.0086  1.8212 -1.6510
   30CHL1   C15 2164   1.615   4.505   7.679  0.2927 -0.3351  0.5162
   30CHL1  H15A 2165   1.680   4.415   7.676 -0.2363 -0.7225 -2.7167
   30CHL1  H15B 2166   1.658   4.573   7.603  4.3030 -2.1750  0.8739
   30CHL1   C16 2167   1.596   4.559   7.821  0.7962  0.8123 -0.4414
   30CHL1  H16A 2168   1.657   4.509   7.899  2.9782  1.7829 -1.4443
   30CHL1  H16B 2169   1.614   4.667   7.839  0.9610  0.6320  0.5239
   30CHL1   C17 2170   1.444   4.526   7.862  0.3990 -0.1086  0.0672
   30CHL1   H17 2171   1.398   4.616   7.815 -0.3644 -0.7278 -0.4051
   30CHL1   C13 2172   1.411   4.401   7.776 -0.1180 -0.0696 -0.4870
   30CHL1   C18 2173   1.491   4.285   7.841  0.0696  0.7340 -0.4120
   30CHL1  H18A 2174   1.498   4.206   7.764  0.3305  2.1193 -1.8626
   30CHL1  H18B 2175   1.590   4.310   7.884 -0.1175 -0.6640  0.9164
   30CHL1  H18C 2176   1.433   4.249   7.929  0.2529  0.3067 -0.4681
   30CHL1   C12 2177   1.263   4.358   7.755 -0.3199 -0.2988  0.1675
   30CHL1  H12A 2178   1.229   4.297   7.841 -0.6512  0.0006  0.2514
   30CHL1  H12B 2179   1.206   4.451   7.736 -2.0095 -1.5680 -1.5177
   30CHL1   C11 2180   1.239   4.272   7.638  0.1688 -0.5022  0.8787
   30CHL1  H11A 2181   1.268   4.168   7.665  1.5364 -0.3492  0.1056
   30CHL1  H11B 2182   1.131   4.272   7.613 -0.4642  2.9374  2.9581
   30CHL1    C9 2183   1.317   4.314   7.504 -0.4856  0.0700 -0.2377
   30CHL1    H9 2184   1.275   4.413   7.475 -3.3357 -0.9524  0.0992
   30CHL1   C10 2185   1.307   4.217   7.383  0.4156 -0.2467  0.4737
   30CHL1   C19 2186   1.300   4.068   7.426  0.0933 -0.2021 -0.3869
   30CHL1  H19A 2187   1.295   4.004   7.335  2.1493  0.7693 -1.2486
   30CHL1  H19B 2188   1.390   4.035   7.482 -1.1263  0.8903  2.3823
   30CHL1  H19C 2189   1.216   4.041   7.494 -0.4209  0.6264 -0.6716
   30CHL1    C1 2190   1.163   4.233   7.327 -0.2732 -0.1548  0.0063
   30CHL1   H1A 2191   1.083   4.224   7.405  0.5556  2.5356  1.3157
   30CHL1   H1B 2192   1.146   4.341   7.304 -4.9340 -0.8926 -1.1321
   30CHL1    C2 2193   1.133   4.145   7.203 -0.3343 -0.3963 -0.0896
   30CHL1   H2A 2194   1.036   4.173   7.157  0.0013  1.6505  0.3513
   30CHL1   H2B 2195   1.110   4.038   7.220 -0.3414 -0.1950  1.2626
   30CHL1   C20 2196   1.431   4.520   8.019  0.1853 -0.3472  0.2120
   30CHL1   H20 2197   1.480   4.430   8.060 -0.8778 -0.4965  1.1885
   30CHL1   C21 2198   1.281   4.513   8.060  0.1383 -0.2959 -0.4764
   30CHL1  H21A 2199   1.230   4.612   8.053 -1.9599 -1.2400  0.4220
   30CHL1  H21B 2200   1.270   4.485   8.167  2.3778  0.0181 -0.1224
   30CHL1  H21C 2201   1.225   4.436   8.003  1.5105 -1.5198 -0.1949
   30CHL1   C22 2202   1.489   4.647   8.088  0.1805  0.1157 -0.5050
   30CHL1  H22A 2203   1.600   4.652   8.094  0.3731 -3.2795  2.7511
   30CHL1  H22B 2204   1.467   4.742   8.035 -0.1157  0.8972  0.9783
   30CHL1   C23 2205   1.460   4.673   8.244  0.6463 -0.2847  0.2976
   30CHL1  H23A 2206   1.351   4.690   8.261  0.5755  0.1342 -0.5674
   30CHL1  H23B 2207   1.478   4.582   8.305  1.6801  0.6155  1.3815
   30CHL1   C24 2208   1.532   4.798   8.291 -0.5355  0.3930 -0.3543
   30CHL1  H24A 2209   1.642   4.787   8.307 -0.2672  2.9903 -0.0089
   30CHL1  H24B 2210   1.501   4.874   8.217 -2.4537 -1.3729 -1.4616
   30CHL1   C25 2211   1.488   4.853   8.432  0.0026  0.5333 -0.0869
   30CHL1   H25 2212   1.554   4.936   8.465 -0.4576  1.4840 -1.4524
   30CHL1   C26 2213   1.346   4.910   8.418 -0.6245 -0.7501 -0.3624
   30CHL1  H26A 2214   1.351   5.016   8.387 -1.4123  0.4643  3.1468
   30CHL1  H26B 2215   1.288   4.839   8.355  1.3358 -1.0494 -1.9072
   30CHL1  H26C 2216   1.281   4.930   8.507 -2.7481 -2.3808 -1.4391
   30CHL1   C27 2217   1.509   4.744   8.545  0.0484  0.3466  0.6575
   30CHL1  H27A 2218   1.468   4.647   8.508  0.9295  0.2083 -0.0051
   30CHL1  H27B 2219   1.614   4.716   8.567 -0.3388 -0.3806  1.6537
   30CHL1  H27C 2220   1.465   4.768   8.644  1.3685 -0.7235  1.5375
   31CHL1    C3 2221   1.774   5.649   6.756 -0.1008 -0.3320 -0.2009
   31CHL1    H3 2222   1.673   5.690   6.782 -0.8065 -1.1304 -1.6024
   31CHL1    O3 2223   1.773   5.624   6.619 -0.0188 -0.0774 -0.7756
   31CHL1   H3' 2224   1.861   5.595   6.595  0.9869  1.8485  0.3796
   31CHL1    C4 2225   1.884   5.757   6.782  0.1655 -0.8222  0.0230
   31CHL1   H4A 2226   1.977   5.712   6.742 -0.0681 -3.2429  1.9448
   31CHL1   H4B 2227   1.852   5.846   6.724  0.4201 -0.3815  0.5553
   31CHL1    C5 2228   1.903   5.787   6.932  0.1364  0.9854 -0.2127
   31CHL1    C6 2229   1.888   5.912   6.981  0.7573 -0.0892  0.5470
   31CHL1    H6 2230   1.856   5.993   6.913 -1.9973 -2.2455 -0.9573
   31CHL1    C7 2231   1.883   5.949   7.128 -0.0555 -0.5492  0.9242
   31CHL1   H7A 2232   1.919   6.053   7.140 -0.2919 -0.0984 -1.6577
   31CHL1   H7B 2233   1.775   5.955   7.153 -0.2047 -1.8296  0.6812
   31CHL1    C8 2234   1.953   5.847   7.214 -0.3660 -0.6548  0.4442
   31CHL1    H8 2235   2.060   5.866   7.196 -1.0862  1.5694 -2.1282
   31CHL1   C14 2236   1.914   5.862   7.360 -0.0283  0.1062  0.6671
   31CHL1   H14 2237   1.806   5.835   7.368  0.2341 -0.7078  1.7437
   31CHL1   C15 2238   1.925   6.001   7.423  0.0915  0.1600 -0.0321
   31CHL1  H15A 2239   2.012   6.057   7.384 -0.6863  0.9267 -0.7336
   31CHL1  H15B 2240   1.834   6.059   7.395  0.5481  0.6930 -0.4268
   31CHL1   C16 2241   1.932   5.979   7.574  0.4998 -0.3187 -0.5834
   31CHL1  H16A 2242   2.027   6.019   7.616 -0.8157  2.9088 -0.3916
   31CHL1  H16B 2243   1.839   6.021   7.618  0.4150  0.6570 -1.6551
   31CHL1   C17 2244   1.931   5.812   7.585 -0.2618  0.1700  0.3427
   31CHL1   H17 2245   1.822   5.790   7.593 -0.6334  1.8802  0.3720
   31CHL1   C13 2246   1.979   5.758   7.448 -0.1690  0.1790 -0.5714
   31CHL1   C18 2247   2.134   5.765   7.436  0.0376  0.6788  0.0084
   31CHL1  H18A 2248   2.160   5.869   7.467  1.5345  0.3104  0.0712
   31CHL1  H18B 2249   2.178   5.682   7.495 -1.8664 -0.6988 -0.4212
   31CHL1  H18C 2250   2.177   5.752   7.334 -0.2577 -1.0476  0.0783
   31CHL1   C12 2251   1.936   5.615   7.411 -0.4264 -0.4684 -0.6856
   31CHL1  H12A 2252   1.968   5.538   7.485 -1.9852 -0.4754  0.0154
   31CHL1  H12B 2253   1.825   5.612   7.421 -0.4349  0.9979 -0.1082
   31CHL1   C11 2254   1.972   5.589   7.264 -0.3085 -0.1549  1.0254
   31CHL1  H11A 2255   2.082   5.592   7.248 -0.6045  0.9208 -1.1928
   31CHL1  H11B 2256   1.941   5.489   7.230 -2.2951 -0.4103  3.3355
   31CHL1    C9 2257   1.910   5.700   7.171 -0.2284  0.1963 -0.6032
   31CHL1    H9 2258   1.801   5.697   7.193 -0.1025  0.9460  0.1564
   31CHL1   C10 2259   1.931   5.666   7.021  0.2659 -0.2046  0.5725
   31CHL1   C19 2260   2.078   5.624   6.994 -0.3575 -0.7189  0.0230
   31CHL1  H19A 2261   2.082   5.595   6.887 -1.7979  0.3165 -0.3547
   31CHL1  H19B 2262   2.140   5.714   7.015  0.0056 -1.5283  2.7027
   31CHL1  H19C 2263   2.117   5.550   7.066  0.6342 -1.4807 -1.2546
   31CHL1    C1 2264   1.842   5.545   6.985  0.0187  0.1998 -0.5122
   31CHL1   H1A 2265   1.868   5.454   7.043 -0.4714  1.5902  2.0436
   31CHL1   H1B 2266   1.739   5.567   7.022 -1.7886 -5.1207 -1.4289
   31CHL1    C2 2267   1.821   5.522   6.833 -0.0358 -0.6162 -0.8673
   31CHL1   H2A 2268   1.756   5.432   6.824  1.0475 -1.6696  1.0150
   31CHL1   H2B 2269   1.920   5.496   6.791  0.3012 -0.9263  0.0913
   31CHL1   C20 2270   2.000   5.771   7.715  0.1867 -0.6088  0.8876
   31CHL1   H20 2271   2.108   5.799   7.709  0.5482 -1.8195  1.2864
   31CHL1   C21 2272   1.997   5.621   7.736  0.4634  0.2107  0.5156
   31CHL1  H21A 2273   2.056   5.576   7.653 -1.5806  2.0440 -2.1044
   31CHL1  H21B 2274   1.894   5.582   7.741  0.4854  0.2132  1.0632
   31CHL1  H21C 2275   2.047   5.597   7.833  1.5724 -2.1858 -0.5717
   31CHL1   C22 2276   1.940   5.845   7.835 -0.9492  0.1336  0.3344
   31CHL1  H22A 2277   1.928   5.955   7.821 -3.0256  0.2092  2.1350
   31CHL1  H22B 2278   1.835   5.813   7.852 -0.6760 -1.5627 -0.9239
   31CHL1   C23 2279   2.026   5.834   7.959  0.4124 -0.1455  0.2229
   31CHL1  H23A 2280   2.057   5.732   7.989  0.0853  0.2915  2.1631
   31CHL1  H23B 2281   2.122   5.886   7.940 -0.5514  1.4131 -0.7271
   31CHL1   C24 2282   1.966   5.902   8.086 -0.3394 -0.1590 -0.9857
   31CHL1  H24A 2283   1.953   6.010   8.061 -0.9877  0.1515  0.5873
   31CHL1  H24B 2284   1.876   5.852   8.127  1.2754 -1.1301  1.6318
   31CHL1   C25 2285   2.059   5.908   8.211 -0.1292  0.1672  0.8121
   31CHL1   H25 2286   2.158   5.935   8.169  0.2142 -0.7676  0.9973
   31CHL1   C26 2287   2.020   6.014   8.320  0.2398  0.7278  0.1799
   31CHL1  H26A 2288   1.981   6.109   8.276 -1.0055  2.2584  4.1415
   31CHL1  H26B 2289   1.945   5.974   8.390 -0.3406 -0.0166 -0.8425
   31CHL1  H26C 2290   2.112   6.047   8.374 -0.3396  0.3836  1.3878
   31CHL1   C27 2291   2.075   5.774   8.280 -0.1969 -0.5857  0.6358
   31CHL1  H27A 2292   1.977   5.727   8.303 -0.4566 -1.0181 -1.1577
   31CHL1  H27B 2293   2.144   5.789   8.365 -1.8689  3.5777  1.4807
   31CHL1  H27C 2294   2.123   5.700   8.212 -0.2822  0.0447 -0.1210
   32CHL1    C3 2295   2.815   5.231   6.827  0.0124  0.1778 -0.0504
   32CHL1    H3 2296   2.850   5.337   6.826  0.4483  0.0334 -0.7738
   32CHL1    O3 2297   2.800   5.183   6.695  0.1102  0.5180 -0.1296
   32CHL1   H3' 2298   2.778   5.259   6.641 -0.8021  0.5905  0.3182
   32CHL1    C4 2299   2.909   5.134   6.906  0.7999 -0.4070 -0.4700
   32CHL1   H4A 2300   2.865   5.032   6.896 -0.1525  0.0392 -0.9676
   32CHL1   H4B 2301   3.006   5.121   6.854  1.8706  0.3916  1.2370
   32CHL1    C5 2302   2.909   5.181   7.054 -0.3604 -0.8683 -0.1345
   32CHL1    C6 2303   3.020   5.207   7.120 -0.6031 -0.1779  0.5830
   32CHL1    H6 2304   3.116   5.193   7.068 -0.6772  0.6758  0.1989
   32CHL1    C7 2305   3.030   5.230   7.269  0.2124  0.2216  0.2881
   32CHL1   H7A 2306   3.114   5.168   7.306 -0.3985 -1.2562 -0.7198
   32CHL1   H7B 2307   3.065   5.335   7.280  1.3945 -0.3591  2.5773
   32CHL1    C8 2308   2.899   5.206   7.351 -0.6053  0.3211 -0.4886
   32CHL1    H8 2309   2.881   5.100   7.379  1.3916  0.2398  0.6674
   32CHL1   C14 2310   2.901   5.284   7.482  0.5530  0.7377  0.1312
   32CHL1   H14 2311   2.916   5.388   7.444  0.0085  0.3147 -1.2835
   32CHL1   C15 2312   3.009   5.244   7.580 -0.5444  0.0708 -0.0927
   32CHL1  H15A 2313   3.012   5.133   7.584 -0.6532  0.0291 -0.9645
   32CHL1  H15B 2314   3.110   5.275   7.546 -1.2418  2.9337  0.2021
   32CHL1   C16 2315   2.968   5.304   7.713  0.2278  0.1265 -0.1130
   32CHL1  H16A 2316   2.973   5.223   7.789 -1.6591  0.5221  0.4859
   32CHL1  H16B 2317   3.039   5.385   7.741  0.7259  0.3815 -1.9842
   32CHL1   C17 2318   2.825   5.356   7.683 -0.0399 -0.5038  0.2773
   32CHL1   H17 2319   2.842   5.462   7.659 -1.4913 -0.6852 -1.7930
   32CHL1   C13 2320   2.776   5.276   7.561  0.0348 -0.2140  0.2910
   32CHL1   C18 2321   2.743   5.132   7.602 -0.0244  0.0289 -0.0690
   32CHL1  H18A 2322   2.722   5.068   7.514 -3.4595  3.6214 -2.1755
   32CHL1  H18B 2323   2.820   5.084   7.667  1.4740  0.9859 -1.0713
   32CHL1  H18C 2324   2.655   5.134   7.669  0.2554 -1.2469  0.3843
   32CHL1   C12 2325   2.658   5.338   7.482  0.4810 -0.6531 -0.0142
   32CHL1  H12A 2326   2.566   5.310   7.538  0.2409 -1.6964 -0.9068
   32CHL1  H12B 2327   2.667   5.449   7.477  2.7542 -0.7413  0.6121
   32CHL1   C11 2328   2.654   5.271   7.345  0.4069  0.3692  0.4939
   32CHL1  H11A 2329   2.615   5.167   7.352  1.8507 -0.3022 -0.9999
   32CHL1  H11B 2330   2.577   5.325   7.286  0.5005  0.0290  0.0579
   32CHL1    C9 2331   2.784   5.262   7.266  0.3232  0.2174 -0.2977
   32CHL1    H9 2332   2.808   5.367   7.238  1.4987 -0.1999 -0.9512
   32CHL1   C10 2333   2.774   5.184   7.123 -0.1116  1.1840 -0.2355
   32CHL1   C19 2334   2.730   5.035   7.144  0.8928 -0.2672 -0.2846
   32CHL1  H19A 2335   2.804   4.975   7.201  0.1786  0.7866  1.8384
   32CHL1  H19B 2336   2.636   5.028   7.202  1.3091 -1.1387  0.3048
   32CHL1  H19C 2337   2.714   4.973   7.053  1.3506 -0.8284  0.0087
   32CHL1    C1 2338   2.679   5.266   7.032  0.6579 -0.4106  0.3082
   32CHL1   H1A 2339   2.581   5.255   7.085  2.5072 -2.1126  3.7644
   32CHL1   H1B 2340   2.704   5.374   7.040 -2.9470  0.5985 -0.2183
   32CHL1    C2 2341   2.675   5.224   6.890 -0.2367 -0.3719 -0.0102
   32CHL1   H2A 2342   2.613   5.303   6.841  1.7757  0.6500 -1.0678
   32CHL1   H2B 2343   2.633   5.123   6.876  1.4767 -0.8018 -2.9038
   32CHL1   C20 2344   2.746   5.342   7.820  0.2396  0.5052 -0.9081
   32CHL1   H20 2345   2.750   5.233   7.841  0.4756  0.3175 -1.9063
   32CHL1   C21 2346   2.598   5.387   7.820  0.0365  0.1258  0.5585
   32CHL1  H21A 2347   2.544   5.359   7.913 -0.6018 -1.9539 -0.3771
   32CHL1  H21B 2348   2.535   5.353   7.735  0.3836 -1.6269  0.9703
   32CHL1  H21C 2349   2.606   5.498   7.808  1.3876  0.2019  1.8471
   32CHL1   C22 2350   2.817   5.411   7.944 -0.1671 -0.6229  0.6089
   32CHL1  H22A 2351   2.928   5.405   7.936  0.0232  2.2108  0.1043
   32CHL1  H22B 2352   2.803   5.521   7.945  1.8766 -0.3233  0.5992
   32CHL1   C23 2353   2.781   5.347   8.079  0.1538 -1.1196  0.0362
   32CHL1  H23A 2354   2.683   5.392   8.106  1.4680  2.5194 -0.7143
   32CHL1  H23B 2355   2.769   5.238   8.061 -1.7200 -0.7571 -1.0496
   32CHL1   C24 2356   2.878   5.388   8.193  0.3211 -0.6508 -0.7011
   32CHL1  H24A 2357   2.971   5.330   8.172  1.2009 -0.0283  1.2834
   32CHL1  H24B 2358   2.905   5.495   8.185 -3.1443  0.3663 -0.5407
   32CHL1   C25 2359   2.816   5.366   8.329  0.3740 -0.0759  0.2974
   32CHL1   H25 2360   2.739   5.445   8.328 -0.2547 -0.6811 -0.4372
   32CHL1   C26 2361   2.744   5.227   8.352 -0.2238  0.3967  0.8924
   32CHL1  H26A 2362   2.696   5.201   8.255  1.1943  0.7471  0.0680
   32CHL1  H26B 2363   2.813   5.143   8.376 -0.2202 -0.4918 -1.8232
   32CHL1  H26C 2364   2.667   5.239   8.431  0.2566  1.3456  1.2344
   32CHL1   C27 2365   2.930   5.414   8.424 -0.3281 -0.4878 -0.9583
   32CHL1  H27A 2366   2.958   5.515   8.388 -2.5998  1.6811  2.7877
   32CHL1  H27B 2367   2.898   5.407   8.530  1.7493  0.1449 -0.2355
   32CHL1  H27C 2368   3.019   5.348   8.415  0.5658  0.6461 -0.6493
   33CHL1    C3 2369   2.847   4.613   6.696  0.3172  0.0809 -0.1569
   33CHL1    H3 2370   2.948   4.655   6.718  0.5276  0.0628 -1.0683
   33CHL1    O3 2371   2.831   4.627   6.554  0.1027 -0.0356 -0.1011
   33CHL1   H3' 2372   2.743   4.591   6.544 -0.5953  0.6408  2.7313
   33CHL1    C4 2373   2.836   4.469   6.751 -0.3125  0.4276 -0.2877
   33CHL1   H4A 2374   2.739   4.429   6.714  0.2335 -1.4985  0.2840
   33CHL1   H4B 2375   2.918   4.421   6.694 -0.5123  2.0843 -2.0921
   33CHL1    C5 2376   2.842   4.454   6.902  0.1855  0.2345 -0.3652
   33CHL1    C6 2377   2.935   4.371   6.959  0.0513  0.0833  0.8438
   33CHL1    H6 2378   2.994   4.319   6.882 -1.2630  1.5142 -1.2375
   33CHL1    C7 2379   2.957   4.353   7.105  0.8548  0.7255 -0.7815
   33CHL1   H7A 2380   2.956   4.244   7.126 -1.7092  0.9467  0.5931
   33CHL1   H7B 2381   3.053   4.395   7.142 -0.7380  3.3485  0.6497
   33CHL1    C8 2382   2.849   4.416   7.187 -0.0648  0.4033 -0.2301
   33CHL1    H8 2383   2.765   4.343   7.187  2.2891 -2.5994  2.3655
   33CHL1   C14 2384   2.885   4.423   7.335  0.0981 -0.2186  0.3212
   33CHL1   H14 2385   2.972   4.491   7.329  0.2031 -0.4387 -1.0171
   33CHL1   C15 2386   2.938   4.295   7.398 -0.0184 -0.2109  0.6594
   33CHL1  H15A 2387   2.894   4.208   7.345  1.2625 -1.3558  1.4149
   33CHL1  H15B 2388   3.048   4.288   7.394 -0.0504 -0.4553 -2.7399
   33CHL1   C16 2389   2.903   4.312   7.544 -0.4655  0.4340  0.9723
   33CHL1  H16A 2390   2.821   4.241   7.564 -1.3431 -0.2300 -3.7723
   33CHL1  H16B 2391   2.991   4.305   7.611  0.1284 -1.8349  0.0348
   33CHL1   C17 2392   2.850   4.456   7.567 -0.0789 -0.3145 -0.3393
   33CHL1   H17 2393   2.937   4.524   7.581 -1.7365  1.4587  2.3486
   33CHL1   C13 2394   2.789   4.487   7.430  0.0974  0.1200  0.1017
   33CHL1   C18 2395   2.653   4.417   7.426 -0.7152 -0.0644  0.0534
   33CHL1  H18A 2396   2.599   4.418   7.329  0.7692 -1.8743 -0.8614
   33CHL1  H18B 2397   2.656   4.311   7.461 -1.6187 -1.5572 -3.8517
   33CHL1  H18C 2398   2.590   4.474   7.497 -1.9355 -0.6324 -0.5462
   33CHL1   C12 2399   2.780   4.635   7.381  0.2477  0.1926  0.2675
   33CHL1  H12A 2400   2.703   4.690   7.439  0.9541  3.9643 -2.0865
   33CHL1  H12B 2401   2.876   4.687   7.397  0.2907  0.0087  0.6214
   33CHL1   C11 2402   2.734   4.646   7.235  0.2733 -0.3797  0.3331
   33CHL1  H11A 2403   2.627   4.617   7.228 -0.3073  1.2832  1.7078
   33CHL1  H11B 2404   2.732   4.752   7.203  0.1105 -1.0562 -2.0540
   33CHL1    C9 2405   2.813   4.557   7.132  0.3404  0.3627 -0.0686
   33CHL1    H9 2406   2.914   4.600   7.116  0.3646  0.9822  1.5237
   33CHL1   C10 2407   2.758   4.555   6.986  1.2581  0.5408 -0.2075
   33CHL1   C19 2408   2.605   4.514   6.987 -0.2647  0.1497 -0.1821
   33CHL1  H19A 2409   2.592   4.418   7.042  2.4991 -0.7253 -0.8862
   33CHL1  H19B 2410   2.550   4.593   7.043 -0.6909 -0.3466  0.1138
   33CHL1  H19C 2411   2.562   4.506   6.885 -3.1093  1.8365  0.7881
   33CHL1    C1 2412   2.772   4.695   6.923  0.0576 -0.7746  0.4042
   33CHL1   H1A 2413   2.690   4.756   6.966 -1.6700 -0.7449 -2.6829
   33CHL1   H1B 2414   2.866   4.752   6.943 -0.3853  0.5365 -1.0356
   33CHL1    C2 2415   2.753   4.702   6.765  1.0099  0.3205 -0.4077
   33CHL1   H2A 2416   2.765   4.810   6.739 -0.4899  0.2670 -1.4272
   33CHL1   H2B 2417   2.651   4.670   6.734  1.4252 -0.3741 -1.0909
   33CHL1   C20 2418   2.763   4.461   7.696  0.5786  0.8257 -0.4769
   33CHL1   H20 2419   2.671   4.401   7.680  0.4236  0.9534 -0.0936
   33CHL1   C21 2420   2.722   4.608   7.726 -0.2442  1.3116 -0.1466
   33CHL1  H21A 2421   2.650   4.618   7.811  0.3652 -0.5838  0.6484
   33CHL1  H21B 2422   2.665   4.649   7.640 -1.2785 -0.0334 -0.1471
   33CHL1  H21C 2423   2.816   4.663   7.750  0.5134  0.8914 -2.0272
   33CHL1   C22 2424   2.834   4.397   7.818 -0.3628  0.0513  0.4318
   33CHL1  H22A 2425   2.862   4.291   7.805 -0.3291 -0.1127  1.7280
   33CHL1  H22B 2426   2.935   4.442   7.825 -0.0675 -0.1355 -1.9240
   33CHL1   C23 2427   2.760   4.409   7.958  0.6835 -0.6930 -0.0617
   33CHL1  H23A 2428   2.737   4.515   7.986 -2.5777 -0.8777 -1.5563
   33CHL1  H23B 2429   2.668   4.351   7.935 -0.4442  0.5125  1.1330
   33CHL1   C24 2430   2.837   4.343   8.072 -0.4566  0.0500 -0.0492
   33CHL1  H24A 2431   2.863   4.241   8.037  0.5757  0.7436 -1.3834
   33CHL1  H24B 2432   2.940   4.381   8.083  0.5836 -2.1713 -1.5154
   33CHL1   C25 2433   2.767   4.335   8.204  0.6944  0.0379 -1.2237
   33CHL1   H25 2434   2.764   4.438   8.245  1.1297 -0.5611  0.4218
   33CHL1   C26 2435   2.624   4.271   8.198 -0.3132  0.5061  0.4527
   33CHL1  H26A 2436   2.548   4.340   8.153 -0.4750  0.0457  0.0145
   33CHL1  H26B 2437   2.629   4.178   8.138 -0.2224  0.8580 -0.0970
   33CHL1  H26C 2438   2.587   4.234   8.296 -0.3265  0.5943  0.4817
   33CHL1   C27 2439   2.852   4.244   8.299 -0.1173 -0.3664  0.6943
   33CHL1  H27A 2440   2.858   4.139   8.264  2.9552 -1.4692  3.8934
   33CHL1  H27B 2441   2.958   4.276   8.286 -1.0565  2.9555  0.2146
   33CHL1  H27C 2442   2.815   4.247   8.404  0.0015 -2.5219  0.8239
   34CHL1    C3 2443   5.357   3.116   6.992 -0.0105  0.3300 -0.4228
   34CHL1    H3 2444   5.249   3.095   7.005 -0.3037  0.6552 -2.1848
   34CHL1    O3 2445   5.395   3.110   6.856  0.1061 -0.1357 -0.3491
   34CHL1   H3' 2446   5.491   3.116   6.861 -0.0429  2.0545  1.6743
   34CHL1    C4 2447   5.391   3.253   7.048  0.3389 -0.3670 -0.3683
   34CHL1   H4A 2448   5.501   3.250   7.033  0.7313 -3.3463  2.0931
   34CHL1   H4B 2449   5.340   3.325   6.980 -3.0945 -2.4141 -0.1803
   34CHL1    C5 2450   5.376   3.269   7.200 -0.9374 -0.1115 -0.8206
   34CHL1    C6 2451   5.316   3.372   7.255 -0.4394 -0.6088  0.2459
   34CHL1    H6 2452   5.284   3.451   7.185 -1.4184 -0.2970  1.0078
   34CHL1    C7 2453   5.286   3.386   7.402  0.5312 -0.2851  0.6466
   34CHL1   H7A 2454   5.312   3.492   7.421  1.7712 -0.4588  0.0234
   34CHL1   H7B 2455   5.176   3.377   7.416  0.5209 -0.3466  0.5342
   34CHL1    C8 2456   5.380   3.296   7.484 -0.4803 -0.3375 -0.0840
   34CHL1    H8 2457   5.483   3.339   7.486 -0.7968  0.4260  1.1279
   34CHL1   C14 2458   5.327   3.307   7.622  0.4445 -0.2468 -0.7460
   34CHL1   H14 2459   5.226   3.262   7.628  0.8600 -1.2263 -0.9237
   34CHL1   C15 2460   5.298   3.447   7.684 -0.2346  0.2060  0.7436
   34CHL1  H15A 2461   5.374   3.524   7.662 -2.8441  3.8178  3.1102
   34CHL1  H15B 2462   5.196   3.484   7.657 -0.7355 -0.4830  1.6384
   34CHL1   C16 2463   5.294   3.412   7.829 -0.1520  0.6458 -0.1673
   34CHL1  H16A 2464   5.365   3.484   7.876  0.6823  0.4262 -1.0585
   34CHL1  H16B 2465   5.189   3.429   7.862 -1.0262  0.2100 -2.5696
   34CHL1   C17 2466   5.329   3.261   7.850 -0.0046 -0.5278 -0.6453
   34CHL1   H17 2467   5.231   3.209   7.843 -0.2559 -0.0659 -0.5813
   34CHL1   C13 2468   5.411   3.226   7.727  0.2888  0.5866  0.3793
   34CHL1   C18 2469   5.550   3.281   7.737  0.5088  0.3126  0.0194
   34CHL1  H18A 2470   5.619   3.207   7.783 -0.8127 -2.8093 -2.6516
   34CHL1  H18B 2471   5.594   3.294   7.636  0.0989  3.0707  0.1214
   34CHL1  H18C 2472   5.562   3.382   7.781  1.7306 -0.2762  1.1329
   34CHL1   C12 2473   5.403   3.076   7.674 -0.5905 -0.6156 -0.3718
   34CHL1  H12A 2474   5.459   3.010   7.744 -1.0047  0.0478  0.6100
   34CHL1  H12B 2475   5.295   3.049   7.667 -0.3448 -1.3141 -1.7768
   34CHL1   C11 2476   5.446   3.055   7.527  0.0203  0.4746 -0.0370
   34CHL1  H11A 2477   5.557   3.064   7.526  0.3287 -2.3994 -0.5979
   34CHL1  H11B 2478   5.437   2.954   7.482 -2.4122  1.1767 -1.3040
   34CHL1    C9 2479   5.378   3.154   7.427  0.1785  0.4533 -0.5574
   34CHL1    H9 2480   5.271   3.124   7.431  0.0560  0.8653 -0.7000
   34CHL1   C10 2481   5.436   3.150   7.283 -0.5478 -0.8138  0.8148
   34CHL1   C19 2482   5.590   3.174   7.283  0.0602  0.1741 -0.4312
   34CHL1  H19A 2483   5.635   3.090   7.339  0.2065  1.2405  1.0913
   34CHL1  H19B 2484   5.639   3.162   7.184  0.3075 -2.8552 -0.0211
   34CHL1  H19C 2485   5.626   3.264   7.337  1.3881 -0.5845 -0.0134
   34CHL1    C1 2486   5.417   3.012   7.221  0.2652  0.1468 -0.2799
   34CHL1   H1A 2487   5.479   2.932   7.267 -1.5124 -1.0207  0.1948
   34CHL1   H1B 2488   5.312   2.986   7.247  1.0931 -2.1880  1.0289
   34CHL1    C2 2489   5.435   3.008   7.065 -0.2719  0.1430 -0.0430
   34CHL1   H2A 2490   5.409   2.905   7.031  0.4764  0.4806 -1.7129
   34CHL1   H2B 2491   5.544   3.008   7.043 -0.5256 -0.2742 -1.3887
   34CHL1   C20 2492   5.376   3.212   7.991 -0.1336  0.0496 -0.1032
   34CHL1   H20 2493   5.486   3.226   7.996 -0.2304  2.3940 -2.2670
   34CHL1   C21 2494   5.339   3.061   8.014  0.2742 -0.1240 -0.2151
   34CHL1  H21A 2495   5.231   3.051   8.036  0.4732 -3.8234 -0.2545
   34CHL1  H21B 2496   5.402   3.017   8.094 -0.1309  2.7826  1.8580
   34CHL1  H21C 2497   5.370   3.002   7.925  0.6085 -0.4342  0.1022
   34CHL1   C22 2498   5.318   3.303   8.104  0.7734 -0.7049 -0.6966
   34CHL1  H22A 2499   5.370   3.400   8.088  2.2562 -1.4809 -0.7239
   34CHL1  H22B 2500   5.209   3.327   8.097  0.2044 -1.8702  2.3029
   34CHL1   C23 2501   5.351   3.251   8.245  0.5263 -0.7702 -0.2852
   34CHL1  H23A 2502   5.280   3.170   8.271 -0.2277 -0.1775 -0.4525
   34CHL1  H23B 2503   5.455   3.219   8.271  0.1570 -1.7155  0.0599
   34CHL1   C24 2504   5.331   3.372   8.344 -0.5354  0.5817  0.2473
   34CHL1  H24A 2505   5.397   3.455   8.310 -0.4535 -0.8831 -3.6542
   34CHL1  H24B 2506   5.227   3.408   8.333 -1.2406 -1.3011  0.2780
   34CHL1   C25 2507   5.333   3.351   8.499  0.0585  0.3022 -0.4922
   34CHL1   H25 2508   5.438   3.328   8.527 -0.6803 -3.2823 -0.1460
   34CHL1   C26 2509   5.277   3.476   8.572  0.6497  0.1153  0.3049
   34CHL1  H26A 2510   5.304   3.483   8.680 -0.4790  0.7216  0.5573
   34CHL1  H26B 2511   5.319   3.566   8.523 -0.5571  0.9820  0.8223
   34CHL1  H26C 2512   5.166   3.485   8.572  0.5278 -0.7667  2.1894
   34CHL1   C27 2513   5.258   3.227   8.542  0.0709  0.8407 -0.5471
   34CHL1  H27A 2514   5.313   3.143   8.495 -2.2796  0.1779 -2.3332
   34CHL1  H27B 2515   5.243   3.210   8.650  4.0533 -1.6660 -0.2001
   34CHL1  H27C 2516   5.152   3.219   8.510 -0.8932  1.6716  2.1583
   35CHL1    C3 2517   0.236   2.424   7.182 -0.3888 -0.2356  0.0052
   35CHL1    H3 2518   0.264   2.528   7.205 -0.4414 -0.3727  0.7015
   35CHL1    O3 2519   0.166   2.438   7.059  0.6975 -0.3507  0.1304
   35CHL1   H3' 2520   0.216   2.486   6.993  1.1185 -2.1372 -0.9068
   35CHL1    C4 2521   0.352   2.333   7.173 -0.3130 -0.5362  0.0125
   35CHL1   H4A 2522   0.321   2.228   7.153  0.9606 -0.7825 -0.8046
   35CHL1   H4B 2523   0.422   2.344   7.087 -0.5962  0.3001 -0.1203
   35CHL1    C5 2524   0.425   2.328   7.307  0.3274  0.6472  0.4710
   35CHL1    C6 2525   0.554   2.355   7.311  0.0824  0.1116  0.0211
   35CHL1    H6 2526   0.606   2.366   7.214 -1.4639  0.2915 -0.8304
   35CHL1    C7 2527   0.624   2.367   7.439  0.0774 -0.1882 -0.4443
   35CHL1   H7A 2528   0.725   2.323   7.424  0.6301  0.4826  1.1335
   35CHL1   H7B 2529   0.628   2.477   7.453 -0.0800  0.0280 -1.9589
   35CHL1    C8 2530   0.559   2.304   7.561  0.5976  0.2373  0.1833
   35CHL1    H8 2531   0.572   2.195   7.544 -1.4519  0.2173 -1.6160
   35CHL1   C14 2532   0.623   2.348   7.690 -0.2461  0.6378  0.1660
   35CHL1   H14 2533   0.616   2.457   7.711 -1.6847  0.4696  0.7116
   35CHL1   C15 2534   0.772   2.325   7.702  0.7316 -0.0546 -0.8314
   35CHL1  H15A 2535   0.796   2.220   7.675  1.2515  0.4988 -2.6488
   35CHL1  H15B 2536   0.830   2.402   7.647  0.8466 -0.1215 -0.8052
   35CHL1   C16 2537   0.798   2.342   7.853  0.5288  0.0820  0.7797
   35CHL1  H16A 2538   0.876   2.272   7.888  1.5526  0.6981 -0.2107
   35CHL1  H16B 2539   0.840   2.444   7.870 -0.6073  0.9437 -1.2133
   35CHL1   C17 2540   0.661   2.341   7.925  0.7148 -0.0509  0.3684
   35CHL1   H17 2541   0.630   2.446   7.942 -3.8624 -0.5988 -2.6976
   35CHL1   C13 2542   0.564   2.287   7.819  0.7433  0.6887 -0.1830
   35CHL1   C18 2543   0.565   2.125   7.822  0.5457 -0.2936  0.0200
   35CHL1  H18A 2544   0.536   2.079   7.725 -0.5783 -2.0799  1.1528
   35CHL1  H18B 2545   0.667   2.087   7.844  0.5309  0.3909  1.3344
   35CHL1  H18C 2546   0.492   2.088   7.897 -1.9739  1.3632 -1.4559
   35CHL1   C12 2547   0.415   2.335   7.816 -0.0606 -0.8418  0.3561
   35CHL1  H12A 2548   0.371   2.287   7.906 -1.8036 -0.5180 -0.3006
   35CHL1  H12B 2549   0.408   2.444   7.836  0.1815 -0.6974 -0.3241
   35CHL1   C11 2550   0.337   2.304   7.687  0.0077  0.0325 -0.0560
   35CHL1  H11A 2551   0.336   2.193   7.687  0.7834  0.0191  0.3694
   35CHL1  H11B 2552   0.239   2.357   7.682 -1.2821 -2.0460  1.4182
   35CHL1    C9 2553   0.410   2.343   7.554 -1.1892  0.0635  0.0363
   35CHL1    H9 2554   0.412   2.454   7.559 -2.9169  0.0847  0.9631
   35CHL1   C10 2555   0.341   2.309   7.427  0.0962  0.6226  0.1049
   35CHL1   C19 2556   0.300   2.161   7.444 -0.4516  0.2647  0.2572
   35CHL1  H19A 2557   0.258   2.117   7.351 -1.5189  1.1841  0.2760
   35CHL1  H19B 2558   0.383   2.102   7.488 -1.9728 -1.8965  0.3686
   35CHL1  H19C 2559   0.219   2.144   7.518 -1.1355 -2.6737 -1.0087
   35CHL1    C1 2560   0.215   2.396   7.413  0.5034 -0.1669 -0.4722
   35CHL1   H1A 2561   0.143   2.360   7.490 -1.5559  2.0095 -1.2405
   35CHL1   H1B 2562   0.240   2.501   7.435 -0.8280 -0.0828  0.8018
   35CHL1    C2 2563   0.143   2.382   7.282  0.0735  0.3694 -0.6021
   35CHL1   H2A 2564   0.048   2.441   7.278  0.7225  1.5526  0.5312
   35CHL1   H2B 2565   0.109   2.277   7.271 -1.0660  0.4678  1.4180
   35CHL1   C20 2566   0.676   2.276   8.064 -0.0539  0.7775  0.3963
   35CHL1   H20 2567   0.693   2.168   8.044  1.8265  1.0109  0.6097
   35CHL1   C21 2568   0.547   2.293   8.150 -0.6495 -0.0534  0.1292
   35CHL1  H21A 2569   0.555   2.227   8.239 -0.2084 -0.3230 -0.1001
   35CHL1  H21B 2570   0.464   2.257   8.085 -0.3301  0.3366 -0.5058
   35CHL1  H21C 2571   0.537   2.398   8.183  0.8790 -0.7024  3.0535
   35CHL1   C22 2572   0.805   2.317   8.143  0.0064 -0.0942 -0.4290
   35CHL1  H22A 2573   0.801   2.264   8.241 -1.3279 -1.3407 -1.1117
   35CHL1  H22B 2574   0.891   2.271   8.091  0.2961  1.7230 -1.6341
   35CHL1   C23 2575   0.840   2.466   8.168 -0.4638  0.5311 -0.3160
   35CHL1  H23A 2576   0.861   2.517   8.071 -0.6431 -0.3555 -0.8351
   35CHL1  H23B 2577   0.749   2.519   8.204 -1.1105 -0.6612 -0.1265
   35CHL1   C24 2578   0.956   2.487   8.260 -0.0310  0.1043 -0.9355
   35CHL1  H24A 2579   1.043   2.436   8.213  0.5178  1.6303 -1.6296
   35CHL1  H24B 2580   0.982   2.595   8.262  0.0956  0.0936  1.5575
   35CHL1   C25 2581   0.958   2.450   8.413 -0.4210 -0.2982 -0.6358
   35CHL1   H25 2582   0.925   2.344   8.416 -2.2727  0.1857 -1.9257
   35CHL1   C26 2583   1.098   2.457   8.481 -0.0615 -0.5806  0.2029
   35CHL1  H26A 2584   1.090   2.401   8.576 -1.2686  1.8177  1.6021
   35CHL1  H26B 2585   1.158   2.412   8.398  1.1708  1.7724 -0.2641
   35CHL1  H26C 2586   1.129   2.562   8.495  1.3414 -0.8565 -0.6813
   35CHL1   C27 2587   0.855   2.526   8.502 -0.2570 -0.2063 -0.2378
   35CHL1  H27A 2588   0.842   2.475   8.600  0.5111 -2.6148 -1.3086
   35CHL1  H27B 2589   0.756   2.519   8.452 -0.8850 -1.6400  1.1142
   35CHL1  H27C 2590   0.897   2.628   8.512  0.7755 -0.5396 -0.9270
   36CHL1    C3 2591   0.766   3.266   7.030 -0.4585 -0.4126  0.2198
   36CHL1    H3 2592   0.680   3.199   7.013 -0.9421 -0.5882  2.9007
   36CHL1    O3 2593   0.835   3.295   6.909  0.3965  0.1434  0.8711
   36CHL1   H3' 2594   0.921   3.327   6.937  2.5161 -2.9623 -1.3988
   36CHL1    C4 2595   0.703   3.392   7.080  0.0995 -0.5919  0.1611
   36CHL1   H4A 2596   0.775   3.477   7.075  0.6465 -1.1272 -1.5093
   36CHL1   H4B 2597   0.625   3.418   7.005 -0.5100  0.6266  1.1711
   36CHL1    C5 2598   0.642   3.367   7.222 -0.2416  1.4131  0.7293
   36CHL1    C6 2599   0.510   3.384   7.240 -0.3822  0.3636 -0.5189
   36CHL1    H6 2600   0.451   3.414   7.152 -2.6809 -4.3292 -0.8705
   36CHL1    C7 2601   0.437   3.379   7.370  0.3323 -0.5374  0.4615
   36CHL1   H7A 2602   0.370   3.466   7.383 -0.0381 -0.1240 -3.0394
   36CHL1   H7B 2603   0.376   3.287   7.358  0.9506 -0.7025 -2.1058
   36CHL1    C8 2604   0.536   3.367   7.492 -0.1161  0.6334 -0.3680
   36CHL1    H8 2605   0.565   3.471   7.517 -1.3925  0.7667  0.5942
   36CHL1   C14 2606   0.472   3.309   7.614 -0.5381 -0.3526 -1.0963
   36CHL1   H14 2607   0.452   3.202   7.590  1.2078 -0.4727 -2.2006
   36CHL1   C15 2608   0.340   3.370   7.660  0.2786  0.3846  0.4877
   36CHL1  H15A 2609   0.341   3.481   7.659 -1.0745  0.4317  1.1068
   36CHL1  H15B 2610   0.250   3.329   7.610  2.1856 -1.8748 -1.3146
   36CHL1   C16 2611   0.336   3.337   7.812  0.4996 -0.2197 -1.0725
   36CHL1  H16A 2612   0.343   3.431   7.872  0.1033  1.6422 -3.7462
   36CHL1  H16B 2613   0.248   3.280   7.848  0.7901 -1.0331 -1.6166
   36CHL1   C17 2614   0.466   3.249   7.846  0.1134 -0.3397  0.1917
   36CHL1   H17 2615   0.446   3.149   7.801 -0.8094 -0.5459  1.0387
   36CHL1   C13 2616   0.563   3.301   7.743  0.9080  0.6014  0.2102
   36CHL1   C18 2617   0.605   3.447   7.782  0.3343 -0.8296 -0.2644
   36CHL1  H18A 2618   0.660   3.460   7.878  1.8927  2.1108 -1.4268
   36CHL1  H18B 2619   0.650   3.504   7.698 -3.3385 -2.0791 -3.3277
   36CHL1  H18C 2620   0.511   3.501   7.804 -0.1480 -1.1891 -1.4105
   36CHL1   C12 2621   0.685   3.226   7.708 -0.4927  0.0586  0.1542
   36CHL1  H12A 2622   0.766   3.238   7.783  1.2294  3.1702 -1.9984
   36CHL1  H12B 2623   0.661   3.118   7.696  0.1534  0.0184 -0.9579
   36CHL1   C11 2624   0.755   3.268   7.574 -0.5403 -0.0684  0.1265
   36CHL1  H11A 2625   0.815   3.354   7.611 -1.4588 -0.6046  3.1219
   36CHL1  H11B 2626   0.832   3.190   7.553 -1.1990 -0.4744 -0.8106
   36CHL1    C9 2627   0.655   3.279   7.455  0.2950 -0.0219 -0.3664
   36CHL1    H9 2628   0.613   3.178   7.437 -1.8769  0.8269 -0.3676
   36CHL1   C10 2629   0.735   3.321   7.329  0.4813 -0.3252 -0.2673
   36CHL1   C19 2630   0.825   3.449   7.364 -0.7387  0.1908 -0.6320
   36CHL1  H19A 2631   0.840   3.507   7.271 -0.4127  1.2543  0.0699
   36CHL1  H19B 2632   0.782   3.525   7.432  0.1007  0.0835  0.0307
   36CHL1  H19C 2633   0.922   3.408   7.399 -0.5938 -0.2811 -1.5504
   36CHL1    C1 2634   0.823   3.202   7.272  0.6063 -0.6381  0.3648
   36CHL1   H1A 2635   0.911   3.201   7.339 -0.7312  1.5578  2.3051
   36CHL1   H1B 2636   0.765   3.107   7.279  1.1359 -1.0528 -0.5777
   36CHL1    C2 2637   0.873   3.219   7.128  0.5455  0.8865  0.9675
   36CHL1   H2A 2638   0.926   3.133   7.081 -0.6948  0.7744 -0.2847
   36CHL1   H2B 2639   0.951   3.297   7.143  0.7011  1.1178 -0.8133
   36CHL1   C20 2640   0.507   3.235   7.985 -0.0488  0.4136  0.0779
   36CHL1   H20 2641   0.536   3.335   8.022 -2.2699  0.7758  1.0343
   36CHL1   C21 2642   0.621   3.132   7.997 -0.4973 -0.2424 -0.0805
   36CHL1  H21A 2643   0.606   3.056   7.917  0.2164  0.8868 -1.3349
   36CHL1  H21B 2644   0.615   3.091   8.100 -0.6475 -0.9365 -0.3593
   36CHL1  H21C 2645   0.717   3.185   7.980 -1.0089  1.0638  0.9239
   36CHL1   C22 2646   0.393   3.199   8.082  0.3725  0.3484 -0.1885
   36CHL1  H22A 2647   0.300   3.249   8.045 -1.0070 -0.2877  2.2107
   36CHL1  H22B 2648   0.368   3.091   8.080 -0.7111  0.5243  1.4713
   36CHL1   C23 2649   0.411   3.248   8.228  0.3330  0.8336  0.8456
   36CHL1  H23A 2650   0.472   3.162   8.264 -0.9986 -0.5707 -0.1100
   36CHL1  H23B 2651   0.473   3.339   8.239  0.6990  0.9361 -1.5974
   36CHL1   C24 2652   0.271   3.263   8.302 -0.2191  0.2787  0.3648
   36CHL1  H24A 2653   0.226   3.361   8.273 -0.4991 -0.0262 -0.2458
   36CHL1  H24B 2654   0.204   3.183   8.263  0.8820 -0.5091  0.0346
   36CHL1   C25 2655   0.268   3.257   8.456 -0.0723  0.1168  0.1392
   36CHL1   H25 2656   0.163   3.281   8.483 -0.1763  0.1047 -0.2377
   36CHL1   C26 2657   0.310   3.115   8.506 -0.5369 -0.4768  0.5344
   36CHL1  H26A 2658   0.420   3.103   8.499 -0.7065 -1.1359 -2.2623
   36CHL1  H26B 2659   0.285   3.093   8.612 -2.7729  3.6205  1.0801
   36CHL1  H26C 2660   0.269   3.033   8.443  0.6517  0.3002 -1.3414
   36CHL1   C27 2661   0.355   3.368   8.519 -0.1159 -0.2164  0.1250
   36CHL1  H27A 2662   0.461   3.350   8.491  0.0116  1.0597 -0.2868
   36CHL1  H27B 2663   0.320   3.468   8.485  1.5037  0.2909 -0.1537
   36CHL1  H27C 2664   0.355   3.364   8.630  1.4647 -1.0167  0.1194
   37CHL1    C3 2665   4.479   5.433   6.859 -0.6375  0.6662  0.0740
   37CHL1    H3 2666   4.579   5.401   6.894 -0.6345  1.2868  0.6408
   37CHL1    O3 2667   4.452   5.364   6.735 -0.1581 -0.7481 -0.1814
   37CHL1   H3' 2668   4.445   5.429   6.666  0.4663 -1.2731 -0.7481
   37CHL1    C4 2669   4.373   5.389   6.954  0.1660  0.0113 -0.9014
   37CHL1   H4A 2670   4.280   5.416   6.898  0.6427  2.6001 -0.5576
   37CHL1   H4B 2671   4.364   5.279   6.964 -1.9464  0.3065  1.4297
   37CHL1    C5 2672   4.391   5.447   7.088  0.4542 -0.3118 -0.1272
   37CHL1    C6 2673   4.397   5.371   7.197 -0.5526 -0.1980 -0.3553
   37CHL1    H6 2674   4.387   5.263   7.181 -1.9721  0.2013 -2.5792
   37CHL1    C7 2675   4.412   5.434   7.338 -0.2843 -0.2711  0.4035
   37CHL1   H7A 2676   4.351   5.382   7.416 -0.4650  0.8267  1.0076
   37CHL1   H7B 2677   4.512   5.420   7.384  0.4360 -0.6194 -1.2050
   37CHL1    C8 2678   4.377   5.582   7.339 -0.1416  0.1913 -0.3063
   37CHL1    H8 2679   4.266   5.587   7.330 -0.3293  1.7132  2.0872
   37CHL1   C14 2680   4.415   5.641   7.473 -0.1103  0.0998  0.1900
   37CHL1   H14 2681   4.523   5.620   7.485  0.1271  0.2230 -1.5156
   37CHL1   C15 2682   4.361   5.577   7.606  0.3334  0.4783  0.3734
   37CHL1  H15A 2683   4.256   5.543   7.597  0.9446 -1.6794  0.8271
   37CHL1  H15B 2684   4.421   5.489   7.638  0.8196 -0.0590 -1.8358
   37CHL1   C16 2685   4.367   5.688   7.708  0.0384 -0.0483 -0.5514
   37CHL1  H16A 2686   4.260   5.713   7.725 -0.5229 -2.2004 -0.7333
   37CHL1  H16B 2687   4.413   5.653   7.803 -0.6233 -3.4407 -1.3658
   37CHL1   C17 2688   4.429   5.814   7.640  0.2105 -0.2195  0.1770
   37CHL1   H17 2689   4.539   5.797   7.645  0.1619 -1.1645 -1.3301
   37CHL1   C13 2690   4.397   5.790   7.486 -0.4715  0.2773  0.1974
   37CHL1   C18 2691   4.249   5.820   7.469  0.4476 -0.5036 -0.3171
   37CHL1  H18A 2692   4.196   5.801   7.373 -1.0289 -0.7438  0.5070
   37CHL1  H18B 2693   4.186   5.779   7.551  0.2341  2.5526  1.2064
   37CHL1  H18C 2694   4.226   5.923   7.504  0.7129 -1.0324  1.5099
   37CHL1   C12 2695   4.483   5.860   7.382 -0.1605 -0.6784  0.3391
   37CHL1  H12A 2696   4.473   5.971   7.384  0.5705 -0.5703 -0.8675
   37CHL1  H12B 2697   4.591   5.848   7.408  0.5400  1.8565 -1.0120
   37CHL1   C11 2698   4.455   5.810   7.244 -0.1651  0.3362 -0.2031
   37CHL1  H11A 2699   4.353   5.842   7.215  0.4291  2.0125 -0.5316
   37CHL1  H11B 2700   4.518   5.859   7.167  0.8922 -1.7915 -0.7689
   37CHL1    C9 2701   4.455   5.650   7.228  0.1040 -0.3234 -0.4590
   37CHL1    H9 2702   4.562   5.624   7.240 -0.6854 -3.5402  0.5853
   37CHL1   C10 2703   4.413   5.605   7.093  0.4545  0.5793  0.4416
   37CHL1   C19 2704   4.276   5.667   7.054  0.2468  0.2121  0.1322
   37CHL1  H19A 2705   4.243   5.618   6.959  0.5686 -0.8054  0.5363
   37CHL1  H19B 2706   4.204   5.647   7.136  0.0572  1.2777  0.2353
   37CHL1  H19C 2707   4.284   5.773   7.024 -0.3460  0.0999 -0.4588
   37CHL1    C1 2708   4.518   5.645   6.984  0.0198 -0.3168  0.4064
   37CHL1   H1A 2709   4.527   5.755   6.973  0.5966 -0.0401  2.8989
   37CHL1   H1B 2710   4.612   5.595   7.017 -0.9168 -2.1558  0.4769
   37CHL1    C2 2711   4.487   5.586   6.841 -0.2996 -0.2327 -0.0230
   37CHL1   H2A 2712   4.564   5.617   6.768 -1.5290  2.0309 -0.4444
   37CHL1   H2B 2713   4.395   5.627   6.795 -0.4569 -0.5167  0.0329
   37CHL1   C20 2714   4.381   5.943   7.709  0.0523  0.1704 -0.5324
   37CHL1   H20 2715   4.270   5.948   7.720  0.0744 -1.0680  0.3757
   37CHL1   C21 2716   4.423   6.067   7.630 -0.6140  0.3557  0.8682
   37CHL1  H21A 2717   4.399   6.167   7.672  0.4454  0.8796  0.2647
   37CHL1  H21B 2718   4.375   6.070   7.530 -1.7154 -0.8118  1.3274
   37CHL1  H21C 2719   4.533   6.075   7.623 -0.7040  0.5275 -0.9532
   37CHL1   C22 2720   4.450   5.943   7.845 -0.8585 -0.7654  0.3554
   37CHL1  H22A 2721   4.431   5.845   7.894 -1.1731 -0.7804  0.2070
   37CHL1  H22B 2722   4.557   5.959   7.822 -1.0731 -0.4163 -0.4379
   37CHL1   C23 2723   4.403   6.060   7.949 -0.7633  0.0894 -0.0534
   37CHL1  H23A 2724   4.412   6.161   7.903 -0.2038  0.2260  0.3453
   37CHL1  H23B 2725   4.294   6.041   7.954 -1.4337  2.9567 -1.5481
   37CHL1   C24 2726   4.476   6.045   8.084  0.5581 -0.2691  0.0829
   37CHL1  H24A 2727   4.466   5.944   8.128  0.7429 -1.0986 -1.6922
   37CHL1  H24B 2728   4.586   6.050   8.067  0.7990 -3.9193 -0.0870
   37CHL1   C25 2729   4.424   6.151   8.185  0.1463 -0.6321 -0.1871
   37CHL1   H25 2730   4.403   6.242   8.126  1.8782 -1.3248 -1.9883
   37CHL1   C26 2731   4.286   6.119   8.248 -0.1010 -0.0632 -1.0776
   37CHL1  H26A 2732   4.252   6.213   8.296 -1.0035 -0.3630 -1.1088
   37CHL1  H26B 2733   4.216   6.069   8.177 -1.1691 -0.8434  0.4667
   37CHL1  H26C 2734   4.313   6.037   8.317  2.2987 -0.5374 -2.4740
   37CHL1   C27 2735   4.531   6.191   8.297  0.0818  0.2833  0.0954
   37CHL1  H27A 2736   4.635   6.207   8.259 -0.5447  1.8950 -1.0639
   37CHL1  H27B 2737   4.503   6.292   8.335 -1.5688  0.6438 -1.8579
   37CHL1  H27C 2738   4.523   6.115   8.377 -1.6702 -1.0148 -1.2291
   38CHL1    C3 2739   1.486   0.371   6.686  0.6572 -0.0999 -0.6895
   38CHL1    H3 2740   1.392   0.313   6.691  1.5383 -1.5904 -0.7728
   38CHL1    O3 2741   1.519   0.429   6.561  0.6998 -0.5301  0.5974
   38CHL1   H3' 2742   1.439   0.474   6.532 -1.4816 -2.2955  3.3289
   38CHL1    C4 2743   1.491   0.482   6.789  0.2571 -0.3613 -0.5421
   38CHL1   H4A 2744   1.591   0.530   6.784  1.1500 -2.2256 -2.3762
   38CHL1   H4B 2745   1.411   0.557   6.772 -1.9769 -1.9928  1.9143
   38CHL1    C5 2746   1.464   0.431   6.931  0.8765  0.3944  0.1971
   38CHL1    C6 2747   1.361   0.474   7.012 -0.6452 -0.4321  1.1489
   38CHL1    H6 2748   1.301   0.556   6.970  2.4210  1.6967  0.5795
   38CHL1    C7 2749   1.325   0.434   7.159  0.3588  0.1950  0.3146
   38CHL1   H7A 2750   1.306   0.520   7.226 -0.8547  0.1488  0.0692
   38CHL1   H7B 2751   1.241   0.361   7.154  0.2675  0.2591  0.8767
   38CHL1    C8 2752   1.453   0.356   7.218  0.2263  0.1623 -0.2262
   38CHL1    H8 2753   1.539   0.424   7.237  1.1053 -0.5323 -1.5950
   38CHL1   C14 2754   1.415   0.287   7.347  0.0549 -0.5041 -0.2781
   38CHL1   H14 2755   1.334   0.217   7.317 -0.6272 -1.2580  2.8766
   38CHL1   C15 2756   1.360   0.374   7.456  0.6176 -0.4551 -0.1586
   38CHL1  H15A 2757   1.415   0.464   7.488  0.8830 -1.3383  2.0411
   38CHL1  H15B 2758   1.257   0.411   7.438  1.6868  1.9402 -1.8427
   38CHL1   C16 2759   1.365   0.275   7.575 -0.3436 -0.1855  0.0748
   38CHL1  H16A 2760   1.427   0.327   7.651 -0.5992 -1.6373  1.3294
   38CHL1  H16B 2761   1.262   0.254   7.613 -0.5401 -1.1690 -0.9540
   38CHL1   C17 2762   1.448   0.145   7.540  1.1926 -0.0152  0.0486
   38CHL1   H17 2763   1.373   0.069   7.509  1.9520 -0.6004 -0.4208
   38CHL1   C13 2764   1.520   0.197   7.409  0.5980  0.4473  0.7670
   38CHL1   C18 2765   1.632   0.284   7.457  0.1770 -0.0033 -0.4722
   38CHL1  H18A 2766   1.599   0.363   7.528  1.1893  0.1371 -0.1402
   38CHL1  H18B 2767   1.706   0.217   7.505  1.7647  0.0553 -2.6751
   38CHL1  H18C 2768   1.688   0.333   7.374 -0.6264  1.9325  0.0504
   38CHL1   C12 2769   1.564   0.086   7.309  0.3019 -0.4289  0.2043
   38CHL1  H12A 2770   1.649   0.025   7.346 -0.7735 -2.1043  0.0283
   38CHL1  H12B 2771   1.480   0.015   7.291 -0.1342  0.5137 -1.7232
   38CHL1   C11 2772   1.610   0.149   7.174 -0.3865  0.0881  0.9885
   38CHL1  H11A 2773   1.707   0.203   7.171 -0.8116  0.8616  0.7197
   38CHL1  H11B 2774   1.620   0.067   7.101  1.1294  0.3263  0.8971
   38CHL1    C9 2775   1.509   0.261   7.111 -0.2615  0.4939  0.6537
   38CHL1    H9 2776   1.427   0.194   7.078  1.2328 -1.1871  0.2114
   38CHL1   C10 2777   1.560   0.324   6.983  0.2379 -0.6213  0.5032
   38CHL1   C19 2778   1.685   0.403   7.007 -0.1662  0.5058  0.2479
   38CHL1  H19A 2779   1.662   0.477   7.087 -0.3843 -1.6274  2.2567
   38CHL1  H19B 2780   1.769   0.343   7.046 -0.7408 -0.2009  0.4167
   38CHL1  H19C 2781   1.743   0.446   6.922  3.5111 -1.1668  1.7436
   38CHL1    C1 2782   1.572   0.216   6.871 -0.4177  0.2524  0.2470
   38CHL1   H1A 2783   1.655   0.147   6.898 -1.7079 -1.5269 -0.0875
   38CHL1   H1B 2784   1.478   0.159   6.855 -0.9650  1.0184  0.6803
   38CHL1    C2 2785   1.597   0.272   6.725  0.5029  0.2536 -0.5830
   38CHL1   H2A 2786   1.600   0.180   6.663  0.0350  0.6226 -1.1577
   38CHL1   H2B 2787   1.695   0.322   6.715  1.2729 -0.9755  0.4386
   38CHL1   C20 2788   1.529   0.091   7.659 -0.0867 -0.4253 -0.3801
   38CHL1   H20 2789   1.597   0.173   7.692 -2.5268  1.6006 -0.0333
   38CHL1   C21 2790   1.584  -0.045   7.615 -0.8015 -0.0498 -0.4410
   38CHL1  H21A 2791   1.666  -0.039   7.540  2.6857  2.9408  3.1319
   38CHL1  H21B 2792   1.506  -0.117   7.583 -0.2715 -0.5789 -0.5773
   38CHL1  H21C 2793   1.639  -0.094   7.698 -0.2872  2.1056  0.5683
   38CHL1   C22 2794   1.437   0.061   7.780 -0.6254 -0.4417  0.5900
   38CHL1  H22A 2795   1.394   0.156   7.819 -1.1196 -0.6057  0.4565
   38CHL1  H22B 2796   1.352   0.006   7.735  0.5786 -0.8315 -1.3196
   38CHL1   C23 2797   1.498  -0.005   7.903 -0.1158  0.9181  0.4927
   38CHL1  H23A 2798   1.548  -0.099   7.871 -0.6466  0.8364 -0.1129
   38CHL1  H23B 2799   1.572   0.062   7.953 -0.1807  0.1612  1.6344
   38CHL1   C24 2800   1.392  -0.058   8.003  0.3920 -0.6534  0.1321
   38CHL1  H24A 2801   1.322   0.025   8.025 -1.0318 -1.7233 -0.2384
   38CHL1  H24B 2802   1.336  -0.145   7.963 -0.7818  0.3898 -0.5769
   38CHL1   C25 2803   1.454  -0.088   8.139 -0.0024 -0.0325 -0.3626
   38CHL1   H25 2804   1.374  -0.123   8.208  1.5576 -1.3575  0.8551
   38CHL1   C26 2805   1.545  -0.206   8.148 -0.2138 -0.5117 -0.5626
   38CHL1  H26A 2806   1.492  -0.303   8.136 -0.5183 -0.6314  1.4329
   38CHL1  H26B 2807   1.624  -0.197   8.070  1.2253  0.0255  0.8907
   38CHL1  H26C 2808   1.592  -0.208   8.248  0.8057 -0.5506 -1.0278
   38CHL1   C27 2809   1.517   0.033   8.222  0.2973  0.4011  0.1865
   38CHL1  H27A 2810   1.604   0.079   8.171 -0.8730 -0.0172 -2.3839
   38CHL1  H27B 2811   1.431   0.102   8.239  0.0183  0.0282  0.2915
   38CHL1  H27C 2812   1.555   0.003   8.321 -0.3076 -0.4931  0.1544
   39CHL1    C3 2813   1.434   6.056   6.651 -0.0829  0.3956 -0.1724
   39CHL1    H3 2814   1.524   5.994   6.629 -0.1250 -0.0505  0.8666
   39CHL1    O3 2815   1.378   6.102   6.532 -0.1663 -0.1850  0.1218
   39CHL1   H3' 2816   1.324   6.173   6.566 -1.1879 -0.3614 -1.0549
   39CHL1    C4 2817   1.330   5.962   6.724 -0.6418  0.0153 -0.5298
   39CHL1   H4A 2818   1.238   6.023   6.722 -0.5634  0.1872  0.7926
   39CHL1   H4B 2819   1.307   5.875   6.658 -0.3702  0.7219 -1.5826
   39CHL1    C5 2820   1.366   5.926   6.870 -0.7756 -0.6691  0.4308
   39CHL1    C6 2821   1.371   5.799   6.907  0.5317  0.2151 -0.3258
   39CHL1    H6 2822   1.341   5.723   6.834 -2.2537  0.5754  0.3060
   39CHL1    C7 2823   1.398   5.749   7.048 -0.1446  0.2739  0.7363
   39CHL1   H7A 2824   1.332   5.668   7.086  1.9089 -1.3231  1.0501
   39CHL1   H7B 2825   1.502   5.712   7.058  0.0889  0.4551 -0.7831
   39CHL1    C8 2826   1.387   5.866   7.143 -0.2922 -0.3200 -0.4839
   39CHL1    H8 2827   1.282   5.896   7.161  0.2541  0.0124  2.8528
   39CHL1   C14 2828   1.448   5.825   7.278  1.0399 -0.1208  0.0594
   39CHL1   H14 2829   1.556   5.803   7.269  0.8337 -0.8951 -0.6895
   39CHL1   C15 2830   1.393   5.698   7.347  0.0552  0.2835  0.4942
   39CHL1  H15A 2831   1.283   5.704   7.353 -0.5332 -3.5556 -2.5274
   39CHL1  H15B 2832   1.424   5.605   7.293 -0.1173  1.2390 -1.3261
   39CHL1   C16 2833   1.457   5.702   7.487  0.5914  0.2982 -0.3037
   39CHL1  H16A 2834   1.383   5.675   7.566  2.1980  0.5157  1.3257
   39CHL1  H16B 2835   1.543   5.631   7.488  0.8964  0.5843 -2.2274
   39CHL1   C17 2836   1.502   5.847   7.510  0.4488  0.1632 -0.6170
   39CHL1   H17 2837   1.611   5.825   7.505  0.5209 -0.0259  1.1550
   39CHL1   C13 2838   1.447   5.927   7.384  0.0986 -0.3637 -0.7966
   39CHL1   C18 2839   1.305   5.972   7.414  0.0042 -0.0414 -0.1592
   39CHL1  H18A 2840   1.260   6.004   7.317  2.0000  1.4471 -0.6656
   39CHL1  H18B 2841   1.239   5.893   7.456  3.4295 -2.2197  1.5650
   39CHL1  H18C 2842   1.300   6.059   7.483 -0.7469  1.6837 -2.2510
   39CHL1   C12 2843   1.540   6.039   7.329 -0.4933 -0.1281  0.1309
   39CHL1  H12A 2844   1.554   6.120   7.403  1.4602 -0.6972  0.4185
   39CHL1  H12B 2845   1.642   5.997   7.316 -0.0372  1.0779 -0.3432
   39CHL1   C11 2846   1.480   6.101   7.200  0.6177  0.1152 -0.6665
   39CHL1  H11A 2847   1.381   6.142   7.229  0.2729 -0.9217 -0.3210
   39CHL1  H11B 2848   1.537   6.185   7.155 -0.2775  0.1644 -1.7374
   39CHL1    C9 2849   1.464   5.990   7.090  0.0967  0.7726 -0.5332
   39CHL1    H9 2850   1.561   5.941   7.066 -0.3579  0.1702 -1.1934
   39CHL1   C10 2851   1.406   6.044   6.954  0.2901  0.8413 -0.2041
   39CHL1   C19 2852   1.283   6.133   6.985  0.2933  0.2518 -0.3491
   39CHL1  H19A 2853   1.316   6.228   7.031 -0.3575  0.4699 -0.3258
   39CHL1  H19B 2854   1.228   6.161   6.893  0.5833 -0.5612 -0.7795
   39CHL1  H19C 2855   1.214   6.084   7.057  0.4189  0.3129 -0.1858
   39CHL1    C1 2856   1.513   6.128   6.881  0.1537 -0.3389  0.6041
   39CHL1   H1A 2857   1.539   6.214   6.946  2.6338 -1.0058  0.6022
   39CHL1   H1B 2858   1.612   6.080   6.862  1.1552  1.6131  0.6242
   39CHL1    C2 2859   1.465   6.178   6.743 -0.4253  0.0243 -0.2415
   39CHL1   H2A 2860   1.548   6.228   6.688  0.5925 -1.5002 -0.1611
   39CHL1   H2B 2861   1.378   6.243   6.762 -0.4278  0.0148 -0.2209
   39CHL1   C20 2862   1.470   5.897   7.662 -0.5767 -1.1175 -0.1197
   39CHL1   H20 2863   1.359   5.902   7.671 -0.6716 -1.4051 -0.9917
   39CHL1   C21 2864   1.531   6.043   7.676  1.2065  0.8186  0.1435
   39CHL1  H21A 2865   1.472   6.111   7.610 -0.8204  2.5289  3.4199
   39CHL1  H21B 2866   1.640   6.040   7.657  0.8290  0.3836 -2.2919
   39CHL1  H21C 2867   1.505   6.079   7.777  0.9168  2.4716 -0.4808
   39CHL1   C22 2868   1.526   5.808   7.769  0.5488  0.1015 -0.0259
   39CHL1  H22A 2869   1.487   5.704   7.764 -0.2250  0.4417 -1.6556
   39CHL1  H22B 2870   1.636   5.803   7.750  0.5164 -0.6243 -0.0428
   39CHL1   C23 2871   1.509   5.850   7.913  0.3383 -0.0502 -0.0243
   39CHL1  H23A 2872   1.552   5.952   7.927  0.2936  0.2168 -1.5932
   39CHL1  H23B 2873   1.404   5.844   7.947  0.9635 -2.2884  1.7387
   39CHL1   C24 2874   1.577   5.756   8.020 -0.1365  0.1548 -0.0341
   39CHL1  H24A 2875   1.539   5.653   8.000  0.3370 -0.1748  0.7153
   39CHL1  H24B 2876   1.685   5.780   8.005 -0.2154  1.5534  1.3937
   39CHL1   C25 2877   1.559   5.775   8.173 -0.3988  0.6640 -1.0908
   39CHL1   H25 2878   1.574   5.882   8.198  0.1174  0.6322 -1.2537
   39CHL1   C26 2879   1.419   5.733   8.207  0.2775 -0.1673 -0.3097
   39CHL1  H26A 2880   1.347   5.784   8.139 -0.2634 -2.2518 -1.3993
   39CHL1  H26B 2881   1.407   5.625   8.183  0.1145 -0.7922  2.2498
   39CHL1  H26C 2882   1.392   5.745   8.314 -2.6816 -0.0426 -0.9864
   39CHL1   C27 2883   1.652   5.696   8.272 -0.3255  0.3685  0.3289
   39CHL1  H27A 2884   1.645   5.719   8.381 -2.8496 -1.8597  0.7463
   39CHL1  H27B 2885   1.636   5.587   8.255  2.2732  0.3839 -3.1707
   39CHL1  H27C 2886   1.755   5.713   8.235 -0.2683 -0.4056  0.1035
   40CHL1    C3 2887   3.239   4.681   6.793  0.0478  1.0779  0.1760
   40CHL1    H3 2888   3.139   4.633   6.793  0.3612  0.3467  1.7171
   40CHL1    O3 2889   3.278   4.717   6.664  0.1926 -0.2192  0.0564
   40CHL1   H3' 2890   3.365   4.751   6.690 -0.4595  1.1469  0.5850
   40CHL1    C4 2891   3.242   4.805   6.889 -0.4563 -0.1896 -0.3268
   40CHL1   H4A 2892   3.338   4.859   6.873 -0.7282 -0.4343 -3.3867
   40CHL1   H4B 2893   3.167   4.876   6.848 -0.3539  0.2973  0.3336
   40CHL1    C5 2894   3.215   4.775   7.031 -0.5944 -0.0148  0.1919
   40CHL1    C6 2895   3.114   4.830   7.099  0.4433  0.0529 -0.0716
   40CHL1    H6 2896   3.042   4.894   7.047  0.1572 -0.9323 -0.9071
   40CHL1    C7 2897   3.092   4.808   7.246  0.2317  0.4196 -0.5154
   40CHL1   H7A 2898   3.052   4.899   7.296  0.5433 -0.0840  0.6907
   40CHL1   H7B 2899   3.016   4.728   7.251  1.7369 -1.0694 -0.3437
   40CHL1    C8 2900   3.216   4.749   7.320  0.0718  0.3302 -0.0622
   40CHL1    H8 2901   3.297   4.825   7.320  1.3095 -0.9021  1.6726
   40CHL1   C14 2902   3.184   4.717   7.463  0.7414  0.3104 -0.0246
   40CHL1   H14 2903   3.089   4.660   7.459 -0.3654  1.9826  1.1905
   40CHL1   C15 2904   3.148   4.832   7.561  0.0767 -0.3132 -0.5498
   40CHL1  H15A 2905   3.219   4.916   7.549 -0.6226  0.4739  0.5566
   40CHL1  H15B 2906   3.044   4.865   7.535  1.3682  2.5313 -2.6876
   40CHL1   C16 2907   3.171   4.765   7.696 -0.4828  0.2107 -0.0165
   40CHL1  H16A 2908   3.229   4.838   7.757 -3.1682  2.6580 -0.1894
   40CHL1  H16B 2909   3.071   4.751   7.741 -0.7000  2.1328  0.1885
   40CHL1   C17 2910   3.230   4.628   7.673 -0.0319 -1.1771 -0.4833
   40CHL1   H17 2911   3.150   4.552   7.665 -0.2571 -1.2605  1.8588
   40CHL1   C13 2912   3.290   4.628   7.532  0.2083 -0.1884 -0.0610
   40CHL1   C18 2913   3.432   4.701   7.534  1.5882  0.2134  0.5552
   40CHL1  H18A 2914   3.437   4.795   7.592  2.8001 -0.4349  1.5608
   40CHL1  H18B 2915   3.495   4.629   7.592 -2.9188 -4.2714  0.6026
   40CHL1  H18C 2916   3.483   4.710   7.435  2.1359 -1.3535  0.6611
   40CHL1   C12 2917   3.288   4.496   7.453  0.2752  0.2445 -0.9122
   40CHL1  H12A 2918   3.366   4.433   7.501  1.2796  1.5772 -0.7394
   40CHL1  H12B 2919   3.194   4.438   7.464 -0.3996  1.6032  1.1831
   40CHL1   C11 2920   3.330   4.508   7.303  0.0240 -0.2889  0.4843
   40CHL1  H11A 2921   3.439   4.526   7.312 -0.1076  0.1664  1.2121
   40CHL1  H11B 2922   3.308   4.415   7.246 -2.0207 -0.8064  1.9951
   40CHL1    C9 2923   3.256   4.623   7.236  1.0099 -0.0904 -0.1375
   40CHL1    H9 2924   3.154   4.581   7.222  1.6337 -1.3295 -1.2865
   40CHL1   C10 2925   3.303   4.665   7.092 -0.3546  0.4121 -0.0353
   40CHL1   C19 2926   3.450   4.718   7.104  0.4159 -0.0599 -0.3981
   40CHL1  H19A 2927   3.484   4.771   7.013 -0.6368 -3.2419 -2.8191
   40CHL1  H19B 2928   3.461   4.787   7.190 -2.3351  0.3461 -0.2556
   40CHL1  H19C 2929   3.519   4.635   7.128 -1.7681 -2.1298 -0.8648
   40CHL1    C1 2930   3.306   4.546   6.997  0.2918  0.6501  0.4057
   40CHL1   H1A 2931   3.380   4.477   7.043 -1.5509 -1.0403  0.9971
   40CHL1   H1B 2932   3.205   4.501   7.009  1.3464 -1.4118  2.6755
   40CHL1    C2 2933   3.337   4.581   6.848 -0.0853  0.2887 -0.2130
   40CHL1   H2A 2934   3.329   4.487   6.789 -0.8539 -1.1984  2.1386
   40CHL1   H2B 2935   3.436   4.631   6.841 -1.4261  3.4396  1.1407
   40CHL1   C20 2936   3.294   4.573   7.798 -0.4164 -0.9929 -0.0719
   40CHL1   H20 2937   3.372   4.649   7.823 -1.9781  0.8239 -0.5173
   40CHL1   C21 2938   3.353   4.431   7.768  0.1874  0.5645 -1.0818
   40CHL1  H21A 2939   3.439   4.440   7.698  1.3981 -2.2180 -0.0969
   40CHL1  H21B 2940   3.279   4.366   7.717  1.9031  0.2214 -3.3080
   40CHL1  H21C 2941   3.383   4.373   7.858  0.3954 -1.0522 -2.1490
   40CHL1   C22 2942   3.206   4.577   7.921  0.3694  0.1893 -0.2232
   40CHL1  H22A 2943   3.154   4.673   7.939  0.1082  0.1709 -0.8501
   40CHL1  H22B 2944   3.116   4.515   7.899  0.9596  0.1155 -2.7091
   40CHL1   C23 2945   3.265   4.519   8.051 -0.8894 -0.0319 -0.1542
   40CHL1  H23A 2946   3.182   4.509   8.124 -0.9990 -1.2541 -0.4217
   40CHL1  H23B 2947   3.303   4.416   8.033 -0.5103 -0.1732  1.2891
   40CHL1   C24 2948   3.379   4.605   8.110 -0.7149  0.5875 -1.0902
   40CHL1  H24A 2949   3.445   4.637   8.026 -1.5522  1.5372 -1.4118
   40CHL1  H24B 2950   3.344   4.691   8.171 -1.4598 -0.6018  0.2278
   40CHL1   C25 2951   3.468   4.529   8.224 -0.8261 -0.4261 -0.5820
   40CHL1   H25 2952   3.501   4.435   8.177 -1.2788  0.8505 -3.7577
   40CHL1   C26 2953   3.591   4.619   8.246  0.0978 -0.7696 -0.0919
   40CHL1  H26A 2954   3.666   4.625   8.165  2.1714 -0.3912  1.7560
   40CHL1  H26B 2955   3.556   4.717   8.284  0.9633 -0.2646 -0.5651
   40CHL1  H26C 2956   3.657   4.576   8.324 -0.0038  2.7155  2.1513
   40CHL1   C27 2957   3.388   4.508   8.349 -0.1666 -0.2408 -0.3011
   40CHL1  H27A 2958   3.351   4.601   8.397 -1.2397 -1.0091  0.4218
   40CHL1  H27B 2959   3.297   4.444   8.345  0.1925 -1.0198  2.1099
   40CHL1  H27C 2960   3.448   4.454   8.426  0.5520 -0.0973 -0.7479
   41CHL1    C3 2961   3.779   3.953   6.973 -0.3069  0.4550 -0.0490
   41CHL1    H3 2962   3.718   4.017   7.040 -1.8265 -1.4286  0.4303
   41CHL1    O3 2963   3.734   3.965   6.837 -0.1731 -0.0528 -0.2184
   41CHL1   H3' 2964   3.787   3.900   6.790  0.2673  0.8310 -0.9924
   41CHL1    C4 2965   3.922   4.005   6.969  0.9114  0.3548  0.3087
   41CHL1   H4A 2966   3.986   3.935   6.910 -0.7673 -0.1336 -1.0015
   41CHL1   H4B 2967   3.927   4.101   6.914  0.7799  0.7374  0.9602
   41CHL1    C5 2968   3.973   4.011   7.111 -0.4008  0.1237  0.2707
   41CHL1    C6 2969   4.001   4.127   7.169 -0.3966 -0.2592  0.7087
   41CHL1    H6 2970   4.001   4.224   7.118 -1.1623  0.5135  2.0996
   41CHL1    C7 2971   4.049   4.141   7.315 -0.2775 -0.2351  0.3403
   41CHL1   H7A 2972   4.138   4.207   7.325 -1.0949  0.8300  0.9005
   41CHL1   H7B 2973   3.962   4.184   7.370 -1.6479 -0.7173 -1.3898
   41CHL1    C8 2974   4.074   4.002   7.380  0.0534 -0.1879 -0.9278
   41CHL1    H8 2975   4.173   3.962   7.351 -0.1481 -1.5709  0.1438
   41CHL1   C14 2976   4.055   4.015   7.535 -0.3483  0.2427  0.3534
   41CHL1   H14 2977   3.952   4.052   7.554  0.1187  2.0148 -0.3705
   41CHL1   C15 2978   4.141   4.120   7.608  0.2245 -0.1591  0.1327
   41CHL1  H15A 2979   4.251   4.104   7.609  0.0534 -1.5422 -1.0185
   41CHL1  H15B 2980   4.121   4.222   7.567 -0.2580  0.4739  1.8550
   41CHL1   C16 2981   4.096   4.095   7.752 -0.2708 -0.1228  0.9407
   41CHL1  H16A 2982   4.183   4.103   7.821  0.7478  0.5833 -0.3755
   41CHL1  H16B 2983   4.008   4.158   7.777  0.4620  0.9341  0.9262
   41CHL1   C17 2984   4.047   3.947   7.750  0.2776 -1.0177 -0.9565
   41CHL1   H17 2985   3.936   3.947   7.755  0.2813 -0.6324 -0.8708
   41CHL1   C13 2986   4.073   3.888   7.613 -1.1772 -0.1982 -0.0230
   41CHL1   C18 2987   4.215   3.818   7.605  0.1163 -0.3272 -0.0442
   41CHL1  H18A 2988   4.276   3.881   7.674 -0.6271 -0.1615  0.4701
   41CHL1  H18B 2989   4.213   3.712   7.635 -0.2920 -1.0059 -2.2657
   41CHL1  H18C 2990   4.257   3.829   7.502  0.7146  1.4709  0.3454
   41CHL1   C12 2991   3.961   3.782   7.571  0.0317  0.8323 -0.4296
   41CHL1  H12A 2992   3.979   3.684   7.619  2.1087  1.1083 -0.5388
   41CHL1  H12B 2993   3.858   3.815   7.595 -1.3227 -3.6333  0.6468
   41CHL1   C11 2994   3.975   3.763   7.421  0.1005  0.5098  0.2913
   41CHL1  H11A 2995   4.075   3.718   7.406 -1.1007 -1.6771 -1.9235
   41CHL1  H11B 2996   3.900   3.690   7.383 -1.2277  1.9546  0.0517
   41CHL1    C9 2997   3.968   3.896   7.338  0.4290  0.3236  0.3371
   41CHL1    H9 2998   3.873   3.946   7.367 -0.1738  0.2581 -1.3823
   41CHL1   C10 2999   3.963   3.879   7.186  0.8927  0.5731 -0.1004
   41CHL1   C19 3000   4.078   3.788   7.139 -0.5753  0.2541 -0.2150
   41CHL1  H19A 3001   4.177   3.835   7.161 -0.5496 -0.0374  0.3323
   41CHL1  H19B 3002   4.079   3.690   7.191  0.0650  0.7693  0.7977
   41CHL1  H19C 3003   4.084   3.757   7.033 -2.8544  1.2321 -0.6722
   41CHL1    C1 3004   3.824   3.801   7.151 -0.8216 -0.9083  0.2609
   41CHL1   H1A 3005   3.835   3.694   7.179 -0.3634 -1.0825 -0.5409
   41CHL1   H1B 3006   3.752   3.848   7.222  1.6155  2.6651  0.6103
   41CHL1    C2 3007   3.778   3.807   7.006 -0.2166 -0.4954 -0.5789
   41CHL1   H2A 3008   3.681   3.756   6.984 -1.0455  1.2593 -1.1502
   41CHL1   H2B 3009   3.866   3.758   6.959 -0.0663 -0.3865 -0.4103
   41CHL1   C20 3010   4.091   3.868   7.875 -0.4936  0.1615  0.2318
   41CHL1   H20 3011   4.201   3.863   7.863 -0.6333 -0.6710 -0.8476
   41CHL1   C21 3012   4.033   3.725   7.892 -0.3127 -0.6818  0.0625
   41CHL1  H21A 3013   3.923   3.728   7.875 -0.0060  0.7553 -2.0336
   41CHL1  H21B 3014   4.055   3.676   7.990  0.1390 -0.5617  0.0225
   41CHL1  H21C 3015   4.076   3.668   7.807 -3.0581 -2.7225 -0.1089
   41CHL1   C22 3016   4.057   3.938   8.004 -0.0570 -0.2550  0.2469
   41CHL1  H22A 3017   4.086   4.046   8.001  3.9362 -1.2245 -1.3380
   41CHL1  H22B 3018   3.952   3.917   8.034  0.2260 -1.0964  0.6525
   41CHL1   C23 3019   4.149   3.905   8.127 -0.0316 -0.3279 -0.3784
   41CHL1  H23A 3020   4.130   3.798   8.152 -3.1437  0.4893  1.1379
   41CHL1  H23B 3021   4.255   3.924   8.099  0.3964 -0.3957  1.1425
   41CHL1   C24 3022   4.116   3.988   8.254 -0.2399 -0.0405  0.4914
   41CHL1  H24A 3023   4.116   4.097   8.234 -0.5965 -0.6125 -3.5192
   41CHL1  H24B 3024   4.011   3.957   8.271 -0.0597 -1.1815 -0.3539
   41CHL1   C25 3025   4.196   3.949   8.384  0.0053 -0.0699 -0.1867
   41CHL1   H25 3026   4.169   3.841   8.393  0.2277 -0.3249 -2.2258
   41CHL1   C26 3027   4.349   3.979   8.375 -0.0229 -0.0072 -0.0397
   41CHL1  H26A 3028   4.413   3.929   8.451  0.0348 -0.2909 -0.2737
   41CHL1  H26B 3029   4.382   3.955   8.272  0.3353 -0.1554  0.1057
   41CHL1  H26C 3030   4.364   4.088   8.391 -1.7691  0.1861  0.5070
   41CHL1   C27 3031   4.139   4.026   8.504 -0.3858 -0.4027 -0.3754
   41CHL1  H27A 3032   4.040   3.981   8.529 -0.2351  0.2397  1.4682
   41CHL1  H27B 3033   4.191   4.017   8.601 -2.4536 -1.2529  0.7215
   41CHL1  H27C 3034   4.121   4.134   8.485  0.0968 -0.4866 -1.3711
   42CHL1    C3 3035   5.751   0.701   6.926  0.7494  0.1167  1.3282
   42CHL1    H3 3036   5.726   0.597   6.955 -2.1840  0.1454 -0.6414
   42CHL1    O3 3037   5.740   0.703   6.780 -0.2309 -0.4861 -0.2694
   42CHL1   H3' 3038   5.775   0.788   6.750  0.0147 -0.1407  0.9611
   42CHL1    C4 3039   5.648   0.804   6.971 -0.8900  0.3388  0.0359
   42CHL1   H4A 3040   5.666   0.903   6.924 -0.9085  0.2490 -0.1612
   42CHL1   H4B 3041   5.546   0.773   6.940 -1.9481  2.1104  1.5646
   42CHL1    C5 3042   5.657   0.826   7.123 -0.4482  0.0962  0.2625
   42CHL1    C6 3043   5.545   0.829   7.193  0.7262 -0.8903  0.3278
   42CHL1    H6 3044   5.455   0.824   7.131  1.1436  1.2232 -0.5074
   42CHL1    C7 3045   5.532   0.855   7.341 -0.2349 -0.8203 -0.3375
   42CHL1   H7A 3046   5.450   0.930   7.346  0.2445 -0.3727  2.0334
   42CHL1   H7B 3047   5.498   0.766   7.398  1.0600 -2.1494 -1.5606
   42CHL1    C8 3048   5.657   0.925   7.408 -0.0826 -0.5727  0.7412
   42CHL1    H8 3049   5.665   1.032   7.380  0.7671 -1.2724 -2.0289
   42CHL1   C14 3050   5.659   0.899   7.555 -0.7339 -0.1550 -0.8818
   42CHL1   H14 3051   5.650   0.790   7.572  3.8596 -0.3847  1.3578
   42CHL1   C15 3052   5.535   0.959   7.634  0.1203 -0.9740 -0.0649
   42CHL1  H15A 3053   5.536   1.065   7.599  1.2125 -0.3564  1.6619
   42CHL1  H15B 3054   5.439   0.909   7.611 -0.9379  1.8221 -2.3061
   42CHL1   C16 3055   5.588   0.947   7.779 -0.1639  0.2895  0.4551
   42CHL1  H16A 3056   5.590   1.045   7.830  1.2127 -0.3695  1.7206
   42CHL1  H16B 3057   5.530   0.865   7.827  0.0159 -1.4351 -2.0289
   42CHL1   C17 3058   5.731   0.899   7.779 -0.1659 -0.1555  0.3590
   42CHL1   H17 3059   5.737   0.788   7.780 -0.6285 -0.1763  1.3801
   42CHL1   C13 3060   5.787   0.943   7.634 -0.2843  1.1331 -0.1451
   42CHL1   C18 3061   5.797   1.104   7.628  0.3263  0.6260  0.0306
   42CHL1  H18A 3062   5.893   1.140   7.671  1.5656  0.5158 -2.4390
   42CHL1  H18B 3063   5.790   1.139   7.523  0.0818 -0.7756 -0.4453
   42CHL1  H18C 3064   5.712   1.148   7.684 -0.1453 -1.3009  0.9203
   42CHL1   C12 3065   5.907   0.868   7.573 -0.5876  0.2172 -0.3479
   42CHL1  H12A 3066   6.003   0.899   7.617 -2.6304  1.0987  4.0056
   42CHL1  H12B 3067   5.904   0.761   7.604  2.7576  0.6998  2.1328
   42CHL1   C11 3068   5.911   0.901   7.426  0.1271 -0.0775 -0.1445
   42CHL1  H11A 3069   5.943   1.006   7.405  0.9731  0.4475  3.2865
   42CHL1  H11B 3070   5.997   0.843   7.386  0.3978  1.3680 -1.8049
   42CHL1    C9 3071   5.784   0.857   7.350  0.3562  0.2309 -0.1950
   42CHL1    H9 3072   5.767   0.752   7.382  1.5282  0.5251  1.5119
   42CHL1   C10 3073   5.797   0.867   7.184 -0.4366 -0.0289 -0.1839
   42CHL1   C19 3074   5.845   1.011   7.138 -0.5397  0.3324  0.5204
   42CHL1  H19A 3075   5.946   1.026   7.183 -1.1991 -0.4765  2.3685
   42CHL1  H19B 3076   5.846   1.024   7.028 -1.3724 -2.2012  0.1678
   42CHL1  H19C 3077   5.774   1.085   7.181 -1.7563 -0.9371  0.7881
   42CHL1    C1 3078   5.894   0.768   7.126 -0.0711 -0.1745 -0.0613
   42CHL1   H1A 3079   6.000   0.792   7.148 -0.5015 -0.5230  2.6476
   42CHL1   H1B 3080   5.867   0.673   7.176  0.0012 -0.5630 -0.7466
   42CHL1    C2 3081   5.887   0.754   6.970 -0.6067 -0.3733 -0.5434
   42CHL1   H2A 3082   5.958   0.678   6.930 -1.9234 -0.8023 -2.2125
   42CHL1   H2B 3083   5.901   0.853   6.922  2.1653  1.4186  3.4011
   42CHL1   C20 3084   5.818   0.937   7.900 -0.1764 -0.0734  0.5095
   42CHL1   H20 3085   5.830   1.047   7.908 -0.3187 -0.1089  1.2421
   42CHL1   C21 3086   5.957   0.873   7.894 -0.0318  0.1135 -0.1410
   42CHL1  H21A 3087   6.015   0.922   7.813 -1.7230 -1.8255 -2.6969
   42CHL1  H21B 3088   5.948   0.762   7.897 -0.8377  0.1907  1.6685
   42CHL1  H21C 3089   6.014   0.903   7.984  2.6511 -0.1996 -1.6308
   42CHL1   C22 3090   5.752   0.909   8.040 -0.0647  0.5959  0.0387
   42CHL1  H22A 3091   5.820   0.943   8.121  0.6243  0.5976 -0.5250
   42CHL1  H22B 3092   5.662   0.973   8.048  0.2508  1.2485 -1.1864
   42CHL1   C23 3093   5.721   0.755   8.051  0.7256  0.1965 -0.1082
   42CHL1  H23A 3094   5.647   0.725   7.974  1.5251 -0.8535 -0.4930
   42CHL1  H23B 3095   5.811   0.694   8.027  0.0311 -0.5547 -0.8459
   42CHL1   C24 3096   5.666   0.726   8.191  0.3543 -0.4326  0.0167
   42CHL1  H24A 3097   5.727   0.789   8.260  2.1644 -0.0716 -1.8285
   42CHL1  H24B 3098   5.560   0.760   8.201  1.0130  1.6315  0.6787
   42CHL1   C25 3099   5.675   0.576   8.216  0.5412 -0.2343 -0.6440
   42CHL1   H25 3100   5.771   0.530   8.183  2.1660  0.4472  2.6407
   42CHL1   C26 3101   5.663   0.535   8.365  0.5566  0.4616  0.7340
   42CHL1  H26A 3102   5.751   0.560   8.428  1.5033 -0.7993 -0.0325
   42CHL1  H26B 3103   5.569   0.576   8.407 -0.1219 -2.5324  2.4576
   42CHL1  H26C 3104   5.639   0.427   8.376 -2.7106  0.8104 -1.3739
   42CHL1   C27 3105   5.579   0.493   8.127 -0.3989 -0.2591  0.2527
   42CHL1  H27A 3106   5.584   0.528   8.021 -2.4475  1.2063  0.5757
   42CHL1  H27B 3107   5.478   0.520   8.164  0.0763  0.1299  1.3020
   42CHL1  H27C 3108   5.614   0.390   8.148  1.8632  0.1900 -0.9714
   43CHL1    C3 3109   5.356   5.421   6.794 -0.2478  0.8408  0.1191
   43CHL1    H3 3110   5.273   5.494   6.789 -0.9856  0.0780  0.8649
   43CHL1    O3 3111   5.413   5.416   6.667 -0.0314 -0.0269 -0.2613
   43CHL1   H3' 3112   5.416   5.321   6.655 -2.7865 -0.4255  1.2891
   43CHL1    C4 3113   5.466   5.465   6.889 -0.1462  0.5046 -0.4283
   43CHL1   H4A 3114   5.567   5.423   6.868  0.5212  1.9873 -0.3043
   43CHL1   H4B 3115   5.484   5.569   6.855  1.4857  0.4919  0.3195
   43CHL1    C5 3116   5.426   5.460   7.032  0.0737 -0.4691  0.7308
   43CHL1    C6 3117   5.448   5.560   7.117  0.0308  0.9387  0.5769
   43CHL1    H6 3118   5.502   5.651   7.089  2.0365 -0.0359  1.0693
   43CHL1    C7 3119   5.415   5.561   7.260 -0.3000 -0.5575 -0.0900
   43CHL1   H7A 3120   5.501   5.600   7.318 -1.1349  3.7110 -1.3707
   43CHL1   H7B 3121   5.334   5.631   7.290  0.6902 -0.5875  2.9451
   43CHL1    C8 3122   5.389   5.423   7.315 -0.2059  0.1990  0.5163
   43CHL1    H8 3123   5.486   5.370   7.320 -1.1234 -1.4738  1.6465
   43CHL1   C14 3124   5.320   5.434   7.451  0.4811 -0.4748  0.0955
   43CHL1   H14 3125   5.222   5.486   7.435  0.6117  0.4695  2.0610
   43CHL1   C15 3126   5.377   5.517   7.569  0.2322 -0.0622  0.0435
   43CHL1  H15A 3127   5.487   5.513   7.580  0.0716 -0.4955  1.8201
   43CHL1  H15B 3128   5.345   5.623   7.561 -0.8126 -0.5177 -3.5809
   43CHL1   C16 3129   5.310   5.464   7.696  0.1004  0.0454  0.5105
   43CHL1  H16A 3130   5.396   5.431   7.758 -1.0120  0.5140  2.3530
   43CHL1  H16B 3131   5.252   5.538   7.754 -5.9359 -4.2655  0.8962
   43CHL1   C17 3132   5.226   5.347   7.650 -0.2069  0.5446  0.5056
   43CHL1   H17 3133   5.125   5.391   7.633  0.1847  1.2370 -0.1021
   43CHL1   C13 3134   5.283   5.300   7.516 -0.4576 -0.6076  0.1753
   43CHL1   C18 3135   5.420   5.234   7.543 -0.4374  0.6278 -0.0375
   43CHL1  H18A 3136   5.491   5.303   7.595 -2.1960  1.9136  0.7617
   43CHL1  H18B 3137   5.415   5.135   7.592  1.6558  0.4607 -0.0843
   43CHL1  H18C 3138   5.471   5.201   7.450  0.5269 -1.9519  1.3212
   43CHL1   C12 3139   5.202   5.222   7.413  0.2380  0.4357 -0.2098
   43CHL1  H12A 3140   5.174   5.128   7.466  1.7427  0.2741  0.3742
   43CHL1  H12B 3141   5.110   5.283   7.405  0.4398  0.5461 -1.9729
   43CHL1   C11 3142   5.255   5.204   7.272  0.1286 -0.7507  0.6859
   43CHL1  H11A 3143   5.341   5.135   7.280 -0.8340 -2.6414 -2.9072
   43CHL1  H11B 3144   5.175   5.161   7.208  0.0606  0.7755 -0.2949
   43CHL1    C9 3145   5.301   5.341   7.217 -0.8013  0.1869 -0.1474
   43CHL1    H9 3146   5.213   5.408   7.204  0.7871  1.8134 -4.1968
   43CHL1   C10 3147   5.359   5.329   7.074  0.5403 -0.1738  0.6760
   43CHL1   C19 3148   5.481   5.228   7.074  0.2941 -0.1495  0.7931
   43CHL1  H19A 3149   5.543   5.247   7.165 -0.4530  0.0372  1.2654
   43CHL1  H19B 3150   5.436   5.128   7.090 -0.8216  0.2291  0.0455
   43CHL1  H19C 3151   5.551   5.219   6.988  1.8360 -0.0618  1.9825
   43CHL1    C1 3152   5.249   5.286   6.980 -0.2661  0.8275 -0.8524
   43CHL1   H1A 3153   5.199   5.190   7.002 -1.1832  1.1402 -1.5046
   43CHL1   H1B 3154   5.176   5.370   6.989 -0.8571  0.1664  0.9212
   43CHL1    C2 3155   5.295   5.282   6.827 -0.4052 -0.1265  0.0020
   43CHL1   H2A 3156   5.203   5.281   6.765  0.6662  0.5855 -1.6471
   43CHL1   H2B 3157   5.355   5.191   6.804 -0.4358 -0.0332 -0.4491
   43CHL1   C20 3158   5.208   5.246   7.768  0.1689  0.1228  0.0478
   43CHL1   H20 3159   5.308   5.217   7.809 -0.2284 -0.6144  0.5081
   43CHL1   C21 3160   5.126   5.120   7.726  0.1272 -0.0030  0.7474
   43CHL1  H21A 3161   5.113   5.044   7.806  1.6823 -1.4126 -0.2748
   43CHL1  H21B 3162   5.175   5.064   7.644  0.3773  0.1435  0.7938
   43CHL1  H21C 3163   5.027   5.155   7.691  0.9515  0.0260 -1.7764
   43CHL1   C22 3164   5.132   5.320   7.880 -0.5771  0.2543  0.1610
   43CHL1  H22A 3165   5.194   5.398   7.929  0.9024 -0.3935 -0.6167
   43CHL1  H22B 3166   5.044   5.371   7.835  0.1513  0.0178 -1.6223
   43CHL1   C23 3167   5.070   5.240   7.998 -0.4448  0.8141  0.2245
   43CHL1  H23A 3168   4.996   5.166   7.961 -1.2515  1.9234 -0.4286
   43CHL1  H23B 3169   5.149   5.177   8.045  1.2283  1.0930 -2.0147
   43CHL1   C24 3170   5.009   5.341   8.104 -1.0252 -0.5475  0.0400
   43CHL1  H24A 3171   5.085   5.415   8.135  0.5618 -1.9080 -0.4817
   43CHL1  H24B 3172   4.927   5.399   8.057  0.8464  0.1440 -2.5655
   43CHL1   C25 3173   4.955   5.280   8.235  0.5738  0.3365 -0.0763
   43CHL1   H25 3174   5.037   5.249   8.303  0.2938 -0.9130 -0.2810
   43CHL1   C26 3175   4.885   5.394   8.312  0.8831 -0.7355  0.4051
   43CHL1  H26A 3176   4.782   5.406   8.272  1.2325  1.1079 -0.0206
   43CHL1  H26B 3177   4.889   5.359   8.417 -0.3729 -3.0268 -0.2392
   43CHL1  H26C 3178   4.940   5.488   8.292  1.3851 -0.8964  0.9970
   43CHL1   C27 3179   4.858   5.162   8.206 -0.7345  0.0462  0.2747
   43CHL1  H27A 3180   4.772   5.190   8.142 -0.3618 -0.0442 -0.2748
   43CHL1  H27B 3181   4.900   5.084   8.139 -0.5756 -0.6703  1.1834
   43CHL1  H27C 3182   4.829   5.115   8.302 -1.7546  0.7631  0.3320
   44CHL1    C3 3183   5.002   4.838   6.541 -0.3884 -0.2834  0.6183
   44CHL1    H3 3184   5.100   4.829   6.489 -0.5851  1.7303 -0.1856
   44CHL1    O3 3185   4.914   4.861   6.427  0.1139  0.0654 -0.5247
   44CHL1   H3' 3186   4.827   4.887   6.459 -0.7978 -1.0207 -2.0034
   44CHL1    C4 3187   4.971   4.705   6.601 -0.0629  0.3986  0.2287
   44CHL1   H4A 3188   4.865   4.710   6.636  0.8732  0.7378  3.2928
   44CHL1   H4B 3189   4.987   4.621   6.530 -1.4793 -0.6102  1.0409
   44CHL1    C5 3190   5.048   4.682   6.730  0.0142  0.4287  0.4677
   44CHL1    C6 3191   5.103   4.565   6.761 -0.0061  0.6731  0.0751
   44CHL1    H6 3192   5.110   4.487   6.683 -1.1923  0.9160 -0.3023
   44CHL1    C7 3193   5.164   4.527   6.890 -0.6186  0.4436 -0.4606
   44CHL1   H7A 3194   5.139   4.423   6.918  1.6077 -0.2174 -0.7241
   44CHL1   H7B 3195   5.271   4.516   6.860 -1.1850  1.4727 -3.1872
   44CHL1    C8 3196   5.136   4.628   7.001  0.1062 -0.1273 -0.5547
   44CHL1    H8 3197   5.035   4.613   7.046  0.2728  1.1007  0.2668
   44CHL1   C14 3198   5.248   4.623   7.109 -0.7331 -0.2072 -0.8545
   44CHL1   H14 3199   5.338   4.670   7.065  0.7311 -1.3107  0.7904
   44CHL1   C15 3200   5.306   4.491   7.149 -0.7969  0.7717 -0.3345
   44CHL1  H15A 3201   5.228   4.414   7.169  1.1866 -0.9648  1.1999
   44CHL1  H15B 3202   5.365   4.437   7.072 -0.5253 -1.0173  1.0468
   44CHL1   C16 3203   5.377   4.512   7.286  0.0242 -0.0515  0.3833
   44CHL1  H16A 3204   5.347   4.440   7.366  0.3473 -0.0722  0.4909
   44CHL1  H16B 3205   5.488   4.506   7.281  0.0190  0.4693 -0.4554
   44CHL1   C17 3206   5.340   4.660   7.330 -0.1531  0.5592  0.3349
   44CHL1   H17 3207   5.419   4.734   7.303  1.0298 -1.2942 -1.6041
   44CHL1   C13 3208   5.213   4.691   7.239  0.1072 -0.2939  0.0196
   44CHL1   C18 3209   5.087   4.634   7.321  0.6132  0.1739 -0.3943
   44CHL1  H18A 3210   4.989   4.649   7.272 -0.1429 -1.5336  0.4987
   44CHL1  H18B 3211   5.097   4.528   7.350 -1.4586 -0.1863 -0.8315
   44CHL1  H18C 3212   5.079   4.696   7.413 -0.5179 -2.5924  1.5078
   44CHL1   C12 3213   5.203   4.838   7.192 -0.2058 -0.1442  0.2701
   44CHL1  H12A 3214   5.161   4.893   7.278 -1.5052 -0.0070 -0.4120
   44CHL1  H12B 3215   5.303   4.879   7.169 -0.9155  2.6448  1.7545
   44CHL1   C11 3216   5.106   4.859   7.077  0.3117 -0.1362  0.2934
   44CHL1  H11A 3217   5.003   4.841   7.114  0.1082  0.1415 -0.1291
   44CHL1  H11B 3218   5.103   4.967   7.050  1.0296 -0.0517  0.5361
   44CHL1    C9 3219   5.132   4.772   6.951 -0.8433  0.1699  0.1630
   44CHL1    H9 3220   5.233   4.798   6.910 -1.8271  2.1619 -1.2013
   44CHL1   C10 3221   5.032   4.799   6.831  0.0959 -0.4725 -0.6563
   44CHL1   C19 3222   4.884   4.804   6.883 -0.3262  0.4329 -0.1404
   44CHL1  H19A 3223   4.847   4.707   6.922 -2.6528  1.1008 -0.4968
   44CHL1  H19B 3224   4.873   4.878   6.965 -0.7855 -2.3180  2.4582
   44CHL1  H19C 3225   4.815   4.832   6.800  0.8140  2.7720 -0.3660
   44CHL1    C1 3226   5.069   4.928   6.765 -0.8796 -0.5173  0.7872
   44CHL1   H1A 3227   5.047   5.008   6.838 -3.0205  0.0207 -0.3621
   44CHL1   H1B 3228   5.177   4.931   6.739 -0.6547  3.8564  1.5684
   44CHL1    C2 3229   4.990   4.954   6.637  0.5579 -0.0108 -0.6171
   44CHL1   H2A 3230   5.034   5.047   6.596 -1.0591  1.3718  0.6378
   44CHL1   H2B 3231   4.880   4.966   6.651  0.6111 -0.1562 -0.0334
   44CHL1   C20 3232   5.320   4.671   7.487 -0.1431 -0.2648  0.3389
   44CHL1   H20 3233   5.239   4.605   7.523 -0.0357 -0.5661  0.0321
   44CHL1   C21 3234   5.291   4.818   7.531  0.4078  0.2817  0.3925
   44CHL1  H21A 3235   5.280   4.821   7.641 -0.4827  2.2779  0.3072
   44CHL1  H21B 3236   5.206   4.863   7.475 -1.0021 -0.9081  1.4846
   44CHL1  H21C 3237   5.378   4.882   7.505  0.1841  0.9227  1.1772
   44CHL1   C22 3238   5.442   4.612   7.561 -0.1453 -0.2822 -0.0224
   44CHL1  H22A 3239   5.458   4.505   7.536  2.2233 -0.7548  2.9847
   44CHL1  H22B 3240   5.531   4.670   7.531 -1.4098  0.6722 -2.1773
   44CHL1   C23 3241   5.428   4.608   7.714  0.9357  0.6569 -0.9463
   44CHL1  H23A 3242   5.401   4.704   7.763  0.1933 -1.7753  4.1025
   44CHL1  H23B 3243   5.346   4.533   7.727  3.6102 -2.5338 -1.2126
   44CHL1   C24 3244   5.565   4.564   7.772  0.2147  0.0144  0.0831
   44CHL1  H24A 3245   5.576   4.469   7.716 -2.3527 -0.5820  0.4664
   44CHL1  H24B 3246   5.648   4.628   7.733  0.0082 -0.8513 -1.9123
   44CHL1   C25 3247   5.566   4.539   7.927  0.5061  0.8624  0.6288
   44CHL1   H25 3248   5.483   4.467   7.944  1.2400 -0.5490 -1.4187
   44CHL1   C26 3249   5.689   4.460   7.965  0.2789  0.0257  0.2599
   44CHL1  H26A 3250   5.679   4.440   8.074 -1.1391  2.7554  0.7233
   44CHL1  H26B 3251   5.689   4.375   7.893 -2.0447  0.4365 -0.3253
   44CHL1  H26C 3252   5.771   4.534   7.960 -1.0982  1.5708 -0.4981
   44CHL1   C27 3253   5.533   4.666   8.015  0.7470 -0.1109 -0.8035
   44CHL1  H27A 3254   5.630   4.721   8.014  1.0753 -0.6143 -3.1766
   44CHL1  H27B 3255   5.457   4.741   7.983  1.5367  2.2199  2.2185
   44CHL1  H27C 3256   5.514   4.637   8.120  2.7035 -1.3040 -0.7316
   45CHL1    C3 3257   5.924   1.920   6.596  0.7075  0.2064 -1.1494
   45CHL1    H3 3258   5.815   1.908   6.579  0.4951  1.4881 -0.7954
   45CHL1    O3 3259   5.987   1.919   6.464 -0.4395  0.7781 -0.3168
   45CHL1   H3' 3260   6.081   1.922   6.483  0.0034 -0.0502 -2.1608
   45CHL1    C4 3261   5.939   2.064   6.660 -0.0258 -0.2637 -0.3550
   45CHL1   H4A 3262   6.039   2.107   6.638  0.2098 -0.0142  1.0879
   45CHL1   H4B 3263   5.869   2.121   6.595 -2.0752  0.6395  2.4501
   45CHL1    C5 3264   5.894   2.072   6.807 -0.6544  1.0249  0.7574
   45CHL1    C6 3265   5.804   2.166   6.850  0.1561  0.4906 -0.7479
   45CHL1    H6 3266   5.777   2.246   6.778  1.6924 -0.3205 -2.2968
   45CHL1    C7 3267   5.751   2.174   6.989 -0.2317 -0.5757  0.5390
   45CHL1   H7A 3268   5.737   2.278   7.028 -0.2934 -0.3221 -0.1470
   45CHL1   H7B 3269   5.647   2.136   6.982  0.5222 -2.4253 -1.7609
   45CHL1    C8 3270   5.839   2.098   7.088  0.4988 -0.4203  0.9302
   45CHL1    H8 3271   5.927   2.161   7.115  0.5074  0.7688 -1.5437
   45CHL1   C14 3272   5.763   2.077   7.219 -0.4945 -0.2318 -0.4638
   45CHL1   H14 3273   5.673   2.018   7.190  0.5033 -1.8759 -0.3543
   45CHL1   C15 3274   5.706   2.202   7.288  0.2351 -0.2930 -0.3208
   45CHL1  H15A 3275   5.775   2.289   7.278 -2.2255  1.8912  0.4189
   45CHL1  H15B 3276   5.609   2.227   7.241  1.9215  4.2340 -1.9549
   45CHL1   C16 3277   5.696   2.159   7.438 -0.5279  0.3939  0.3009
   45CHL1  H16A 3278   5.781   2.212   7.485  2.1803  0.1466 -3.7708
   45CHL1  H16B 3279   5.603   2.195   7.486 -1.2629 -1.6076  0.4966
   45CHL1   C17 3280   5.721   2.003   7.441 -0.4787 -0.4262  0.2188
   45CHL1   H17 3281   5.626   1.967   7.397  0.6896 -1.9180 -1.1798
   45CHL1   C13 3282   5.827   1.992   7.324 -0.1755  0.3246  0.4563
   45CHL1   C18 3283   5.963   2.050   7.370 -0.7032 -0.6129  0.0726
   45CHL1  H18A 3284   5.952   2.156   7.400 -0.0833 -1.0017  1.7956
   45CHL1  H18B 3285   6.003   2.017   7.469  1.4843 -1.3200 -0.9898
   45CHL1  H18C 3286   6.040   2.056   7.291 -1.6598 -1.6950 -0.9648
   45CHL1   C12 3287   5.852   1.855   7.264 -0.1436  0.2687 -0.7346
   45CHL1  H12A 3288   5.916   1.796   7.333  0.4472  1.5938 -0.1026
   45CHL1  H12B 3289   5.765   1.792   7.237 -0.8092  0.8112  0.0906
   45CHL1   C11 3290   5.933   1.866   7.133 -0.2529 -0.5092 -0.1468
   45CHL1  H11A 3291   6.036   1.894   7.164 -0.9272  0.0024  1.7623
   45CHL1  H11B 3292   5.935   1.763   7.092  0.9568 -0.5995  0.1062
   45CHL1    C9 3293   5.877   1.962   7.031 -0.3977 -0.7113  0.5852
   45CHL1    H9 3294   5.775   1.921   7.018 -0.6749  0.2624 -0.5458
   45CHL1   C10 3295   5.947   1.961   6.894 -0.6740 -0.2391 -0.0461
   45CHL1   C19 3296   6.097   1.989   6.915 -0.0874 -0.1522 -0.1200
   45CHL1  H19A 3297   6.135   1.901   6.971  0.5515  0.8712  1.1078
   45CHL1  H19B 3298   6.158   1.993   6.822 -1.0157 -0.9548 -0.7860
   45CHL1  H19C 3299   6.111   2.089   6.960 -2.1439  0.3025 -0.3727
   45CHL1    C1 3300   5.931   1.821   6.827  0.8168  0.1922 -0.6172
   45CHL1   H1A 3301   5.986   1.738   6.878 -0.5930 -0.6802 -0.4662
   45CHL1   H1B 3302   5.822   1.800   6.835  0.7748 -0.1732 -1.9804
   45CHL1    C2 3303   5.983   1.814   6.682 -0.0847  0.3172  0.3226
   45CHL1   H2A 3304   5.956   1.716   6.636 -0.1491  0.4490  0.0744
   45CHL1   H2B 3305   6.092   1.821   6.666  0.0089  0.0600  0.8298
   45CHL1   C20 3306   5.752   1.930   7.579  0.1378 -0.4867 -0.2035
   45CHL1   H20 3307   5.828   1.850   7.575  0.9335  0.2629 -0.2493
   45CHL1   C21 3308   5.611   1.874   7.608  0.9848 -0.0324  0.5423
   45CHL1  H21A 3309   5.597   1.848   7.715  0.5979  0.2779  0.5727
   45CHL1  H21B 3310   5.595   1.795   7.532  2.4964  0.7534 -0.6476
   45CHL1  H21C 3311   5.534   1.949   7.579  0.2261 -1.6074 -1.7970
   45CHL1   C22 3312   5.797   2.022   7.697 -0.0773 -0.2161 -0.0503
   45CHL1  H22A 3313   5.877   2.096   7.674 -0.0337  1.1457  3.6970
   45CHL1  H22B 3314   5.711   2.077   7.741  0.3668  0.2717  0.2365
   45CHL1   C23 3315   5.846   1.948   7.830 -0.0723 -0.0710  0.4045
   45CHL1  H23A 3316   5.758   1.884   7.851  1.9265 -3.0931  0.2090
   45CHL1  H23B 3317   5.924   1.872   7.805 -0.7236 -0.8084  0.5748
   45CHL1   C24 3318   5.905   2.034   7.936  0.2637  0.2208  0.1432
   45CHL1  H24A 3319   6.011   2.061   7.918  0.4058  1.0737  1.9707
   45CHL1  H24B 3320   5.866   2.139   7.934 -0.5174  0.0122 -3.6996
   45CHL1   C25 3321   5.899   1.989   8.079 -1.2864  0.4119  0.1685
   45CHL1   H25 3322   5.798   1.958   8.112 -0.7458 -1.4769  0.2118
   45CHL1   C26 3323   5.986   1.863   8.083 -0.0473 -0.1919 -0.8870
   45CHL1  H26A 3324   6.082   1.891   8.034  1.1559 -1.8338  0.4137
   45CHL1  H26B 3325   6.003   1.837   8.189  2.6098  0.2200 -1.1518
   45CHL1  H26C 3326   5.936   1.782   8.025  1.5779 -0.7282 -1.5846
   45CHL1   C27 3327   5.953   2.096   8.179 -0.0557  0.1575 -0.5612
   45CHL1  H27A 3328   5.886   2.184   8.175 -1.1959 -0.5096  1.8294
   45CHL1  H27B 3329   5.964   2.060   8.283  3.0904 -0.2618 -0.9282
   45CHL1  H27C 3330   6.058   2.115   8.148  0.2744 -1.8584 -0.8544
   46CHL1    C3 3331   6.435   3.406   6.997 -0.0957  0.3875  0.3639
   46CHL1    H3 3332   6.535   3.426   7.041  0.2565 -0.2344 -0.1582
   46CHL1    O3 3333   6.432   3.379   6.858  0.6593 -0.2782  0.4328
   46CHL1   H3' 3334   6.341   3.385   6.828  0.6900  1.0936  0.5598
   46CHL1    C4 3335   6.383   3.286   7.070  0.0116 -0.2637 -0.1299
   46CHL1   H4A 3336   6.293   3.252   7.014 -0.9395  0.6136  0.8197
   46CHL1   H4B 3337   6.447   3.198   7.046 -0.8997 -1.2112  0.8137
   46CHL1    C5 3338   6.363   3.302   7.220  0.0991  0.4973  0.3969
   46CHL1    C6 3339   6.413   3.206   7.301  0.0335 -0.7047  0.5889
   46CHL1    H6 3340   6.470   3.120   7.263 -1.5751 -1.8200  0.6588
   46CHL1    C7 3341   6.395   3.212   7.450  0.0556 -0.4609 -0.7792
   46CHL1   H7A 3342   6.354   3.118   7.493  1.6262 -0.5717  0.5837
   46CHL1   H7B 3343   6.492   3.203   7.504 -0.8457 -0.5957  0.8670
   46CHL1    C8 3344   6.298   3.327   7.501  0.7408 -0.1870 -0.1095
   46CHL1    H8 3345   6.200   3.275   7.490 -0.3087  1.1834  2.0363
   46CHL1   C14 3346   6.317   3.364   7.648 -0.7259 -0.2721  0.0107
   46CHL1   H14 3347   6.417   3.413   7.654 -0.9545  0.2794 -0.5229
   46CHL1   C15 3348   6.326   3.244   7.745 -0.2857 -0.2088  0.1561
   46CHL1  H15A 3349   6.244   3.169   7.739 -0.4369 -0.0982  0.8694
   46CHL1  H15B 3350   6.421   3.186   7.742 -0.0981 -0.1567  3.0163
   46CHL1   C16 3351   6.326   3.319   7.881 -0.0121 -0.6623 -0.5038
   46CHL1  H16A 3352   6.260   3.260   7.948  1.5819 -1.0738  0.7385
   46CHL1  H16B 3353   6.429   3.323   7.921 -0.2584  0.8045  0.0689
   46CHL1   C17 3354   6.280   3.466   7.849 -0.4268  0.1088  0.2127
   46CHL1   H17 3355   6.378   3.519   7.849  0.1826 -0.9861  0.6176
   46CHL1   C13 3356   6.221   3.467   7.708  0.7185 -0.2231  0.1024
   46CHL1   C18 3357   6.084   3.402   7.725 -0.7241  0.2245  0.3326
   46CHL1  H18A 3358   6.093   3.318   7.797  1.5397 -0.8061 -1.0434
   46CHL1  H18B 3359   6.005   3.469   7.765  0.0622  1.2213  0.2366
   46CHL1  H18C 3360   6.065   3.363   7.622  2.2020  0.2857 -0.3275
   46CHL1   C12 3361   6.216   3.594   7.621 -0.3024 -0.1319  0.6186
   46CHL1  H12A 3362   6.145   3.668   7.662 -0.1427  0.4202 -0.0809
   46CHL1  H12B 3363   6.318   3.637   7.633 -0.5329  0.0350  2.2982
   46CHL1   C11 3364   6.187   3.558   7.472  0.3571  0.0901  0.3453
   46CHL1  H11A 3365   6.087   3.511   7.480  0.5257 -0.0521  2.1146
   46CHL1  H11B 3366   6.186   3.654   7.416 -3.0976 -1.6343 -2.9227
   46CHL1    C9 3367   6.293   3.456   7.414 -0.3950 -0.2002 -0.4218
   46CHL1    H9 3368   6.392   3.507   7.420 -0.3706 -0.3526  0.6610
   46CHL1   C10 3369   6.281   3.423   7.264 -0.2922  0.2519 -0.2629
   46CHL1   C19 3370   6.138   3.383   7.229  0.5129  0.7392  0.4906
   46CHL1  H19A 3371   6.123   3.290   7.287  3.0698  1.0640  1.8658
   46CHL1  H19B 3372   6.069   3.468   7.248  1.5978  1.7567  0.0144
   46CHL1  H19C 3373   6.123   3.354   7.123 -0.0804 -0.9690  1.0123
   46CHL1    C1 3374   6.320   3.551   7.180 -0.0602 -0.4270 -0.0499
   46CHL1   H1A 3375   6.257   3.641   7.197  0.1598  0.1870 -2.1948
   46CHL1   H1B 3376   6.416   3.591   7.218 -0.0121 -1.0129  0.4649
   46CHL1    C2 3377   6.336   3.521   7.028  0.8668 -0.3994 -0.1088
   46CHL1   H2A 3378   6.376   3.609   6.972  1.3199  1.4020  2.8205
   46CHL1   H2B 3379   6.239   3.487   6.986  0.2016  2.3762 -1.0133
   46CHL1   C20 3380   6.205   3.524   7.974  0.5698 -0.6850  0.4229
   46CHL1   H20 3381   6.099   3.495   7.982  0.4320 -0.0686  1.0067
   46CHL1   C21 3382   6.210   3.678   7.964 -0.4653 -0.3226 -0.1124
   46CHL1  H21A 3383   6.208   3.729   8.062 -1.4748 -1.9518  0.7617
   46CHL1  H21B 3384   6.126   3.724   7.906 -0.6340  1.5591  1.5088
   46CHL1  H21C 3385   6.309   3.710   7.926 -0.8208 -1.9264 -2.6061
   46CHL1   C22 3386   6.269   3.491   8.118  0.2365 -0.6280  0.1854
   46CHL1  H22A 3387   6.207   3.548   8.191  2.6479  0.6377  1.3733
   46CHL1  H22B 3388   6.263   3.382   8.136  1.3019 -0.4899  1.5675
   46CHL1   C23 3389   6.407   3.536   8.128 -0.1216 -0.4946 -0.5070
   46CHL1  H23A 3390   6.473   3.497   8.047 -0.6017  2.5884 -2.5519
   46CHL1  H23B 3391   6.413   3.645   8.106  0.4562 -0.3325  0.4372
   46CHL1   C24 3392   6.473   3.498   8.262  0.1003 -0.1744 -0.3513
   46CHL1  H24A 3393   6.419   3.551   8.344  3.3021  3.3454 -0.2449
   46CHL1  H24B 3394   6.481   3.389   8.280  2.1033  0.0213  0.2362
   46CHL1   C25 3395   6.621   3.543   8.279 -0.9921 -0.0830 -0.4521
   46CHL1   H25 3396   6.631   3.652   8.258  0.0723  0.3597  1.9413
   46CHL1   C26 3397   6.689   3.518   8.413 -0.3969 -0.6231 -0.3787
   46CHL1  H26A 3398   6.632   3.559   8.499  0.9006 -0.9624  0.6866
   46CHL1  H26B 3399   6.705   3.410   8.432  0.7411 -0.3660  0.2464
   46CHL1  H26C 3400   6.792   3.562   8.407 -1.2286  1.4207 -0.6035
   46CHL1   C27 3401   6.712   3.473   8.182 -0.0080 -0.2043  0.3294
   46CHL1  H27A 3402   6.703   3.363   8.196  1.3684 -0.1613  1.8562
   46CHL1  H27B 3403   6.679   3.502   8.080 -1.3852 -0.9879  0.5213
   46CHL1  H27C 3404   6.820   3.496   8.188 -0.3782  1.4996  0.9479
   47CHL1    C3 3405   5.617   4.042   6.609 -0.6312 -0.1682  0.8761
   47CHL1    H3 3406   5.722   4.008   6.625 -0.5498 -0.4745 -0.2045
   47CHL1    O3 3407   5.608   4.074   6.465 -0.2741  0.0512 -0.4039
   47CHL1   H3' 3408   5.551   4.150   6.450 -0.9834 -0.0074  1.7006
   47CHL1    C4 3409   5.515   3.945   6.662  0.0398 -0.0901 -0.7057
   47CHL1   H4A 3410   5.418   3.990   6.630 -1.7797 -2.2905  1.3524
   47CHL1   H4B 3411   5.522   3.850   6.605  1.1960 -1.1199  1.0722
   47CHL1    C5 3412   5.508   3.935   6.813  0.3401 -0.3993 -1.2059
   47CHL1    C6 3413   5.512   3.820   6.873 -0.0982  0.9790  0.3304
   47CHL1    H6 3414   5.511   3.733   6.806 -0.7288  0.0696  1.4710
   47CHL1    C7 3415   5.503   3.803   7.023  0.2747  0.2596  0.5756
   47CHL1   H7A 3416   5.443   3.715   7.053  0.1913 -0.0685 -0.5253
   47CHL1   H7B 3417   5.606   3.788   7.062  0.0236 -1.4094  0.6746
   47CHL1    C8 3418   5.454   3.933   7.097 -0.6121  0.4437 -0.1580
   47CHL1    H8 3419   5.343   3.940   7.089 -0.8249  0.5464  2.1917
   47CHL1   C14 3420   5.493   3.912   7.242 -0.2306 -0.1480 -0.3364
   47CHL1   H14 3421   5.603   3.897   7.243 -0.1703  0.0814  1.7058
   47CHL1   C15 3422   5.450   3.787   7.331 -0.1082 -0.6612 -0.7525
   47CHL1  H15A 3423   5.344   3.757   7.315 -0.7364  0.8495  0.3859
   47CHL1  H15B 3424   5.526   3.707   7.317  0.1652 -0.2906 -1.4887
   47CHL1   C16 3425   5.466   3.840   7.477  0.1607  0.1223 -0.4345
   47CHL1  H16A 3426   5.367   3.832   7.525  1.8854  0.5348  3.6022
   47CHL1  H16B 3427   5.516   3.766   7.543 -2.5932 -0.0218  1.6364
   47CHL1   C17 3428   5.528   3.981   7.472  0.4377  0.2374  0.2585
   47CHL1   H17 3429   5.636   3.960   7.457  0.1526 -0.6949 -0.5696
   47CHL1   C13 3430   5.478   4.033   7.330  0.1406  0.1516 -0.2578
   47CHL1   C18 3431   5.327   4.064   7.348  0.5775 -0.0901  0.3810
   47CHL1  H18A 3432   5.271   3.972   7.374  0.8854  0.1063  1.8278
   47CHL1  H18B 3433   5.302   4.156   7.405  0.3048  0.1615 -0.1443
   47CHL1  H18C 3434   5.275   4.076   7.251 -0.5383 -0.4580  0.9245
   47CHL1   C12 3435   5.550   4.159   7.275  0.2235  0.6685 -0.4597
   47CHL1  H12A 3436   5.512   4.250   7.327 -1.2501  1.0114 -2.0311
   47CHL1  H12B 3437   5.660   4.160   7.287  0.1841  4.2982  1.0574
   47CHL1   C11 3438   5.507   4.171   7.126 -0.1289 -0.4085 -0.0197
   47CHL1  H11A 3439   5.400   4.198   7.133 -0.1801 -0.6223  0.0178
   47CHL1  H11B 3440   5.562   4.258   7.084  0.1641 -0.6230 -0.0880
   47CHL1    C9 3441   5.532   4.057   7.040  0.6517 -0.1757  0.3045
   47CHL1    H9 3442   5.641   4.035   7.050  0.4792 -0.2816  2.1810
   47CHL1   C10 3443   5.505   4.071   6.895 -0.6808 -0.5830 -0.2665
   47CHL1   C19 3444   5.362   4.147   6.879  0.3997  0.8546  0.1496
   47CHL1  H19A 3445   5.364   4.254   6.910  0.7662  1.4307 -1.6965
   47CHL1  H19B 3446   5.332   4.159   6.772 -1.1385 -0.4740  0.4036
   47CHL1  H19C 3447   5.294   4.080   6.935  2.2770 -2.2265 -1.0100
   47CHL1    C1 3448   5.617   4.155   6.830 -0.6344 -0.0678 -0.3518
   47CHL1   H1A 3449   5.608   4.256   6.876  2.0671  0.9675 -1.8787
   47CHL1   H1B 3450   5.717   4.111   6.850 -0.3380  0.1712 -1.2837
   47CHL1    C2 3451   5.603   4.173   6.678 -0.0991 -0.0314 -0.1648
   47CHL1   H2A 3452   5.688   4.240   6.655  1.4076 -1.6233  0.4843
   47CHL1   H2B 3453   5.503   4.216   6.658 -0.0846 -0.7688 -1.9922
   47CHL1   C20 3454   5.509   4.071   7.599  0.5425  0.5832  0.6386
   47CHL1   H20 3455   5.401   4.095   7.594  0.2316 -0.7073  0.9196
   47CHL1   C21 3456   5.607   4.194   7.601 -0.2661 -0.0636  0.5820
   47CHL1  H21A 3457   5.713   4.162   7.613 -0.4232 -1.0821 -0.5631
   47CHL1  H21B 3458   5.579   4.256   7.689 -1.4981 -0.2995  0.3785
   47CHL1  H21C 3459   5.595   4.260   7.513  0.1609  3.1478  2.7746
   47CHL1   C22 3460   5.536   3.993   7.734 -0.3335  0.0754 -0.3271
   47CHL1  H22A 3461   5.513   3.884   7.724  1.7186 -0.5061  0.8383
   47CHL1  H22B 3462   5.643   4.003   7.760 -0.8301  0.9769  1.5044
   47CHL1   C23 3463   5.445   4.048   7.846  0.4013  0.4591  0.1841
   47CHL1  H23A 3464   5.440   4.158   7.860 -1.4621  0.3542  0.6014
   47CHL1  H23B 3465   5.337   4.026   7.830 -0.0984  0.7909  2.7479
   47CHL1   C24 3466   5.484   3.983   7.981 -0.7494 -0.2574  0.2312
   47CHL1  H24A 3467   5.485   3.872   7.977 -1.3798 -0.3026  1.1473
   47CHL1  H24B 3468   5.589   4.013   8.003 -0.9097  1.7102 -1.3744
   47CHL1   C25 3469   5.387   4.016   8.099 -0.5247 -0.1202 -0.1650
   47CHL1   H25 3470   5.376   4.127   8.096  1.9554  0.1993  0.2815
   47CHL1   C26 3471   5.251   3.941   8.076  0.3308 -0.2095  0.0316
   47CHL1  H26A 3472   5.206   3.988   7.986  1.0947 -1.0683 -0.8286
   47CHL1  H26B 3473   5.275   3.836   8.048 -0.4121  0.2711 -2.7398
   47CHL1  H26C 3474   5.183   3.948   8.163  1.0850  0.6841  0.5671
   47CHL1   C27 3475   5.448   3.969   8.231  0.2273 -0.1286 -0.4970
   47CHL1  H27A 3476   5.550   4.009   8.250  0.5211 -1.7824  1.8952
   47CHL1  H27B 3477   5.387   4.011   8.314  0.9255 -0.1892  0.0566
   47CHL1  H27C 3478   5.435   3.859   8.243 -0.0253  0.1766  3.5403
   48CHL1    C3 3479   4.304   0.287   6.367 -0.3553 -0.4564 -0.2575
   48CHL1    H3 3480   4.259   0.387   6.350  1.0953  0.0156 -1.5403
   48CHL1    O3 3481   4.293   0.224   6.243 -0.4611  0.0452  0.2011
   48CHL1   H3' 3482   4.325   0.290   6.182 -0.4406  0.7226  0.9317
   48CHL1    C4 3483   4.449   0.300   6.409 -1.5718 -0.4423  0.1032
   48CHL1   H4A 3484   4.481   0.194   6.395 -0.5607 -0.2806  1.0349
   48CHL1   H4B 3485   4.511   0.362   6.341  2.2539 -1.5391  2.2561
   48CHL1    C5 3486   4.467   0.349   6.545  0.0300 -0.0875 -0.8908
   48CHL1    C6 3487   4.566   0.442   6.573  0.2744  0.0796  0.3813
   48CHL1    H6 3488   4.634   0.479   6.496 -1.0401 -0.5962 -1.1742
   48CHL1    C7 3489   4.603   0.497   6.712  0.1468  0.1547  0.7660
   48CHL1   H7A 3490   4.713   0.505   6.721 -0.1092  1.5170  3.4969
   48CHL1   H7B 3491   4.559   0.599   6.715 -0.9216 -0.2432 -0.3565
   48CHL1    C8 3492   4.541   0.414   6.825 -0.2678  0.1299 -1.0012
   48CHL1    H8 3493   4.610   0.330   6.847 -2.2011 -1.0824  0.8634
   48CHL1   C14 3494   4.541   0.488   6.958 -0.1296 -0.9079  0.0620
   48CHL1   H14 3495   4.475   0.577   6.952 -1.3096 -1.1842  4.8769
   48CHL1   C15 3496   4.684   0.531   7.001 -0.0587 -0.1645  0.5036
   48CHL1  H15A 3497   4.753   0.443   7.006 -0.9637 -0.8162  2.3129
   48CHL1  H15B 3498   4.730   0.614   6.942  1.7420 -0.0406  1.9810
   48CHL1   C16 3499   4.665   0.563   7.150  0.0562  0.1855  0.6076
   48CHL1  H16A 3500   4.736   0.497   7.205  0.1806 -1.2097 -1.1642
   48CHL1  H16B 3501   4.676   0.673   7.167  1.9474  0.4083 -1.5687
   48CHL1   C17 3502   4.520   0.512   7.187  0.1004  0.1448  0.5716
   48CHL1   H17 3503   4.452   0.599   7.173 -0.7780 -0.7236 -0.6899
   48CHL1   C13 3504   4.481   0.405   7.076 -0.2700 -0.0929  0.8004
   48CHL1   C18 3505   4.563   0.274   7.101  0.2796 -0.0286 -0.2123
   48CHL1  H18A 3506   4.662   0.282   7.151 -0.9117  1.8446  2.0357
   48CHL1  H18B 3507   4.505   0.213   7.173  0.2038  0.3594  0.0639
   48CHL1  H18C 3508   4.565   0.209   7.011 -2.0055  0.4208 -0.6435
   48CHL1   C12 3509   4.334   0.368   7.045  0.0910  0.1127  0.3035
   48CHL1  H12A 3510   4.286   0.317   7.131  1.4109  0.9513  1.5872
   48CHL1  H12B 3511   4.273   0.459   7.031  0.7541  0.3913 -0.8833
   48CHL1   C11 3512   4.331   0.286   6.912  0.1034 -0.2223  0.9234
   48CHL1  H11A 3513   4.363   0.180   6.927  0.9090 -0.4220 -1.8166
   48CHL1  H11B 3514   4.224   0.278   6.884  0.6795 -2.1995 -0.9550
   48CHL1    C9 3515   4.401   0.364   6.790  0.4806  0.3138  0.1802
   48CHL1    H9 3516   4.347   0.461   6.781  1.9352  1.2112  0.7589
   48CHL1   C10 3517   4.391   0.286   6.655 -0.1777 -0.2768 -0.1638
   48CHL1   C19 3518   4.453   0.148   6.680  0.0048  0.3330 -0.4646
   48CHL1  H19A 3519   4.472   0.077   6.597 -0.4176 -1.6596  1.0467
   48CHL1  H19B 3520   4.544   0.174   6.738 -0.4740  2.1288 -0.4858
   48CHL1  H19C 3521   4.399   0.090   6.759 -0.5450  0.9447 -0.3907
   48CHL1    C1 3522   4.243   0.269   6.614  0.6787  0.1100  0.2320
   48CHL1   H1A 3523   4.174   0.215   6.682 -0.1274  0.0193 -0.6440
   48CHL1   H1B 3524   4.199   0.371   6.615 -0.4405 -0.1747  5.1189
   48CHL1    C2 3525   4.221   0.212   6.470 -0.2083 -0.0614 -0.1159
   48CHL1   H2A 3526   4.111   0.208   6.454 -0.3201 -2.8720  0.7711
   48CHL1   H2B 3527   4.261   0.108   6.462 -0.8801 -0.4028  0.7960
   48CHL1   C20 3528   4.489   0.479   7.334 -0.1405  0.2386  0.6894
   48CHL1   H20 3529   4.519   0.374   7.351 -0.8155 -0.2817 -1.1281
   48CHL1   C21 3530   4.343   0.496   7.368 -0.0327 -0.3976 -0.4747
   48CHL1  H21A 3531   4.267   0.473   7.290 -1.1295  0.6558  0.2451
   48CHL1  H21B 3532   4.323   0.604   7.381  1.4481 -0.2373  0.7393
   48CHL1  H21C 3533   4.313   0.447   7.463  0.5978  1.6130  0.8152
   48CHL1   C22 3534   4.579   0.561   7.433 -0.5533  0.1968  0.3303
   48CHL1  H22A 3535   4.683   0.530   7.409 -0.9576 -1.2724  0.3409
   48CHL1  H22B 3536   4.566   0.671   7.436 -0.9448  0.1595 -0.0135
   48CHL1   C23 3537   4.564   0.515   7.584 -0.1295 -0.6959 -0.2592
   48CHL1  H23A 3538   4.461   0.538   7.620 -0.0057  0.3597 -0.5488
   48CHL1  H23B 3539   4.585   0.406   7.586  0.2932 -0.6099  0.0461
   48CHL1   C24 3540   4.668   0.593   7.675  1.1587  0.0606  0.6479
   48CHL1  H24A 3541   4.769   0.566   7.638  0.9747  1.5483 -1.0866
   48CHL1  H24B 3542   4.658   0.702   7.654  0.3787 -0.1664 -0.2415
   48CHL1   C25 3543   4.649   0.572   7.825  0.2095 -0.0041 -0.6027
   48CHL1   H25 3544   4.546   0.598   7.856  0.8827 -1.2391  3.2640
   48CHL1   C26 3545   4.691   0.427   7.852 -0.1573 -0.0393 -0.1091
   48CHL1  H26A 3546   4.674   0.413   7.961 -0.6629 -1.0022 -0.2969
   48CHL1  H26B 3547   4.628   0.365   7.785 -1.8137  0.5714  0.8247
   48CHL1  H26C 3548   4.798   0.404   7.832 -0.9581 -3.7552 -0.8419
   48CHL1   C27 3549   4.741   0.669   7.899 -0.5611  0.9625 -0.9091
   48CHL1  H27A 3550   4.698   0.770   7.884 -3.5931 -0.1088 -0.1255
   48CHL1  H27B 3551   4.741   0.649   8.008  1.1962 -1.4159 -1.2477
   48CHL1  H27C 3552   4.849   0.655   7.872 -0.1588 -0.2593  1.1517
   49CHL1    C3 3553   2.051   0.175   6.730  0.2214 -0.8422 -0.5127
   49CHL1    H3 3554   2.022   0.280   6.751 -1.1489 -1.0590 -1.1976
   49CHL1    O3 3555   2.066   0.160   6.590 -0.1610 -0.2464 -0.0382
   49CHL1   H3' 3556   2.147   0.198   6.553 -0.1901 -2.0294 -2.1541
   49CHL1    C4 3557   2.190   0.146   6.802  0.4357  1.1496  0.2774
   49CHL1   H4A 3558   2.220   0.045   6.766 -2.5711  0.7481 -1.4970
   49CHL1   H4B 3559   2.270   0.217   6.773  0.8597  1.3796  1.9279
   49CHL1    C5 3560   2.190   0.126   6.952  0.0151  0.4052  0.6688
   49CHL1    C6 3561   2.280   0.195   7.025 -0.4798  0.0353  0.0949
   49CHL1    H6 3562   2.354   0.260   6.975 -1.7969  1.3411 -0.2115
   49CHL1    C7 3563   2.297   0.187   7.171  0.5648  0.6637  0.2100
   49CHL1   H7A 3564   2.404   0.167   7.190  1.7046  3.7421 -2.0628
   49CHL1   H7B 3565   2.290   0.291   7.210  1.5666  0.5421  0.7388
   49CHL1    C8 3566   2.190   0.096   7.235 -0.4674  0.0911  0.4748
   49CHL1    H8 3567   2.253   0.004   7.236  0.0155  0.4146  0.5694
   49CHL1   C14 3568   2.168   0.150   7.381 -1.0581 -0.2529 -0.1283
   49CHL1   H14 3569   2.106   0.242   7.373 -0.6256 -0.0055 -0.7305
   49CHL1   C15 3570   2.289   0.186   7.467 -0.1218 -0.1538  0.3259
   49CHL1  H15A 3571   2.383   0.128   7.452 -0.4342 -0.3409 -1.0008
   49CHL1  H15B 3572   2.320   0.288   7.434  0.6237 -0.7735 -0.9844
   49CHL1   C16 3573   2.231   0.166   7.607 -0.6394  0.1268  0.2660
   49CHL1  H16A 3574   2.291   0.098   7.670 -0.2973 -1.2131 -1.4165
   49CHL1  H16B 3575   2.217   0.264   7.658  1.9141 -0.0626  1.4490
   49CHL1   C17 3576   2.089   0.112   7.588 -0.0461  0.0076 -0.0401
   49CHL1   H17 3577   2.028   0.203   7.569 -0.2415 -0.1771 -0.3191
   49CHL1   C13 3578   2.085   0.045   7.454 -0.7613 -0.1350 -0.2324
   49CHL1   C18 3579   2.166  -0.089   7.473  0.5177 -0.7596  0.5397
   49CHL1  H18A 3580   2.276  -0.073   7.483  0.2640  0.5194  1.5691
   49CHL1  H18B 3581   2.119  -0.162   7.543  2.8103 -0.2141  2.7945
   49CHL1  H18C 3582   2.162  -0.149   7.380  3.2189 -0.3822  0.0904
   49CHL1   C12 3583   1.955   0.034   7.385 -0.1693 -0.3593 -0.3543
   49CHL1  H12A 3584   1.878  -0.032   7.430 -0.1346 -0.0871  0.1128
   49CHL1  H12B 3585   1.905   0.134   7.385 -1.6512 -1.0546 -1.8729
   49CHL1   C11 3586   1.975  -0.014   7.239  0.3265  0.8233  0.1831
   49CHL1  H11A 3587   2.016  -0.117   7.239 -2.4964 -0.4053 -1.2521
   49CHL1  H11B 3588   1.879  -0.017   7.184  0.4375 -1.5087  0.0247
   49CHL1    C9 3589   2.063   0.076   7.157  0.1501  0.4828  0.2602
   49CHL1    H9 3590   2.015   0.177   7.159 -0.7340  0.0713  0.2696
   49CHL1   C10 3591   2.079   0.036   7.010  1.2681  0.2642  0.0878
   49CHL1   C19 3592   2.123  -0.113   7.001 -0.0491 -0.1795 -0.1334
   49CHL1  H19A 3593   2.219  -0.128   7.056 -1.2459  0.1463  2.1561
   49CHL1  H19B 3594   2.049  -0.189   7.034 -0.4994  0.3097 -0.0181
   49CHL1  H19C 3595   2.149  -0.138   6.895 -1.7159 -0.3206 -0.5273
   49CHL1    C1 3596   1.949   0.068   6.934  0.7334 -0.2084 -0.1574
   49CHL1   H1A 3597   1.867  -0.005   6.955  1.7969 -1.4189 -0.0853
   49CHL1   H1B 3598   1.921   0.172   6.959  1.9820  0.4791 -1.5178
   49CHL1    C2 3599   1.959   0.066   6.777  1.0415 -0.3454  0.2825
   49CHL1   H2A 3600   1.859   0.082   6.733  1.3706  0.1223 -0.3191
   49CHL1   H2B 3601   1.994  -0.034   6.741 -0.4675 -1.2050  1.1304
   49CHL1   C20 3602   2.016   0.036   7.707 -0.0336  0.3963  0.0482
   49CHL1   H20 3603   1.953  -0.042   7.660 -0.9967  0.4731  1.1703
   49CHL1   C21 3604   1.910   0.132   7.761 -0.0465  0.4531  0.5685
   49CHL1  H21A 3605   1.874   0.212   7.692  1.1160 -0.0668 -0.6943
   49CHL1  H21B 3606   1.945   0.193   7.847  1.1142  2.4392 -1.1789
   49CHL1  H21C 3607   1.817   0.082   7.795  0.3235 -0.4646  0.2595
   49CHL1   C22 3608   2.115  -0.022   7.823  0.1766 -0.3024  0.7655
   49CHL1  H22A 3609   2.193  -0.086   7.775 -1.2959 -1.8211  0.2820
   49CHL1  H22B 3610   2.166   0.069   7.860 -0.6261  0.2022  0.6560
   49CHL1   C23 3611   2.049  -0.097   7.940 -0.4175  0.3640 -0.1243
   49CHL1  H23A 3612   1.982  -0.020   7.983 -1.3754 -1.9477  2.7935
   49CHL1  H23B 3613   1.988  -0.176   7.891  0.4761 -2.0851  2.4022
   49CHL1   C24 3614   2.135  -0.147   8.052 -0.2580 -0.0316  0.6005
   49CHL1  H24A 3615   2.179  -0.244   8.019  1.7847  0.0947  2.6551
   49CHL1  H24B 3616   2.224  -0.081   8.062 -1.0778  1.2394 -0.3412
   49CHL1   C25 3617   2.057  -0.158   8.187 -0.2851 -0.0402  0.3843
   49CHL1   H25 3618   2.020  -0.058   8.219  2.6655  1.5132 -0.7247
   49CHL1   C26 3619   1.935  -0.248   8.181 -0.4123 -0.3692  0.0001
   49CHL1  H26A 3620   1.956  -0.337   8.118  1.9089  0.4915 -0.5108
   49CHL1  H26B 3621   1.899  -0.275   8.283  1.9852 -1.0883  0.7244
   49CHL1  H26C 3622   1.857  -0.192   8.125  0.7276  2.5390  1.1206
   49CHL1   C27 3623   2.156  -0.200   8.291 -0.3982  0.6855 -0.0255
   49CHL1  H27A 3624   2.206  -0.297   8.267  0.3570  0.6200  1.6738
   49CHL1  H27B 3625   2.233  -0.119   8.294  0.9746 -0.6078  2.4351
   49CHL1  H27C 3626   2.105  -0.216   8.388 -0.5873 -2.9114 -0.5655
   50CHL1    C3 3627   1.281   2.301   6.716 -0.5622  0.0685 -1.0623
   50CHL1    H3 3628   1.170   2.302   6.720 -0.6664 -1.4716 -2.3557
   50CHL1    O3 3629   1.335   2.361   6.599  0.0399  0.2190  0.3420
   50CHL1   H3' 3630   1.429   2.349   6.610 -0.1605  0.7813  3.8153
   50CHL1    C4 3631   1.340   2.367   6.845  0.3194 -0.8965 -0.0527
   50CHL1   H4A 3632   1.448   2.339   6.852  0.0956 -1.4735  1.4077
   50CHL1   H4B 3633   1.331   2.477   6.834  0.5611 -0.7933  0.7033
   50CHL1    C5 3634   1.282   2.309   6.974  0.7662 -0.1809  0.3745
   50CHL1    C6 3635   1.217   2.395   7.059 -0.2429  0.4938 -0.0430
   50CHL1    H6 3636   1.223   2.505   7.058  1.7862  0.4313  1.1102
   50CHL1    C7 3637   1.147   2.333   7.178  0.3534  0.0313 -0.4286
   50CHL1   H7A 3638   1.172   2.393   7.268 -0.5337  0.8201 -0.6958
   50CHL1   H7B 3639   1.037   2.332   7.161  0.3793  0.5385 -0.6415
   50CHL1    C8 3640   1.208   2.190   7.213 -0.4859 -0.5224  0.0602
   50CHL1    H8 3641   1.313   2.201   7.248 -1.0078  1.3907  1.1730
   50CHL1   C14 3642   1.134   2.137   7.339 -0.5573 -0.5875  0.3824
   50CHL1   H14 3643   1.028   2.139   7.306  0.5355  2.4473 -3.8223
   50CHL1   C15 3644   1.133   2.225   7.466 -0.5074  0.3307  0.4997
   50CHL1  H15A 3645   1.225   2.282   7.489  0.0109 -1.5400  3.5050
   50CHL1  H15B 3646   1.058   2.307   7.473 -0.9268  0.0246 -0.2611
   50CHL1   C16 3647   1.113   2.123   7.575  0.7522  0.0199  0.2991
   50CHL1  H16A 3648   1.205   2.112   7.636  0.8473 -0.7431  0.0275
   50CHL1  H16B 3649   1.020   2.150   7.631 -1.6004 -1.7229 -2.4745
   50CHL1   C17 3650   1.105   1.985   7.507  0.1718  0.1953  0.1062
   50CHL1   H17 3651   0.998   1.986   7.477  0.3546 -0.6693 -0.6092
   50CHL1   C13 3652   1.189   1.998   7.378 -0.7224 -0.0356 -0.2566
   50CHL1   C18 3653   1.335   1.991   7.406 -0.1525 -0.1079  0.8124
   50CHL1  H18A 3654   1.374   2.047   7.494  1.2604  0.8124 -0.3522
   50CHL1  H18B 3655   1.362   1.884   7.419  2.0118  0.2694 -0.0411
   50CHL1  H18C 3656   1.384   2.018   7.310  0.4577  1.0656  1.4236
   50CHL1   C12 3657   1.151   1.902   7.264  0.2283 -0.0426 -0.2421
   50CHL1  H12A 3658   1.187   1.800   7.288  0.3235  0.5557  2.4199
   50CHL1  H12B 3659   1.041   1.911   7.250  0.4996  2.6107 -1.1460
   50CHL1   C11 3660   1.216   1.956   7.132  0.1437 -0.1893  0.4615
   50CHL1  H11A 3661   1.323   1.929   7.144  0.0546 -0.9326 -0.3202
   50CHL1  H11B 3662   1.182   1.893   7.047 -1.2085  0.1573  0.7294
   50CHL1    C9 3663   1.195   2.100   7.091 -0.0079  1.2167 -0.7743
   50CHL1    H9 3664   1.091   2.112   7.054 -0.3304  2.3286  0.4101
   50CHL1   C10 3665   1.296   2.156   6.977 -0.2256  0.8576  0.2722
   50CHL1   C19 3666   1.444   2.116   7.005  0.1022 -0.8325 -0.1052
   50CHL1  H19A 3667   1.465   2.143   7.110 -0.2358  0.1340 -0.2788
   50CHL1  H19B 3668   1.464   2.007   6.989 -0.5178 -0.9963  0.2139
   50CHL1  H19C 3669   1.512   2.182   6.946 -2.2306  3.3265  1.4653
   50CHL1    C1 3670   1.257   2.084   6.849  0.2609  0.7959 -0.9898
   50CHL1   H1A 3671   1.291   1.979   6.848 -1.9493  0.0312 -1.2900
   50CHL1   H1B 3672   1.146   2.090   6.848  0.1481 -0.7134  0.2426
   50CHL1    C2 3673   1.313   2.153   6.716  0.0672  0.1176 -0.4875
   50CHL1   H2A 3674   1.279   2.097   6.626  1.4088 -0.7471 -0.4769
   50CHL1   H2B 3675   1.422   2.137   6.726 -0.1176 -0.0476  1.7093
   50CHL1   C20 3676   1.125   1.871   7.610  0.1130  0.5578  0.0676
   50CHL1   H20 3677   1.228   1.867   7.652  0.9002 -3.0819 -1.7499
   50CHL1   C21 3678   1.102   1.733   7.542 -0.0820  0.3201  0.3907
   50CHL1  H21A 3679   1.189   1.716   7.474 -0.8417  1.6830 -0.9826
   50CHL1  H21B 3680   1.013   1.724   7.477  1.4265 -2.3294 -1.4822
   50CHL1  H21C 3681   1.105   1.659   7.624  2.9594 -0.6617 -0.4718
   50CHL1   C22 3682   1.032   1.888   7.734 -0.1464 -0.2821 -0.2738
   50CHL1  H22A 3683   1.048   1.993   7.765 -1.1805 -0.4767  1.0619
   50CHL1  H22B 3684   0.927   1.886   7.697 -0.1978 -0.2164 -0.1343
   50CHL1   C23 3685   1.039   1.792   7.853 -0.2603  0.7604  0.1158
   50CHL1  H23A 3686   1.011   1.696   7.804 -1.5763  0.8520  0.6482
   50CHL1  H23B 3687   1.143   1.788   7.892  0.3245  1.3010 -1.3255
   50CHL1   C24 3688   0.934   1.813   7.968 -0.3791  0.4969  0.4005
   50CHL1  H24A 3689   0.834   1.813   7.919 -0.0641  0.6798 -0.2639
   50CHL1  H24B 3690   0.951   1.722   8.029 -1.0586  0.1816  0.1307
   50CHL1   C25 3691   0.958   1.945   8.049  0.6936  0.3843 -0.0854
   50CHL1   H25 3692   0.959   2.032   7.979  1.4092  0.1920 -0.3330
   50CHL1   C26 3693   0.838   1.964   8.150 -0.5041 -0.6459 -0.2222
   50CHL1  H26A 3694   0.844   2.067   8.190  1.3141  0.3819 -2.9296
   50CHL1  H26B 3695   0.736   1.951   8.107 -0.9352 -1.3416  0.9566
   50CHL1  H26C 3696   0.849   1.887   8.230  2.3224 -1.3669 -1.1929
   50CHL1   C27 3697   1.089   1.951   8.124 -0.0438  0.4483  0.1729
   50CHL1  H27A 3698   1.097   1.863   8.191 -2.3833  1.3387  1.7457
   50CHL1  H27B 3699   1.178   1.942   8.057 -1.7051  1.0173 -2.2509
   50CHL1  H27C 3700   1.098   2.024   8.207 -0.6119  0.6145  0.0928
   51CHL1    C3 3701   2.029   0.730   6.605 -0.4871  0.1190  0.3807
   51CHL1    H3 3702   1.943   0.800   6.605 -2.3343 -2.0152 -0.2861
   51CHL1    O3 3703   2.063   0.717   6.468 -0.4733  0.2493 -1.2321
   51CHL1   H3' 3704   2.105   0.630   6.475  0.8692  0.9937  3.8549
   51CHL1    C4 3705   2.155   0.789   6.671  0.6333  0.3696  0.7282
   51CHL1   H4A 3706   2.245   0.728   6.649 -0.7901 -0.7406 -2.7450
   51CHL1   H4B 3707   2.169   0.890   6.628 -0.1623 -0.3575 -1.3542
   51CHL1    C5 3708   2.131   0.807   6.823  0.3481  0.3380 -0.1533
   51CHL1    C6 3709   2.133   0.928   6.881 -0.4082 -0.6944  0.7945
   51CHL1    H6 3710   2.152   1.010   6.810 -1.6946 -1.2893 -0.2804
   51CHL1    C7 3711   2.105   0.945   7.030 -0.1772 -1.2666  0.7196
   51CHL1   H7A 3712   2.180   1.017   7.071 -0.7845  1.1812 -2.0465
   51CHL1   H7B 3713   2.004   0.986   7.048 -0.6030 -1.7520 -0.4419
   51CHL1    C8 3714   2.116   0.814   7.104 -0.1164 -0.5692 -0.5907
   51CHL1    H8 3715   2.224   0.789   7.094 -0.0653 -0.7135  0.2529
   51CHL1   C14 3716   2.055   0.830   7.244 -0.0813 -0.5650  0.2212
   51CHL1   H14 3717   1.945   0.842   7.235  0.1764  0.8567 -1.4928
   51CHL1   C15 3718   2.100   0.951   7.330  0.3862 -1.2205  0.1271
   51CHL1  H15A 3719   2.209   0.971   7.325 -0.0243  1.0849 -0.8370
   51CHL1  H15B 3720   2.048   1.044   7.299  2.9657  0.6358  1.0023
   51CHL1   C16 3721   2.053   0.912   7.474 -1.2323 -0.3901  0.9324
   51CHL1  H16A 3722   2.146   0.940   7.529 -0.2407 -1.1874 -0.2548
   51CHL1  H16B 3723   1.970   0.974   7.512 -0.6035  0.0420  1.6414
   51CHL1   C17 3724   2.016   0.760   7.462 -0.1296 -0.3552  0.1838
   51CHL1   H17 3725   1.906   0.777   7.462 -0.0645  0.0714 -0.2806
   51CHL1   C13 3726   2.069   0.709   7.330  0.2423 -0.7012  0.2013
   51CHL1   C18 3727   2.221   0.670   7.349 -0.0423 -0.0791 -1.0786
   51CHL1  H18A 3728   2.280   0.655   7.256 -1.7096  2.0980 -2.6147
   51CHL1  H18B 3729   2.283   0.751   7.392  2.0686 -1.8541 -0.6061
   51CHL1  H18C 3730   2.225   0.582   7.416 -0.8877  0.2769 -0.5453
   51CHL1   C12 3731   1.987   0.593   7.266  0.1687  0.1772  0.7580
   51CHL1  H12A 3732   1.978   0.507   7.336 -1.0953 -0.1347  0.2490
   51CHL1  H12B 3733   1.885   0.630   7.241  0.5659 -0.6902 -2.5880
   51CHL1   C11 3734   2.047   0.562   7.128 -0.1303  0.0870 -0.0363
   51CHL1  H11A 3735   2.152   0.530   7.141  0.1252  0.8482 -0.2188
   51CHL1  H11B 3736   1.993   0.481   7.073 -2.2071  1.2122  0.2485
   51CHL1    C9 3737   2.042   0.697   7.040  0.0592  0.7134 -0.1883
   51CHL1    H9 3738   1.931   0.710   7.036  0.0129  1.7833  2.4707
   51CHL1   C10 3739   2.085   0.674   6.893  0.4007 -0.3853 -0.0940
   51CHL1   C19 3740   2.223   0.593   6.896  0.6025 -0.2195  0.2515
   51CHL1  H19A 3741   2.277   0.627   6.987  0.9679  0.3508 -0.1711
   51CHL1  H19B 3742   2.187   0.489   6.905 -1.6468  0.2349 -2.2583
   51CHL1  H19C 3743   2.296   0.602   6.813  1.8526 -1.1250  1.2193
   51CHL1    C1 3744   1.964   0.603   6.815 -0.3949  0.4925  0.0389
   51CHL1   H1A 3745   1.957   0.500   6.855 -0.7911  1.4105  2.5024
   51CHL1   H1B 3746   1.862   0.647   6.823  0.0021  1.3049  0.7815
   51CHL1    C2 3747   1.997   0.588   6.664 -0.7656  0.1495  0.2454
   51CHL1   H2A 3748   1.914   0.539   6.608  1.2597  0.1363 -2.9321
   51CHL1   H2B 3749   2.082   0.518   6.652 -1.3743 -0.8807  1.5573
   51CHL1   C20 3750   2.041   0.673   7.590  0.1258  0.1032 -0.4639
   51CHL1   H20 3751   2.074   0.573   7.555  0.9192  1.2410 -3.1647
   51CHL1   C21 3752   1.907   0.674   7.666 -0.4289  0.2452 -0.1425
   51CHL1  H21A 3753   1.919   0.615   7.760 -0.4996  0.5456  0.0553
   51CHL1  H21B 3754   1.831   0.614   7.613 -2.2256  0.9467  1.5352
   51CHL1  H21C 3755   1.874   0.777   7.690  1.1863  0.3970  1.7286
   51CHL1   C22 3756   2.151   0.730   7.688 -0.1100 -0.4084 -0.6123
   51CHL1  H22A 3757   2.232   0.753   7.616 -1.7312 -1.1869 -2.8126
   51CHL1  H22B 3758   2.104   0.825   7.722  0.8240  0.8039 -2.5157
   51CHL1   C23 3759   2.193   0.643   7.806 -0.1301 -0.9741  0.0302
   51CHL1  H23A 3760   2.110   0.594   7.861  0.2490 -2.0618 -0.3446
   51CHL1  H23B 3761   2.251   0.560   7.761  0.8353 -1.0609  1.3726
   51CHL1   C24 3762   2.290   0.710   7.909 -0.0645  0.1949  1.0291
   51CHL1  H24A 3763   2.333   0.637   7.981 -0.2442 -0.4768  0.4660
   51CHL1  H24B 3764   2.366   0.742   7.835 -1.4408  0.4594 -0.3264
   51CHL1   C25 3765   2.235   0.837   7.981  0.1499 -0.6908 -0.1386
   51CHL1   H25 3766   2.233   0.912   7.899 -1.0739 -0.2702  0.2574
   51CHL1   C26 3767   2.089   0.819   8.035 -0.6436 -0.1404 -0.2274
   51CHL1  H26A 3768   2.031   0.779   7.949 -0.0467  1.0617 -1.2284
   51CHL1  H26B 3769   2.100   0.747   8.119  2.1974  0.3377 -0.0941
   51CHL1  H26C 3770   2.054   0.915   8.079  0.3756 -0.0542  0.4232
   51CHL1   C27 3771   2.320   0.897   8.098 -0.4671 -0.3915  0.8212
   51CHL1  H27A 3772   2.341   0.820   8.175  0.0195  1.1111  2.2592
   51CHL1  H27B 3773   2.413   0.942   8.057 -1.7549  1.0400 -0.6676
   51CHL1  H27C 3774   2.261   0.973   8.153  0.3628  0.5415  0.4577
   52CHL1    C3 3775   3.019   2.641   6.901  0.2632  0.5190 -0.3950
   52CHL1    H3 3776   3.101   2.589   6.955 -2.9914 -2.0297  2.6005
   52CHL1    O3 3777   3.038   2.605   6.765  0.5432  0.2834 -0.4701
   52CHL1   H3' 3778   2.969   2.658   6.724 -3.6346 -1.8600  2.9572
   52CHL1    C4 3779   2.885   2.579   6.952 -0.0912 -0.0129 -0.2536
   52CHL1   H4A 3780   2.805   2.622   6.889 -0.4341  0.4435  0.4791
   52CHL1   H4B 3781   2.899   2.471   6.933  1.0344 -0.4196  2.3933
   52CHL1    C5 3782   2.856   2.600   7.099 -0.6118  0.4276 -0.1773
   52CHL1    C6 3783   2.839   2.492   7.182  0.0110 -0.0545  0.0373
   52CHL1    H6 3784   2.834   2.389   7.144 -0.1372 -0.2464  0.5750
   52CHL1    C7 3785   2.809   2.517   7.327  0.2573  0.6331 -0.2436
   52CHL1   H7A 3786   2.725   2.459   7.372  0.9422  2.1297  3.3123
   52CHL1   H7B 3787   2.893   2.484   7.392  1.8333 -0.0358 -2.5117
   52CHL1    C8 3788   2.775   2.670   7.361  0.2901 -0.1542  0.5610
   52CHL1    H8 3789   2.669   2.684   7.328  0.4623 -0.7500 -0.2803
   52CHL1   C14 3790   2.767   2.687   7.509  0.6821 -0.0145 -0.2740
   52CHL1   H14 3791   2.872   2.662   7.537  0.0117 -1.7219  0.8282
   52CHL1   C15 3792   2.677   2.588   7.591 -0.3762  0.8889  0.4613
   52CHL1  H15A 3793   2.580   2.571   7.540 -0.0338 -1.3089  0.4474
   52CHL1  H15B 3794   2.728   2.491   7.608 -1.0148  0.1657 -1.4950
   52CHL1   C16 3795   2.656   2.660   7.722  0.4091 -0.3486  0.3448
   52CHL1  H16A 3796   2.547   2.679   7.732 -0.1401 -0.8295 -3.2241
   52CHL1  H16B 3797   2.704   2.600   7.802  0.8127 -0.7014 -0.1581
   52CHL1   C17 3798   2.725   2.806   7.716 -0.4641 -0.0827 -0.1084
   52CHL1   H17 3799   2.828   2.807   7.757 -1.5166 -0.8232  2.8130
   52CHL1   C13 3800   2.736   2.824   7.559  0.1922 -0.7710  0.5927
   52CHL1   C18 3801   2.590   2.863   7.507  0.6341 -0.2047  0.1360
   52CHL1  H18A 3802   2.587   2.881   7.398  1.5121  0.6478  0.2451
   52CHL1  H18B 3803   2.514   2.784   7.526  0.7004 -0.1723  0.5396
   52CHL1  H18C 3804   2.571   2.963   7.551  0.1213  1.0946 -2.8190
   52CHL1   C12 3805   2.844   2.919   7.502 -0.9799 -0.4643  0.1259
   52CHL1  H12A 3806   2.823   3.026   7.520  1.1324  0.1741 -0.7919
   52CHL1  H12B 3807   2.940   2.898   7.555 -0.6599 -0.8480 -0.5761
   52CHL1   C11 3808   2.859   2.909   7.350 -0.2013 -0.2535  0.3339
   52CHL1  H11A 3809   2.767   2.950   7.303  0.9054  2.4260  0.3424
   52CHL1  H11B 3810   2.946   2.969   7.315 -1.3111  1.2814  0.1080
   52CHL1    C9 3811   2.871   2.762   7.296 -0.5434  0.4174  0.5645
   52CHL1    H9 3812   2.972   2.722   7.322  0.1936  1.9939  0.2576
   52CHL1   C10 3813   2.865   2.742   7.143 -0.6848 -0.2377 -0.5213
   52CHL1   C19 3814   2.736   2.808   7.086 -0.4404 -0.2568 -0.2561
   52CHL1  H19A 3815   2.649   2.780   7.149 -0.0679 -3.3834 -0.9900
   52CHL1  H19B 3816   2.745   2.919   7.083  0.0355 -0.2643  0.4151
   52CHL1  H19C 3817   2.716   2.782   6.980 -1.4392  1.2947 -0.4816
   52CHL1    C1 3818   2.990   2.809   7.085  0.0920 -0.8232  0.3565
   52CHL1   H1A 3819   2.988   2.920   7.086  2.4276 -0.7401  1.1862
   52CHL1   H1B 3820   3.082   2.792   7.145  1.2684 -0.4787 -1.2540
   52CHL1    C2 3821   3.016   2.791   6.932 -0.3115  0.2901  0.1401
   52CHL1   H2A 3822   3.113   2.834   6.900  0.1313  0.2694  1.4102
   52CHL1   H2B 3823   2.933   2.827   6.867  0.5027 -0.1929 -1.2009
   52CHL1   C20 3824   2.642   2.918   7.785  0.3033 -0.0250  0.3723
   52CHL1   H20 3825   2.538   2.934   7.750 -0.3441 -1.0251  1.7309
   52CHL1   C21 3826   2.717   3.048   7.776 -0.0499  0.3585 -0.1970
   52CHL1  H21A 3827   2.687   3.123   7.853 -0.0151  0.2807 -0.1069
   52CHL1  H21B 3828   2.704   3.109   7.685 -0.7096  0.7570  0.1512
   52CHL1  H21C 3829   2.824   3.030   7.800  0.0543  1.1401 -0.0196
   52CHL1   C22 3830   2.613   2.894   7.940  0.6971  0.5816 -0.2999
   52CHL1  H22A 3831   2.551   2.975   7.984  0.2063  0.5068 -0.8325
   52CHL1  H22B 3832   2.543   2.809   7.952 -0.1421  1.3481  0.4324
   52CHL1   C23 3833   2.741   2.868   8.026  0.1653 -0.2329 -0.4249
   52CHL1  H23A 3834   2.770   2.761   8.023  1.1072 -0.1379  2.3645
   52CHL1  H23B 3835   2.830   2.927   7.994  1.2557  0.1222  2.9203
   52CHL1   C24 3836   2.708   2.890   8.171  0.6425 -0.3080  0.5592
   52CHL1  H24A 3837   2.654   2.987   8.175 -0.4044 -0.8721  0.6445
   52CHL1  H24B 3838   2.634   2.814   8.205 -0.8568  0.9276  0.2033
   52CHL1   C25 3839   2.821   2.903   8.274 -0.6933  0.2842  0.2249
   52CHL1   H25 3840   2.892   2.817   8.277 -0.5325  0.4304  0.7299
   52CHL1   C26 3841   2.908   3.029   8.256 -0.5923  0.1694 -0.2621
   52CHL1  H26A 3842   2.962   3.007   8.162  0.9311 -0.9022  0.8236
   52CHL1  H26B 3843   2.847   3.122   8.260 -0.8004  0.1007 -1.4907
   52CHL1  H26C 3844   2.988   3.029   8.333 -1.1466  1.0965  0.3345
   52CHL1   C27 3845   2.760   2.891   8.421 -0.2584  0.3730  0.3162
   52CHL1  H27A 3846   2.708   2.988   8.436  1.0807  1.3060 -0.8622
   52CHL1  H27B 3847   2.695   2.802   8.436  0.9981 -0.8736 -1.2956
   52CHL1  H27C 3848   2.849   2.891   8.488 -2.0133 -0.9589  2.8145
   53CHL1    C3 3849   6.729   4.901   7.098 -0.7670 -0.0378 -0.9178
   53CHL1    H3 3850   6.649   4.978   7.110  0.0054  0.4302  2.0293
   53CHL1    O3 3851   6.738   4.846   6.970  0.1306 -0.5933  0.5729
   53CHL1   H3' 3852   6.773   4.757   6.981  0.6246 -0.5798 -0.7040
   53CHL1    C4 3853   6.860   4.976   7.133 -0.5207  0.3243  0.7976
   53CHL1   H4A 3854   6.951   4.916   7.108  0.3045  1.2509  1.4952
   53CHL1   H4B 3855   6.869   5.064   7.066  0.1842 -0.7123 -0.5182
   53CHL1    C5 3856   6.873   5.020   7.277 -0.0239  1.1483 -0.2037
   53CHL1    C6 3857   6.900   5.143   7.303 -0.5370 -0.0743  0.1907
   53CHL1    H6 3858   6.917   5.216   7.222 -0.5938 -0.7741 -0.4533
   53CHL1    C7 3859   6.905   5.201   7.446 -0.4260 -0.9497 -0.1781
   53CHL1   H7A 3860   7.000   5.258   7.453 -0.8313 -0.3498  0.6561
   53CHL1   H7B 3861   6.810   5.253   7.471 -1.2596 -2.7143  0.5287
   53CHL1    C8 3862   6.919   5.077   7.545  0.9984  0.8203 -0.7037
   53CHL1    H8 3863   7.017   5.026   7.537  0.0315 -1.2574  0.0918
   53CHL1   C14 3864   6.897   5.129   7.688 -0.3090 -0.2710 -0.3988
   53CHL1   H14 3865   6.793   5.163   7.710  0.4755  0.8754  1.8699
   53CHL1   C15 3866   6.989   5.247   7.740  0.4009 -0.1548  0.0127
   53CHL1  H15A 3867   7.089   5.212   7.707  0.1029 -1.6493  0.6045
   53CHL1  H15B 3868   6.967   5.346   7.695 -1.0017 -0.4640 -0.0245
   53CHL1   C16 3869   6.982   5.247   7.888  0.1965 -0.4890  0.2496
   53CHL1  H16A 3870   7.081   5.257   7.939  0.7672 -1.5524 -0.6118
   53CHL1  H16B 3871   6.911   5.329   7.912 -2.5142 -3.1560  2.0431
   53CHL1   C17 3872   6.901   5.116   7.924 -0.4375  0.3751 -0.0950
   53CHL1   H17 3873   6.794   5.141   7.941  0.0049  1.6151  0.9984
   53CHL1   C13 3874   6.910   5.025   7.797  0.3240  0.0891  0.2485
   53CHL1   C18 3875   7.044   4.953   7.804 -0.4978  0.7801 -0.5175
   53CHL1  H18A 3876   7.061   4.899   7.708 -0.5455  1.8232 -1.1283
   53CHL1  H18B 3877   7.122   5.031   7.820  0.4558  0.0663 -1.5389
   53CHL1  H18C 3878   7.042   4.870   7.877 -0.6539 -1.8376 -3.3027
   53CHL1   C12 3879   6.791   4.921   7.779  0.6039 -0.8452 -0.6135
   53CHL1  H12A 3880   6.803   4.838   7.852 -0.9026 -0.2428  0.3641
   53CHL1  H12B 3881   6.691   4.966   7.797  0.9315 -0.8321  1.4750
   53CHL1   C11 3882   6.792   4.862   7.636 -0.2694 -0.5918 -0.9493
   53CHL1  H11A 3883   6.878   4.791   7.626  0.9753  0.4017  1.7212
   53CHL1  H11B 3884   6.697   4.805   7.630 -0.4777 -0.8983  2.8811
   53CHL1    C9 3885   6.818   4.965   7.520  0.2219 -0.7003  0.9710
   53CHL1    H9 3886   6.719   5.015   7.512 -0.9631 -3.0099  0.3652
   53CHL1   C10 3887   6.835   4.906   7.374 -0.4560  0.1725  0.5527
   53CHL1   C19 3888   6.946   4.798   7.383  0.3590 -1.1453 -0.0497
   53CHL1  H19A 3889   6.978   4.781   7.278 -1.0489 -0.4937 -0.6102
   53CHL1  H19B 3890   7.047   4.832   7.415  0.1915  0.0598 -0.7157
   53CHL1  H19C 3891   6.909   4.707   7.433 -2.3695  2.2044  4.8074
   53CHL1    C1 3892   6.700   4.836   7.334 -0.4753 -0.2796 -0.1287
   53CHL1   H1A 3893   6.678   4.759   7.412  1.8060  0.8001  1.7122
   53CHL1   H1B 3894   6.619   4.913   7.336 -0.5069 -0.3050 -0.4823
   53CHL1    C2 3895   6.699   4.790   7.197  0.2160 -0.1478  0.2366
   53CHL1   H2A 3896   6.599   4.743   7.185 -0.2038  0.1881  2.1536
   53CHL1   H2B 3897   6.774   4.709   7.179  1.7117  1.0858  0.7309
   53CHL1   C20 3898   6.938   5.062   8.059  0.1475  0.4230 -0.2017
   53CHL1   H20 3899   7.042   5.021   8.055  0.7917  1.8373  1.0829
   53CHL1   C21 3900   6.848   4.947   8.105 -0.1545  0.0837  0.5016
   53CHL1  H21A 3901   6.739   4.968   8.099 -0.2110 -0.5322 -0.9933
   53CHL1  H21B 3902   6.862   4.932   8.214  0.2564 -2.1465  0.1949
   53CHL1  H21C 3903   6.876   4.850   8.058 -0.2634 -0.0466  0.7022
   53CHL1   C22 3904   6.928   5.175   8.170  0.1404 -0.1883 -0.4402
   53CHL1  H22A 3905   6.958   5.120   8.262 -1.4569 -0.7264 -0.2217
   53CHL1  H22B 3906   7.007   5.247   8.139 -1.4210  0.2885 -3.7303
   53CHL1   C23 3907   6.796   5.230   8.196  0.0593 -1.0150  0.0468
   53CHL1  H23A 3908   6.759   5.276   8.102  0.1183 -0.8849  0.0867
   53CHL1  H23B 3909   6.727   5.154   8.239  1.4125 -0.8393  2.7251
   53CHL1   C24 3910   6.802   5.345   8.299  0.0007 -0.3399 -0.6292
   53CHL1  H24A 3911   6.811   5.312   8.404 -0.7310 -2.1028 -1.0834
   53CHL1  H24B 3912   6.891   5.410   8.283  0.7139 -1.4395 -1.3120
   53CHL1   C25 3913   6.685   5.449   8.286 -0.6517  0.9496  0.0632
   53CHL1   H25 3914   6.592   5.396   8.314  0.0448 -0.6084 -0.4689
   53CHL1   C26 3915   6.712   5.566   8.386 -0.0246  0.9806  0.0500
   53CHL1  H26A 3916   6.791   5.637   8.352 -0.1513  1.2934  0.3942
   53CHL1  H26B 3917   6.614   5.619   8.395 -1.0285 -0.5298 -1.5032
   53CHL1  H26C 3918   6.725   5.534   8.492 -0.7603  1.5745  0.3338
   53CHL1   C27 3919   6.670   5.502   8.145 -0.6477 -0.1073  0.1621
   53CHL1  H27A 3920   6.642   5.429   8.067  1.6465 -1.6649  0.7264
   53CHL1  H27B 3921   6.603   5.590   8.129  0.3970  0.6927  0.0888
   53CHL1  H27C 3922   6.767   5.552   8.125 -1.2376  0.1416 -2.3030
   54CHL1    C3 3923   1.016   0.141   6.742 -0.5505  0.8282  0.7056
   54CHL1    H3 3924   0.907   0.134   6.722 -0.0782  1.4125 -2.8627
   54CHL1    O3 3925   1.078   0.173   6.615 -0.0670 -0.4541 -0.4563
   54CHL1   H3' 3926   1.060   0.267   6.610 -0.3564 -0.2839  2.5140
   54CHL1    C4 3927   1.043   0.250   6.849  0.0952 -0.3640 -0.2756
   54CHL1   H4A 3928   1.151   0.273   6.861 -0.4334  2.0491  0.4254
   54CHL1   H4B 3929   0.992   0.343   6.816 -2.1741 -1.5528 -0.3523
   54CHL1    C5 3930   0.977   0.203   6.978 -0.4665  0.8929  0.2285
   54CHL1    C6 3931   0.884   0.279   7.042 -0.5374  0.1876  0.1420
   54CHL1    H6 3932   0.866   0.381   7.004 -0.0499 -0.2099 -1.2382
   54CHL1    C7 3933   0.808   0.247   7.165 -0.7179 -0.0421 -0.4149
   54CHL1   H7A 3934   0.794   0.337   7.229 -0.3322 -0.8946  0.9183
   54CHL1   H7B 3935   0.705   0.216   7.136 -0.9019 -1.0020  1.0875
   54CHL1    C8 3936   0.883   0.132   7.237  0.3903 -0.2023 -0.3789
   54CHL1    H8 3937   0.971   0.175   7.290 -0.7248  0.8257  0.7087
   54CHL1   C14 3938   0.790   0.079   7.353 -1.4404 -0.5817 -0.1594
   54CHL1   H14 3939   0.706   0.031   7.298 -1.5178 -0.0548 -0.5093
   54CHL1   C15 3940   0.734   0.178   7.456  0.4476 -0.0360 -0.2728
   54CHL1  H15A 3941   0.820   0.241   7.488  0.0400 -0.0094  0.8030
   54CHL1  H15B 3942   0.649   0.246   7.436  2.1415  3.3083  2.6886
   54CHL1   C16 3943   0.701   0.090   7.577  0.2097  0.2503 -0.0560
   54CHL1  H16A 3944   0.749   0.130   7.669 -0.8161 -2.1014  1.6054
   54CHL1  H16B 3945   0.591   0.085   7.592  0.3584  1.5329  1.9485
   54CHL1   C17 3946   0.758  -0.053   7.535  0.1374 -0.2513 -0.3450
   54CHL1   H17 3947   0.679  -0.101   7.473  0.3482  0.1558 -0.9296
   54CHL1   C13 3948   0.861  -0.027   7.427  0.5897 -0.0461 -0.6418
   54CHL1   C18 3949   0.997   0.012   7.490 -0.7094 -0.0332 -0.4088
   54CHL1  H18A 3950   1.029  -0.057   7.571 -0.3616 -0.6535 -1.0659
   54CHL1  H18B 3951   1.077   0.020   7.414 -0.8158 -1.1763 -0.6600
   54CHL1  H18C 3952   0.993   0.112   7.539 -0.5023 -0.8001  1.2540
   54CHL1   C12 3953   0.896  -0.147   7.337 -0.7631  0.3978 -0.0804
   54CHL1  H12A 3954   0.938  -0.223   7.406 -0.3473  0.2548 -0.4895
   54CHL1  H12B 3955   0.796  -0.190   7.310 -1.2477  1.3526  0.1540
   54CHL1   C11 3956   0.970  -0.116   7.217  0.0180 -0.2263  0.2370
   54CHL1  H11A 3957   1.076  -0.105   7.250  0.3752 -2.9454  0.2386
   54CHL1  H11B 3958   0.965  -0.203   7.149  0.5035 -0.3160  0.3137
   54CHL1    C9 3959   0.923   0.019   7.144  0.4856  0.6098  0.1614
   54CHL1    H9 3960   0.829  -0.014   7.095  0.6094  0.9383 -0.3033
   54CHL1   C10 3961   1.016   0.056   7.027  0.1198 -0.4522 -0.5330
   54CHL1   C19 3962   1.159   0.070   7.086 -0.0661  0.2773 -0.1017
   54CHL1  H19A 3963   1.190  -0.036   7.097 -0.6254  0.0501 -0.6087
   54CHL1  H19B 3964   1.241   0.113   7.024  0.2281  0.2194  0.2459
   54CHL1  H19C 3965   1.154   0.125   7.183 -0.8994  1.8026 -0.9558
   54CHL1    C1 3966   1.009  -0.047   6.907  0.9783  0.2878  0.5847
   54CHL1   H1A 3967   1.054  -0.145   6.936 -0.0346  0.3429  2.4738
   54CHL1   H1B 3968   0.907  -0.082   6.880  2.2933 -1.0576 -3.4332
   54CHL1    C2 3969   1.078   0.012   6.787 -0.4096 -0.3805 -0.0302
   54CHL1   H2A 3970   1.064  -0.055   6.700 -2.0675  0.4316 -0.4312
   54CHL1   H2B 3971   1.187   0.021   6.808 -0.2490 -0.2353 -0.9115
   54CHL1   C20 3972   0.783  -0.163   7.646 -0.0142 -0.1990  0.1174
   54CHL1   H20 3973   0.892  -0.167   7.668 -0.1310  0.3251  0.8216
   54CHL1   C21 3974   0.733  -0.297   7.608 -0.0496  0.4111  0.1503
   54CHL1  H21A 3975   0.773  -0.342   7.514  0.0723  0.7521  0.0356
   54CHL1  H21B 3976   0.622  -0.298   7.613 -0.2299  2.6093 -1.5663
   54CHL1  H21C 3977   0.764  -0.375   7.680  0.0589  0.3569  0.0459
   54CHL1   C22 3978   0.734  -0.123   7.790  0.6408 -0.2504  0.0640
   54CHL1  H22A 3979   0.738  -0.014   7.811 -0.7481 -0.0701 -0.4865
   54CHL1  H22B 3980   0.630  -0.160   7.792  1.3273 -2.2830  2.4021
   54CHL1   C23 3981   0.821  -0.171   7.908  0.0945 -0.9264  0.3316
   54CHL1  H23A 3982   0.761  -0.120   7.986  0.0218  0.3698 -0.5469
   54CHL1  H23B 3983   0.818  -0.282   7.899  0.9390 -0.8012 -3.9232
   54CHL1   C24 3984   0.970  -0.119   7.920 -0.7635 -0.7060 -0.0241
   54CHL1  H24A 3985   1.029  -0.189   7.857  0.7264 -0.5739  1.1673
   54CHL1  H24B 3986   0.987  -0.015   7.885 -0.8001  0.0086  1.9369
   54CHL1   C25 3987   1.025  -0.118   8.067  0.3617  0.0348  0.4267
   54CHL1   H25 3988   1.133  -0.092   8.060  0.2458  0.0659 -3.0037
   54CHL1   C26 3989   0.960   0.001   8.143 -0.0713 -0.7612  0.2254
   54CHL1  H26A 3990   1.005   0.006   8.244  1.4077 -0.0974 -0.4273
   54CHL1  H26B 3991   0.960   0.103   8.097  0.5015 -0.4160  0.9739
   54CHL1  H26C 3992   0.851  -0.018   8.151 -0.3244  0.8097  0.8821
   54CHL1   C27 3993   1.019  -0.261   8.131 -0.3227 -0.7559  0.4493
   54CHL1  H27A 3994   1.095  -0.270   8.212 -0.2884  0.2265  0.5333
   54CHL1  H27B 3995   0.912  -0.284   8.150 -0.5094 -1.4009 -1.2312
   54CHL1  H27C 3996   1.043  -0.332   8.049  1.0696  2.1560 -1.8553
   55CHL1    C3 3997   6.338   0.820   7.002 -0.6095 -0.4299 -0.2179
   55CHL1    H3 3998   6.233   0.786   7.015  0.3052 -2.5331  2.4294
   55CHL1    O3 3999   6.389   0.781   6.880 -0.3606  0.2464  0.0739
   55CHL1   H3' 4000   6.403   0.686   6.890  0.5465  0.4444  0.9126
   55CHL1    C4 4001   6.349   0.971   7.017  0.1967  0.2240 -0.3003
   55CHL1   H4A 4002   6.454   1.004   6.997  0.5470 -0.9458 -0.4350
   55CHL1   H4B 4003   6.299   1.036   6.942  1.6602  0.9863 -0.6567
   55CHL1    C5 4004   6.310   1.023   7.161 -0.1241 -0.4046 -0.1702
   55CHL1    C6 4005   6.214   1.118   7.173 -0.6211  0.6954  0.3541
   55CHL1    H6 4006   6.159   1.146   7.081 -1.0602 -2.3544 -0.4220
   55CHL1    C7 4007   6.178   1.180   7.297 -0.7748 -0.3027  0.0298
   55CHL1   H7A 4008   6.197   1.288   7.283  0.2997 -0.3158  1.1457
   55CHL1   H7B 4009   6.075   1.151   7.329 -1.4766  0.0544 -1.7752
   55CHL1    C8 4010   6.279   1.141   7.414  0.2740 -0.1602 -0.5108
   55CHL1    H8 4011   6.364   1.211   7.399 -0.6370  1.3367  0.8983
   55CHL1   C14 4012   6.211   1.165   7.546  1.1509  0.5123 -0.3176
   55CHL1   H14 4013   6.125   1.097   7.558  1.4316  0.1311 -0.4506
   55CHL1   C15 4014   6.140   1.299   7.567  0.1623 -0.3720  0.1567
   55CHL1  H15A 4015   6.191   1.388   7.524 -0.0594 -0.1245  0.3986
   55CHL1  H15B 4016   6.033   1.297   7.538 -0.3498  0.6102  1.8310
   55CHL1   C16 4017   6.133   1.323   7.718 -0.5146 -0.4005  0.1529
   55CHL1  H16A 4018   6.189   1.415   7.745 -1.4810 -0.3873  2.3736
   55CHL1  H16B 4019   6.028   1.331   7.755  0.0069  1.9952  1.3424
   55CHL1   C17 4020   6.198   1.196   7.781 -0.8394 -1.3964  0.4607
   55CHL1   H17 4021   6.118   1.121   7.796 -1.5477 -0.3473  2.2730
   55CHL1   C13 4022   6.297   1.138   7.673 -0.0638  0.2984  0.7599
   55CHL1   C18 4023   6.425   1.233   7.663  0.0954  0.2496 -0.5453
   55CHL1  H18A 4024   6.480   1.226   7.567 -1.0039 -0.0636 -1.1611
   55CHL1  H18B 4025   6.392   1.334   7.695  0.5090 -0.3838  2.1964
   55CHL1  H18C 4026   6.495   1.196   7.742 -1.5186 -2.8687 -0.4516
   55CHL1   C12 4027   6.327   0.986   7.669 -0.5339 -0.1652  0.6552
   55CHL1  H12A 4028   6.400   0.958   7.749 -1.0373 -0.5047  0.9999
   55CHL1  H12B 4029   6.231   0.931   7.676  1.3904 -3.6850  2.4353
   55CHL1   C11 4030   6.400   0.946   7.542 -0.0410 -0.4041  0.0403
   55CHL1  H11A 4031   6.499   0.995   7.555 -0.4997  0.1160  1.8718
   55CHL1  H11B 4032   6.405   0.836   7.526  0.7922 -0.3813  0.0849
   55CHL1    C9 4033   6.324   0.995   7.408  0.6625  0.1340  0.7223
   55CHL1    H9 4034   6.229   0.938   7.402  0.7542  0.1133 -1.4518
   55CHL1   C10 4035   6.388   0.955   7.276 -0.0085  0.1178 -0.3449
   55CHL1   C19 4036   6.536   1.006   7.282 -0.2896 -0.1206 -0.2889
   55CHL1  H19A 4037   6.587   0.944   7.359 -0.1248  2.0960  1.4564
   55CHL1  H19B 4038   6.592   1.008   7.186 -1.2818 -0.3518 -0.8968
   55CHL1  H19C 4039   6.542   1.113   7.311 -1.5332 -0.0541 -0.1934
   55CHL1    C1 4040   6.380   0.801   7.253  0.5272  0.0244 -0.1418
   55CHL1   H1A 4041   6.453   0.757   7.325 -2.1240 -1.1008  2.0518
   55CHL1   H1B 4042   6.278   0.777   7.290  1.7177 -1.4842  2.4277
   55CHL1    C2 4043   6.421   0.752   7.115  0.2410 -0.0970 -0.6794
   55CHL1   H2A 4044   6.406   0.642   7.114 -0.2993 -0.0364 -0.1791
   55CHL1   H2B 4045   6.530   0.772   7.113  0.7133 -1.7255  2.2738
   55CHL1   C20 4046   6.259   1.233   7.922 -0.3275 -0.3996  0.2671
   55CHL1   H20 4047   6.335   1.315   7.922 -0.9961  0.2269 -0.0012
   55CHL1   C21 4048   6.329   1.109   7.987  0.1602  0.3758 -0.0022
   55CHL1  H21A 4049   6.245   1.036   7.997 -0.1703  0.8702  1.0216
   55CHL1  H21B 4050   6.385   1.129   8.081  1.3542  0.2363 -0.6658
   55CHL1  H21C 4051   6.396   1.073   7.907 -1.3498 -1.2513 -0.6058
   55CHL1   C22 4052   6.152   1.292   8.024  0.1977 -0.2256 -0.1382
   55CHL1  H22A 4053   6.072   1.345   7.969  0.3642  0.5965  0.3933
   55CHL1  H22B 4054   6.102   1.206   8.073  1.1214  0.0189  1.3162
   55CHL1   C23 4055   6.217   1.371   8.133 -0.2586 -0.0601 -0.2097
   55CHL1  H23A 4056   6.165   1.352   8.230 -1.2256 -1.6010 -1.0025
   55CHL1  H23B 4057   6.315   1.323   8.151 -0.4092 -0.2620  0.0862
   55CHL1   C24 4058   6.226   1.526   8.104  0.0354  0.4099  0.6610
   55CHL1  H24A 4059   6.268   1.535   8.002  0.9404  3.2560  1.1996
   55CHL1  H24B 4060   6.123   1.567   8.109 -0.8049 -1.5923  0.8194
   55CHL1   C25 4061   6.313   1.599   8.201  0.2138  0.0375  0.0484
   55CHL1   H25 4062   6.413   1.553   8.190  1.4291  3.0640 -3.8597
   55CHL1   C26 4063   6.342   1.743   8.148 -0.1345  0.1735  0.6524
   55CHL1  H26A 4064   6.405   1.814   8.205 -0.2752 -1.8021  3.4776
   55CHL1  H26B 4065   6.370   1.742   8.040 -2.1592 -1.8982  0.0516
   55CHL1  H26C 4066   6.241   1.788   8.159 -0.4122 -0.1683 -0.3418
   55CHL1   C27 4067   6.261   1.590   8.337  0.7025  0.1539 -0.0388
   55CHL1  H27A 4068   6.227   1.491   8.374  1.6846 -0.8437 -1.6887
   55CHL1  H27B 4069   6.335   1.622   8.413  0.8444  0.6557 -0.3878
   55CHL1  H27C 4070   6.167   1.647   8.351 -1.1827 -3.1344  1.8742
   56CHL1    C3 4071   6.340   5.676   6.941  0.1726  0.6239  0.4381
   56CHL1    H3 4072   6.400   5.583   6.952  0.3929  0.7105 -0.0280
   56CHL1    O3 4073   6.320   5.684   6.797  0.2550  0.2269  1.0059
   56CHL1   H3' 4074   6.374   5.754   6.761  0.5992 -1.1851 -1.5024
   56CHL1    C4 4075   6.198   5.662   7.014 -0.1596  0.2329  0.4474
   56CHL1   H4A 4076   6.134   5.744   6.975  2.2890  1.1243 -2.0653
   56CHL1   H4B 4077   6.149   5.567   6.982  1.7990 -0.3853 -0.8888
   56CHL1    C5 4078   6.209   5.685   7.164  0.2521 -0.2469  0.1165
   56CHL1    C6 4079   6.160   5.586   7.240  0.1098  0.2515 -0.0834
   56CHL1    H6 4080   6.107   5.506   7.187 -2.0053  1.7164 -0.3214
   56CHL1    C7 4081   6.157   5.598   7.393  0.3442  0.5465  0.1819
   56CHL1   H7A 4082   6.054   5.569   7.420 -0.1609  1.5165 -0.5993
   56CHL1   H7B 4083   6.239   5.537   7.436  0.4584  1.9088  1.9741
   56CHL1    C8 4084   6.190   5.738   7.441 -0.0975 -0.2286 -0.3072
   56CHL1    H8 4085   6.106   5.810   7.424 -1.0378 -1.3487 -0.5728
   56CHL1   C14 4086   6.217   5.727   7.591 -0.3303  0.0112 -0.0368
   56CHL1   H14 4087   6.311   5.668   7.592 -1.5974 -2.3086 -3.0280
   56CHL1   C15 4088   6.122   5.657   7.687 -0.0391 -0.0543 -0.5101
   56CHL1  H15A 4089   6.030   5.667   7.625 -0.5645 -1.7891 -0.0754
   56CHL1  H15B 4090   6.142   5.548   7.677 -2.1957 -0.6752  1.3763
   56CHL1   C16 4091   6.140   5.720   7.827  0.4685 -0.2288  0.2622
   56CHL1  H16A 4092   6.047   5.766   7.864 -0.4115 -1.3812 -0.4567
   56CHL1  H16B 4093   6.173   5.642   7.899  1.4922  0.7769  0.9230
   56CHL1   C17 4094   6.254   5.828   7.811  0.4170  0.0211 -0.3394
   56CHL1   H17 4095   6.357   5.789   7.826 -0.4692 -2.5637 -0.5299
   56CHL1   C13 4096   6.247   5.869   7.657 -0.3156 -0.0549 -0.2597
   56CHL1   C18 4097   6.121   5.960   7.639 -0.4483 -0.1654 -0.0976
   56CHL1  H18A 4098   6.107   5.985   7.532 -1.1768  1.4482  0.3267
   56CHL1  H18B 4099   6.023   5.921   7.674  0.0793 -0.8109  0.6834
   56CHL1  H18C 4100   6.138   6.057   7.691  1.4664 -0.0953 -0.8055
   56CHL1   C12 4101   6.384   5.923   7.600  0.0472  0.0127 -0.0411
   56CHL1  H12A 4102   6.398   6.028   7.634 -2.1571 -0.2891  1.9946
   56CHL1  H12B 4103   6.475   5.866   7.628  0.4158  0.1539 -0.8945
   56CHL1   C11 4104   6.385   5.916   7.444  0.3045  0.3776 -0.5506
   56CHL1  H11A 4105   6.334   6.007   7.407 -0.5508  0.4865  0.8207
   56CHL1  H11B 4106   6.487   5.920   7.400 -0.6082  1.5053 -2.7407
   56CHL1    C9 4107   6.312   5.790   7.375 -0.3953 -0.1538 -0.7879
   56CHL1    H9 4108   6.389   5.711   7.391 -1.1844 -1.1165 -1.6329
   56CHL1   C10 4109   6.287   5.801   7.220 -0.0476  0.0379  0.4057
   56CHL1   C19 4110   6.201   5.921   7.190  0.0285 -0.7663 -0.1349
   56CHL1  H19A 4111   6.112   5.908   7.256  0.0002 -0.4509 -0.1108
   56CHL1  H19B 4112   6.252   6.016   7.217  1.3013 -2.1666  2.9195
   56CHL1  H19C 4113   6.172   5.920   7.083 -0.7089  2.5272 -0.0777
   56CHL1    C1 4114   6.417   5.803   7.138 -0.4297  0.0509 -0.5800
   56CHL1   H1A 4115   6.463   5.900   7.165 -0.4270  0.0845 -0.7045
   56CHL1   H1B 4116   6.484   5.717   7.162  0.6259  1.0912  0.3908
   56CHL1    C2 4117   6.408   5.803   6.986 -0.1412 -0.5214  0.1129
   56CHL1   H2A 4118   6.506   5.820   6.935  0.8088 -1.0566  1.6780
   56CHL1   H2B 4119   6.348   5.890   6.951 -0.1260  0.0651  1.4706
   56CHL1   C20 4120   6.237   5.939   7.919  1.4400  0.2600  0.1271
   56CHL1   H20 4121   6.132   5.975   7.907  1.4178 -0.1692 -1.0081
   56CHL1   C21 4122   6.334   6.057   7.890  0.3846  0.5485  0.1926
   56CHL1  H21A 4123   6.296   6.120   7.807 -2.4811  0.0448  0.9786
   56CHL1  H21B 4124   6.438   6.020   7.876 -0.0295 -1.0401  0.9959
   56CHL1  H21C 4125   6.327   6.127   7.976 -0.3417  0.7751 -0.0433
   56CHL1   C22 4126   6.244   5.889   8.072  0.4224  0.0905  0.2247
   56CHL1  H22A 4127   6.165   5.814   8.092  0.7372 -0.5082 -0.7038
   56CHL1  H22B 4128   6.341   5.838   8.086 -0.2614 -1.4432 -0.4583
   56CHL1   C23 4129   6.236   5.996   8.193 -0.0170  0.7191  0.7560
   56CHL1  H23A 4130   6.247   5.936   8.286 -1.6693  0.7015  0.9627
   56CHL1  H23B 4131   6.314   6.075   8.185  1.3338 -0.6081  0.1909
   56CHL1   C24 4132   6.098   6.070   8.207 -0.2238 -0.4454  0.6906
   56CHL1  H24A 4133   6.062   6.100   8.106 -0.3831 -1.4642  0.4301
   56CHL1  H24B 4134   6.012   6.011   8.244 -1.2517 -0.1531 -1.1000
   56CHL1   C25 4135   6.097   6.194   8.293 -0.6223 -0.1231 -0.5024
   56CHL1   H25 4136   6.167   6.266   8.246 -0.8319  0.4822  0.1109
   56CHL1   C26 4137   5.957   6.254   8.311  0.3280  0.1413 -0.3355
   56CHL1  H26A 4138   5.892   6.180   8.364  1.2787  1.2030  2.5216
   56CHL1  H26B 4139   5.898   6.259   8.218  0.7451 -0.5451 -0.6476
   56CHL1  H26C 4140   5.953   6.349   8.368 -1.1031 -0.8777  1.3787
   56CHL1   C27 4141   6.168   6.172   8.435  0.0677 -0.1201  0.4043
   56CHL1  H27A 4142   6.166   6.274   8.481 -0.7619 -0.0816  0.2991
   56CHL1  H27B 4143   6.107   6.097   8.490 -0.2587 -0.5329 -0.4964
   56CHL1  H27C 4144   6.272   6.135   8.422  0.2498 -0.3788  2.3037
   57SAPC     N 4145   1.704   4.057  10.949 -0.4947 -0.2855 -0.0669
   57SAPC   C12 4146   1.704   3.988  10.815  0.3106  0.5624  0.7687
   57SAPC  H12A 4147   1.798   4.021  10.772  0.1443  0.2556  0.1496
   57SAPC  H12B 4148   1.633   4.034  10.748  2.0298 -0.4680 -1.9828
   57SAPC   C13 4149   1.813   4.005  11.039 -0.3511  0.2911  0.7452
   57SAPC  H13A 4150   1.800   3.898  11.045  0.6427  0.0405 -0.8237
   57SAPC  H13B 4151   1.909   4.016  10.990 -1.1249  1.8423 -0.5471
   57SAPC  H13C 4152   1.822   4.048  11.137  4.0267 -0.2585  0.8019
   57SAPC   C14 4153   1.726   4.201  10.923  0.8661  0.6488  0.6522
   57SAPC  H14A 4154   1.739   4.255  11.016  0.1478 -0.7480  1.5957
   57SAPC  H14B 4155   1.816   4.225  10.869  2.7187 -2.1473  2.2723
   57SAPC  H14C 4156   1.640   4.253  10.884  0.5477 -0.0722  0.3831
   57SAPC   C15 4157   1.573   4.033  11.023  0.1425 -0.7692  0.4226
   57SAPC  H15A 4158   1.488   4.017  10.959  0.5055  0.9078 -0.5524
   57SAPC  H15B 4159   1.578   3.940  11.078 -1.2126 -0.5248  0.9987
   57SAPC  H15C 4160   1.550   4.115  11.091  0.3367  0.4264 -0.9086
   57SAPC   C11 4161   1.701   3.827  10.808  0.1322  0.1129  0.0792
   57SAPC  H11A 4162   1.654   3.789  10.714 -4.5606 -0.0830  2.2363
   57SAPC  H11B 4163   1.623   3.799  10.881  0.7054 -1.3257  0.1556
   57SAPC     P 4164   1.954   3.796  10.758  0.1896 -0.0524  0.2855
   57SAPC   O13 4165   2.034   3.903  10.824  0.9763 -0.3877 -0.6615
   57SAPC   O14 4166   2.019   3.667  10.732 -0.2536  0.1375  0.4642
   57SAPC   O12 4167   1.823   3.765  10.839  0.3949 -0.5413 -0.2347
   57SAPC   O11 4168   1.902   3.854  10.621 -0.0723 -0.0781  0.3256
   57SAPC    C1 4169   1.844   3.772  10.513  0.9488 -0.7523 -0.5365
   57SAPC    HA 4170   1.919   3.712  10.458  1.3825 -0.7930  0.0773
   57SAPC    HB 4171   1.776   3.695  10.554  1.8459 -1.4398 -0.3075
   57SAPC    C2 4172   1.782   3.854  10.397 -0.3390  0.1751 -0.5334
   57SAPC    HS 4173   1.788   3.781  10.313  1.0940 -1.1050  0.6305
   57SAPC   O21 4174   1.861   3.965  10.355  0.0448  0.2915  0.1640
   57SAPC   C21 4175   1.981   3.939  10.297  0.8084  0.5139  0.1783
   57SAPC   O22 4176   2.023   3.832  10.256 -0.1310 -0.5961 -0.2611
   57SAPC   C22 4177   2.063   4.068  10.300 -0.0329 -0.0455 -0.2813
   57SAPC   H2R 4178   2.031   4.146  10.227  1.3373  2.4006  1.5656
   57SAPC   H2S 4179   2.064   4.122  10.397  0.7202  1.4134 -1.0540
   57SAPC    C3 4180   1.636   3.914  10.428 -0.4680  0.6475  0.7429
   57SAPC    HX 4181   1.610   3.974  10.338  1.7773  0.4408 -0.1004
   57SAPC    HY 4182   1.649   3.978  10.518 -1.3494  0.2298  1.1856
   57SAPC   O31 4183   1.543   3.808  10.444  0.1034 -0.3246  0.0106
   57SAPC   C31 4184   1.422   3.851  10.468 -0.6928 -0.5599 -0.7216
   57SAPC   O32 4185   1.392   3.972  10.479  0.2964 -0.1144 -0.2885
   57SAPC   C32 4186   1.325   3.730  10.471  0.4913 -0.7342 -0.4267
   57SAPC   H2X 4187   1.321   3.698  10.578 -1.2831  0.3425 -0.1299
   57SAPC   H2Y 4188   1.365   3.639  10.421  1.3600 -0.4203 -0.3095
   57SAPC   C23 4189   2.208   4.038  10.271  0.4291 -0.3512 -0.4395
   57SAPC   H3R 4190   2.228   3.994  10.171  2.0250  1.7036 -1.1088
   57SAPC   H3S 4191   2.249   3.973  10.350 -0.8997  1.3310  1.7493
   57SAPC   C24 4192   2.299   4.171  10.270 -0.3593  0.6508  0.5069
   57SAPC   H4R 4193   2.274   4.230  10.360  2.1987  1.9514  0.4304
   57SAPC   H4S 4194   2.251   4.214  10.179  0.0644 -0.5663 -0.3335
   57SAPC   C25 4195   2.437   4.127  10.265  0.0742 -0.8786 -0.1349
   57SAPC   H5R 4196   2.469   4.085  10.361 -0.9122  0.5703  0.8743
   57SAPC   C26 4197   2.521   4.142  10.157 -0.1516 -0.0005  0.2198
   57SAPC   H6R 4198   2.616   4.088  10.158 -1.1466 -1.8183  0.0917
   57SAPC   C27 4199   2.480   4.212  10.028 -0.4887  0.2699 -0.0272
   57SAPC   H7R 4200   2.563   4.273   9.985 -1.3436  2.2620  1.0084
   57SAPC   H7S 4201   2.405   4.291  10.047 -1.0438  0.6769 -3.3448
   57SAPC   C28 4202   2.425   4.110   9.931 -0.0256  0.6390 -0.0256
   57SAPC   H8R 4203   2.409   4.010   9.973 -0.6208  1.0810  0.8229
   57SAPC   C29 4204   2.432   4.115   9.792  0.4933 -0.9388  0.5747
   57SAPC   H9R 4205   2.394   4.030   9.734 -0.3482 -0.0219 -0.2402
   57SAPC  C210 4206   2.468   4.244   9.717  0.2773  0.0388  0.3976
   57SAPC  H10R 4207   2.576   4.235   9.692 -0.0632 -0.7003 -0.8753
   57SAPC  H10S 4208   2.461   4.320   9.797 -0.7528  1.5702 -1.0946
   57SAPC  C211 4209   2.386   4.280   9.595  0.4393  0.3934 -0.3318
   57SAPC  H11R 4210   2.280   4.253   9.605  0.3312  0.1599 -1.8620
   57SAPC  C212 4211   2.421   4.353   9.490 -0.9654  1.2444 -0.0910
   57SAPC  H12R 4212   2.349   4.363   9.407 -1.0973  0.2979 -0.1044
   57SAPC  C213 4213   2.563   4.408   9.457 -0.6395 -0.2324  0.6483
   57SAPC  H13R 4214   2.605   4.341   9.379 -0.7441 -0.7409  1.0213
   57SAPC  H13S 4215   2.627   4.401   9.548  0.1127 -0.1409  0.1355
   57SAPC  C214 4216   2.566   4.554   9.417  0.4699 -0.0612  0.7745
   57SAPC  H14R 4217   2.558   4.627   9.499  1.0897 -0.6988  1.4148
   57SAPC  C215 4218   2.580   4.600   9.289 -0.2996 -0.0503  0.1624
   57SAPC  H15R 4219   2.579   4.709   9.272 -0.4163  0.3378  2.3852
   57SAPC  C216 4220   2.604   4.516   9.164  0.5645 -0.2789  0.1658
   57SAPC  H16R 4221   2.528   4.436   9.159  0.1014  0.2281 -1.5809
   57SAPC  H16S 4222   2.701   4.463   9.160  0.3633 -0.5437 -1.4882
   57SAPC  C217 4223   2.590   4.615   9.046 -0.7980 -0.1215  0.4727
   57SAPC  H17R 4224   2.492   4.663   9.027 -1.2256 -0.8114  0.8684
   57SAPC  H17S 4225   2.614   4.548   8.961 -2.2697 -0.7590  0.5368
   57SAPC  C218 4226   2.704   4.725   9.015  0.0517  0.3372 -0.5135
   57SAPC  H18R 4227   2.806   4.680   9.012 -0.6376 -1.6962  2.2189
   57SAPC  H18S 4228   2.715   4.805   9.091  1.8545  1.4086 -1.8126
   57SAPC  C219 4229   2.679   4.809   8.885  0.6418  0.7339 -0.3336
   57SAPC  H19R 4230   2.741   4.902   8.890  1.9999 -0.1568 -0.1045
   57SAPC  H19S 4231   2.571   4.834   8.891  0.6776  0.7206  0.4953
   57SAPC  C220 4232   2.711   4.729   8.754  0.0713  0.8646  0.3506
   57SAPC  H20R 4233   2.790   4.778   8.695  0.1682 -0.0879 -0.3325
   57SAPC  H20S 4234   2.618   4.719   8.694  1.1492 -0.8698 -1.1443
   57SAPC  H20T 4235   2.747   4.629   8.787 -2.8082  0.2806  2.1488
   57SAPC   C33 4236   1.181   3.771  10.420 -0.2114 -0.4143  0.6614
   57SAPC   H3X 4237   1.165   3.875  10.456 -1.9884  0.6784 -2.8583
   57SAPC   H3Y 4238   1.098   3.703  10.447 -0.7047  0.2397  0.8193
   57SAPC   C34 4239   1.187   3.781  10.265  0.4631  0.2094  0.6690
   57SAPC   H4X 4240   1.258   3.704  10.228 -0.9932 -0.8578  0.0083
   57SAPC   H4Y 4241   1.223   3.882  10.235  3.2199 -1.5098 -2.3612
   57SAPC   C35 4242   1.057   3.759  10.203 -0.0275  0.8549 -0.4668
   57SAPC   H5X 4243   0.977   3.786  10.275  0.1804  0.5928 -0.1392
   57SAPC   H5Y 4244   1.046   3.650  10.188  1.2644  0.6430  0.0560
   57SAPC   C36 4245   1.043   3.838  10.071  0.3003  0.1430 -0.3186
   57SAPC   H6X 4246   1.118   3.804   9.996  3.0602  0.6531  2.0165
   57SAPC   H6Y 4247   1.056   3.942  10.106 -1.6850  0.9028 -1.6688
   57SAPC   C37 4248   0.893   3.826  10.012 -0.7844  0.2354 -0.9777
   57SAPC   H7X 4249   0.813   3.842  10.086  1.9603  3.3028  1.6227
   57SAPC   H7Y 4250   0.892   3.720   9.978 -1.1409 -0.4055  0.9221
   57SAPC   C38 4251   0.874   3.906   9.881  0.1345 -1.0817 -0.4469
   57SAPC   H8X 4252   0.971   3.921   9.828  1.1557  0.9520  1.7959
   57SAPC   H8Y 4253   0.838   4.005   9.917  0.1109 -0.8613 -1.0642
   57SAPC   C39 4254   0.765   3.845   9.801  0.0280 -0.6060 -0.4842
   57SAPC   H9X 4255   0.672   3.822   9.858  0.0318  0.1320 -0.1834
   57SAPC   H9Y 4256   0.793   3.743   9.766 -0.5445 -0.3866 -1.6124
   57SAPC  C310 4257   0.728   3.928   9.676  1.3665  0.4696  0.0879
   57SAPC  H10X 4258   0.757   4.034   9.689 -2.7289  1.8105 -0.5013
   57SAPC  H10Y 4259   0.622   3.907   9.651  1.7301 -0.0524 -1.0924
   57SAPC  C311 4260   0.830   3.897   9.560 -0.0704 -0.5354  0.3831
   57SAPC  H11X 4261   0.801   3.794   9.529 -1.7119  0.1309 -0.4131
   57SAPC  H11Y 4262   0.933   3.888   9.600 -0.1285 -1.5932  0.3296
   57SAPC  C312 4263   0.816   4.001   9.442 -1.0885  0.7075  0.4475
   57SAPC  H12X 4264   0.859   4.091   9.492 -0.9305  0.8486  0.0587
   57SAPC  H12Y 4265   0.707   4.012   9.423 -0.8238  1.1312 -0.9584
   57SAPC  C313 4266   0.900   3.957   9.322  0.2844  0.1141  0.1653
   57SAPC  H13X 4267   0.871   3.853   9.297 -0.2914  0.7600 -2.0701
   57SAPC  H13Y 4268   1.009   3.952   9.344  0.8474 -2.8221 -2.4627
   57SAPC  C314 4269   0.857   4.039   9.194  0.5756  0.2184 -0.3697
   57SAPC  H14X 4270   0.898   4.140   9.211  1.3512 -0.1284 -0.1307
   57SAPC  H14Y 4271   0.746   4.044   9.190  0.4102 -2.0033  0.1024
   57SAPC  C315 4272   0.921   3.994   9.063 -0.4848  0.3276  0.0835
   57SAPC  H15X 4273   0.851   3.992   8.977  0.3545  0.4022 -0.6151
   57SAPC  H15Y 4274   0.958   3.890   9.076  0.2184  0.5363 -0.1904
   57SAPC  C316 4275   1.043   4.090   9.033  0.6714 -0.0944 -0.3474
   57SAPC  H16X 4276   1.126   4.037   9.085  0.0661  0.3278  1.0950
   57SAPC  H16Y 4277   1.040   4.195   9.070  1.8930  1.4433 -4.0920
   57SAPC  C317 4278   1.081   4.099   8.883 -0.4714  0.0663 -0.7585
   57SAPC  H17X 4279   1.010   4.164   8.828 -0.4454  0.6508 -0.1132
   57SAPC  H17Y 4280   1.082   3.996   8.841 -0.9044 -0.4735  0.5080
   57SAPC  C318 4281   1.223   4.168   8.862  0.2046 -0.6668  0.7913
   57SAPC  H18X 4282   1.238   4.247   8.939  1.5879  1.0721 -1.1345
   57SAPC  H18Y 4283   1.231   4.219   8.763  3.5684  0.1385  1.3516
   57SAPC  H18Z 4284   1.301   4.089   8.871  0.5886 -0.6757 -1.8043
   58SAPC     N 4285   3.590   1.090  11.029  0.3536 -0.1301 -0.2367
   58SAPC   C12 4286   3.523   1.011  10.917 -0.0838  0.3448 -0.0402
   58SAPC  H12A 4287   3.423   0.993  10.954 -0.9141 -2.2268 -3.0535
   58SAPC  H12B 4288   3.574   0.919  10.893  1.0817  0.8409  0.4908
   58SAPC   C13 4289   3.732   1.131  10.987 -0.3899 -0.2523  0.3464
   58SAPC  H13A 4290   3.775   1.037  10.955 -0.3553 -0.8677  2.0966
   58SAPC  H13B 4291   3.726   1.197  10.902 -0.4519 -0.6708  0.0181
   58SAPC  H13C 4292   3.788   1.175  11.068 -0.8440 -0.9766  1.0635
   58SAPC   C14 4293   3.510   1.218  11.075  0.2553 -0.6969 -0.9048
   58SAPC  H14A 4294   3.408   1.195  11.102  1.0620 -0.7821  2.4535
   58SAPC  H14B 4295   3.556   1.250  11.168  0.3715 -2.4821 -0.3002
   58SAPC  H14C 4296   3.525   1.303  11.010 -1.3977  0.4766  0.1880
   58SAPC   C15 4297   3.602   1.010  11.148  0.1658  0.9886 -0.7745
   58SAPC  H15A 4298   3.635   0.909  11.132 -0.3114  1.0471 -2.2810
   58SAPC  H15B 4299   3.670   1.056  11.219  0.0341 -0.1463  0.1186
   58SAPC  H15C 4300   3.506   0.999  11.197 -0.3591  2.6233 -1.3662
   58SAPC   C11 4301   3.516   1.078  10.778 -0.1114  0.3912 -0.2630
   58SAPC  H11A 4302   3.518   1.188  10.794  0.9141  0.4396 -0.7129
   58SAPC  H11B 4303   3.425   1.038  10.727 -0.3070 -1.8652  1.6872
   58SAPC     P 4304   3.669   0.920  10.638 -0.1245  0.1068  0.3418
   58SAPC   O13 4305   3.785   0.942  10.549  0.0430 -0.0594 -0.6400
   58SAPC   O14 4306   3.677   0.832  10.752  0.4451  0.6020 -0.2752
   58SAPC   O12 4307   3.634   1.061  10.706  0.0018 -0.6094 -0.1291
   58SAPC   O11 4308   3.543   0.882  10.563 -0.2578  0.3138  0.2247
   58SAPC    C1 4309   3.525   0.756  10.494  0.1790 -0.3279  0.3796
   58SAPC    HA 4310   3.589   0.675  10.535 -2.5339 -2.5324  0.5243
   58SAPC    HB 4311   3.422   0.718  10.505  0.9784 -2.6368  0.3548
   58SAPC    C2 4312   3.562   0.754  10.345  0.0708 -0.1873 -0.1330
   58SAPC    HS 4313   3.664   0.791  10.322 -0.2942  2.0075  1.4259
   58SAPC   O21 4314   3.462   0.816  10.259  0.1327  0.1429 -0.4423
   58SAPC   C21 4315   3.484   0.944  10.239  0.1671  0.4341  0.0431
   58SAPC   O22 4316   3.578   1.011  10.282 -0.3067  0.3005 -0.0729
   58SAPC   C22 4317   3.375   0.990  10.141 -0.5567  0.4063  0.1661
   58SAPC   H2R 4318   3.363   0.903  10.072 -1.9036 -0.3551  1.3167
   58SAPC   H2S 4319   3.284   0.995  10.203 -0.6629 -0.0670  0.0532
   58SAPC    C3 4320   3.578   0.609  10.304  0.2285  0.1252  0.1319
   58SAPC    HX 4321   3.495   0.543  10.337  0.9869 -0.1433  1.5753
   58SAPC    HY 4322   3.660   0.566  10.365  1.4631  1.3320 -0.6306
   58SAPC   O31 4323   3.608   0.596  10.163 -0.3402 -0.2201  0.3637
   58SAPC   C31 4324   3.733   0.607  10.127  0.4613 -0.0944 -0.2439
   58SAPC   O32 4325   3.829   0.613  10.206  0.7541 -0.0702 -0.0114
   58SAPC   C32 4326   3.741   0.612   9.974  0.2643  0.4623 -0.0611
   58SAPC   H2X 4327   3.664   0.691   9.958 -1.4984 -0.7615  1.9007
   58SAPC   H2Y 4328   3.694   0.518   9.936 -2.2856  1.6405 -0.0404
   58SAPC   C23 4329   3.422   1.111  10.059  0.3660 -0.3065 -0.3737
   58SAPC   H3R 4330   3.427   1.201  10.124  1.4095  0.2719 -1.2307
   58SAPC   H3S 4331   3.337   1.138   9.991  0.8221  0.9698 -0.4775
   58SAPC   C24 4332   3.561   1.098   9.984  0.2962 -0.2305 -0.2442
   58SAPC   H4R 4333   3.644   1.093  10.057 -1.0971  2.5447  1.7101
   58SAPC   H4S 4334   3.577   1.188   9.923 -1.7410  0.8415  0.6835
   58SAPC   C25 4335   3.556   0.974   9.905  0.4069  0.2135  0.5602
   58SAPC   H5R 4336   3.581   0.880   9.957  1.0744  0.4546  0.6880
   58SAPC   C26 4337   3.503   0.973   9.779  0.9070  0.3851  0.5807
   58SAPC   H6R 4338   3.502   0.883   9.716  1.2914  0.1057  0.9650
   58SAPC   C27 4339   3.458   1.095   9.706  1.0125  0.3554 -0.1674
   58SAPC   H7R 4340   3.543   1.158   9.671  0.3191  1.6524  0.4196
   58SAPC   H7S 4341   3.406   1.168   9.772  0.3138 -1.1522  1.0015
   58SAPC   C28 4342   3.364   1.060   9.593  0.2138  0.0799  0.4266
   58SAPC   H8R 4343   3.263   1.033   9.626 -0.0385  1.9659  1.3354
   58SAPC   C29 4344   3.384   1.051   9.462  0.9935 -0.1743 -0.5707
   58SAPC   H9R 4345   3.295   1.022   9.403 -0.1708  0.9661  0.5521
   58SAPC  C210 4346   3.507   1.087   9.391  0.1566  0.1792  0.0533
   58SAPC  H10R 4347   3.598   1.082   9.454  1.8818 -0.2297 -2.3335
   58SAPC  H10S 4348   3.505   1.189   9.346 -0.9998  0.5339  0.8731
   58SAPC  C211 4349   3.528   0.982   9.279  0.0976 -0.3775 -0.4353
   58SAPC  H11R 4350   3.546   0.878   9.310  0.4599 -0.2131 -0.0891
   58SAPC  C212 4351   3.536   1.013   9.145 -0.5814 -0.4617  0.4577
   58SAPC  H12R 4352   3.570   0.937   9.073  0.1751  0.2495  0.0388
   58SAPC  C213 4353   3.509   1.158   9.099  0.4472  0.7406  0.3250
   58SAPC  H13R 4354   3.603   1.217   9.097  1.1337 -0.3455  0.1162
   58SAPC  H13S 4355   3.446   1.216   9.171 -1.3130 -0.3067 -0.3191
   58SAPC  C214 4356   3.449   1.163   8.961 -0.5368 -0.3258 -0.2774
   58SAPC  H14R 4357   3.497   1.239   8.898 -1.9021  1.3756  0.6452
   58SAPC  C215 4358   3.348   1.096   8.916  1.0529 -0.1939  0.2631
   58SAPC  H15R 4359   3.319   1.120   8.812  0.5220  2.8031  0.9949
   58SAPC  C216 4360   3.271   0.989   8.985 -0.4111  0.0006 -0.4444
   58SAPC  H16R 4361   3.263   1.025   9.090  0.4487  1.2219 -0.7740
   58SAPC  H16S 4362   3.327   0.894   8.980  0.9865  0.7975 -0.4452
   58SAPC  C217 4363   3.133   0.955   8.938 -0.1100 -0.0070 -0.3189
   58SAPC  H17R 4364   3.080   1.053   8.929  1.4742  0.7383 -2.1499
   58SAPC  H17S 4365   3.085   0.902   9.024 -0.2848  0.4753 -0.1143
   58SAPC  C218 4366   3.134   0.880   8.807  0.4043 -0.4818 -0.3676
   58SAPC  H18R 4367   3.216   0.804   8.807  0.1328 -0.7829  0.3775
   58SAPC  H18S 4368   3.157   0.959   8.732  2.9273  0.9228  1.7491
   58SAPC  C219 4369   2.997   0.821   8.774  0.5008  0.3206 -0.2446
   58SAPC  H19R 4370   2.927   0.906   8.760  0.8693  0.3157 -2.3613
   58SAPC  H19S 4371   2.950   0.765   8.858  0.7759 -0.7615 -0.8022
   58SAPC  C220 4372   2.997   0.734   8.640 -0.1639  0.1821  0.2665
   58SAPC  H20R 4373   3.054   0.641   8.664  0.8617  0.7983  0.2838
   58SAPC  H20S 4374   3.043   0.792   8.557 -2.1930  1.9600  0.3157
   58SAPC  H20T 4375   2.893   0.702   8.618 -0.4512 -0.9158  2.7953
   58SAPC   C33 4376   3.881   0.631   9.909  0.5952  0.5327 -0.8552
   58SAPC   H3X 4377   3.956   0.564   9.955 -0.1982 -0.2631 -0.7126
   58SAPC   H3Y 4378   3.911   0.738   9.913  0.9370  0.4315 -0.6629
   58SAPC   C34 4379   3.884   0.601   9.759  0.0073 -0.5796 -0.3174
   58SAPC   H4X 4380   3.844   0.500   9.737  0.6847 -0.7334 -0.9130
   58SAPC   H4Y 4381   3.989   0.616   9.724  0.0635 -0.2861 -0.0313
   58SAPC   C35 4382   3.791   0.700   9.673 -0.6787  0.1442  0.1107
   58SAPC   H5X 4383   3.836   0.800   9.686 -0.8768  0.0140  2.2811
   58SAPC   H5Y 4384   3.686   0.710   9.707 -1.3645 -1.5046 -1.3506
   58SAPC   C36 4385   3.791   0.659   9.525  0.1461  0.2558  0.3409
   58SAPC   H6X 4386   3.707   0.721   9.486  0.2451  0.9207  1.1582
   58SAPC   H6Y 4387   3.763   0.554   9.505  3.1760 -0.4679 -0.5014
   58SAPC   C37 4388   3.917   0.689   9.440  0.4730  0.2818 -0.1419
   58SAPC   H7X 4389   4.004   0.634   9.485  1.3564  2.1877  0.5823
   58SAPC   H7Y 4390   3.936   0.798   9.449 -1.3901  0.6991 -0.8510
   58SAPC   C38 4391   3.916   0.658   9.294 -0.5173  0.1376  1.3411
   58SAPC   H8X 4392   3.825   0.705   9.250  0.3637 -0.7596 -1.7283
   58SAPC   H8Y 4393   3.886   0.552   9.277 -0.5292  0.2491  0.6445
   58SAPC   C39 4394   4.042   0.699   9.210  0.5714 -0.3732 -0.0224
   58SAPC   H9X 4395   4.136   0.652   9.249  0.2770  0.2723  1.5510
   58SAPC   H9Y 4396   4.067   0.807   9.205 -1.8743  0.3441  1.4545
   58SAPC  C310 4397   4.017   0.652   9.058  0.3264  0.5276 -0.1719
   58SAPC  H10X 4398   3.929   0.711   9.028  0.5562  1.1698  0.3788
   58SAPC  H10Y 4399   3.990   0.544   9.062 -0.4135  0.6992 -0.6007
   58SAPC  C311 4400   4.137   0.670   8.971 -0.9294 -0.0986  0.7526
   58SAPC  H11X 4401   4.221   0.611   9.013 -0.4013 -0.1228 -0.3047
   58SAPC  H11Y 4402   4.174   0.775   8.968  2.9715 -1.3105  0.9040
   58SAPC  C312 4403   4.122   0.618   8.827 -0.1124  0.5528  0.2754
   58SAPC  H12X 4404   4.084   0.514   8.829  2.2333 -0.3837 -0.2068
   58SAPC  H12Y 4405   4.222   0.614   8.779  0.0417  2.2693  0.4034
   58SAPC  C313 4406   4.039   0.704   8.731  0.3367 -0.5762  0.5892
   58SAPC  H13X 4407   4.061   0.813   8.737  1.2674 -0.6142 -1.3561
   58SAPC  H13Y 4408   3.935   0.696   8.770  0.4549 -0.1843  1.0000
   58SAPC  C314 4409   4.042   0.661   8.589 -0.6229 -0.3809 -0.2405
   58SAPC  H14X 4410   4.146   0.673   8.550 -0.0122  0.6740  1.5914
   58SAPC  H14Y 4411   3.974   0.720   8.524  0.2293  0.0482 -0.7670
   58SAPC  C315 4412   4.003   0.511   8.571 -0.4470  0.2052  0.1853
   58SAPC  H15X 4413   3.909   0.489   8.627  1.1036 -2.2050  2.0308
   58SAPC  H15Y 4414   4.076   0.439   8.612 -3.0583 -4.5250 -2.5923
   58SAPC  C316 4415   4.002   0.472   8.417  0.2144  0.8132  0.2063
   58SAPC  H16X 4416   4.104   0.490   8.375 -0.2806 -2.6401 -2.9584
   58SAPC  H16Y 4417   3.933   0.539   8.362  0.7641  2.3635  1.3208
   58SAPC  C317 4418   3.975   0.317   8.394  0.4664 -0.0908  0.1088
   58SAPC  H17X 4419   3.870   0.297   8.422  0.2198  0.2482 -0.5511
   58SAPC  H17Y 4420   4.034   0.257   8.466 -1.5494  0.5232  2.3874
   58SAPC  C318 4421   3.993   0.294   8.238  0.0966  0.6596  0.6621
   58SAPC  H18X 4422   3.995   0.186   8.213  0.1059  0.6804  0.5744
   58SAPC  H18Y 4423   4.087   0.334   8.193  0.7826 -1.2336  0.3403
   58SAPC  H18Z 4424   3.899   0.331   8.192 -1.8627 -1.8197  2.4221
   59SAPC     N 4425   5.709   2.568  11.447  0.7739 -0.0330  0.0732
   59SAPC   C12 4426   5.808   2.589  11.333  0.0906  0.1688 -0.0921
   59SAPC  H12A 4427   5.887   2.516  11.337 -0.2719 -0.5214 -3.1064
   59SAPC  H12B 4428   5.855   2.686  11.344 -1.7287  1.0627  0.1999
   59SAPC   C13 4429   5.575   2.642  11.435 -0.0961  0.0094  0.1775
   59SAPC  H13A 4430   5.511   2.583  11.371 -0.5744  2.0797 -1.3729
   59SAPC  H13B 4431   5.535   2.657  11.534 -0.4295 -0.4434  0.1133
   59SAPC  H13C 4432   5.599   2.736  11.387  0.8199 -0.7962 -1.0291
   59SAPC   C14 4433   5.680   2.417  11.460 -0.1043  0.4682 -0.3863
   59SAPC  H14A 4434   5.773   2.363  11.456 -0.7520 -1.0267  2.2387
   59SAPC  H14B 4435   5.624   2.387  11.547 -0.2593 -0.3056 -0.7514
   59SAPC  H14C 4436   5.633   2.388  11.368 -2.7203  0.5751  0.8395
   59SAPC   C15 4437   5.773   2.619  11.576  0.1411 -0.1496  0.1301
   59SAPC  H15A 4438   5.822   2.715  11.570  1.7731 -1.0230 -1.8173
   59SAPC  H15B 4439   5.701   2.621  11.656 -0.8737  0.9452 -0.7669
   59SAPC  H15C 4440   5.851   2.554  11.612  2.1269  2.3222  0.4956
   59SAPC   C11 4441   5.759   2.579  11.188  0.7288 -0.4562  0.2116
   59SAPC  H11A 4442   5.832   2.626  11.119  0.2590 -3.7751 -2.8481
   59SAPC  H11B 4443   5.664   2.637  11.181  1.5194  0.6998 -1.9083
   59SAPC     P 4444   5.846   2.335  11.144  0.1802 -0.2936 -0.1049
   59SAPC   O13 4445   5.978   2.393  11.183  0.1763  0.2125  0.2745
   59SAPC   O14 4446   5.803   2.216  11.221 -0.4214 -0.0017 -0.4246
   59SAPC   O12 4447   5.737   2.441  11.148  0.1352  0.0588 -0.0212
   59SAPC   O11 4448   5.849   2.296  10.989  0.0936 -0.3506 -0.2591
   59SAPC    C1 4449   5.922   2.385  10.906  0.3248 -0.8952  1.4066
   59SAPC    HA 4450   5.932   2.489  10.942  1.1333 -0.9048  1.2338
   59SAPC    HB 4451   6.025   2.353  10.880  1.6855  2.6380  2.0036
   59SAPC    C2 4452   5.846   2.390  10.768 -0.3319  0.0983  0.2171
   59SAPC    HS 4453   5.911   2.435  10.690 -0.4109  0.7296  0.5116
   59SAPC   O21 4454   5.714   2.457  10.780 -0.0904 -0.5514 -0.1657
   59SAPC   C21 4455   5.722   2.588  10.769 -0.1715  0.2081  0.0312
   59SAPC   O22 4456   5.825   2.657  10.766 -0.3777  0.1927 -0.1373
   59SAPC   C22 4457   5.582   2.650  10.774 -0.6246  0.2086  0.1290
   59SAPC   H2R 4458   5.539   2.641  10.876  0.5108 -0.6789  0.5525
   59SAPC   H2S 4459   5.589   2.755  10.741  0.7471  0.0613 -0.1014
   59SAPC    C3 4460   5.831   2.250  10.706 -0.6860  0.4030 -0.3788
   59SAPC    HX 4461   5.753   2.204  10.771  0.3467 -1.6063 -0.4725
   59SAPC    HY 4462   5.919   2.184  10.719 -0.6678  0.5145  0.0531
   59SAPC   O31 4463   5.794   2.259  10.568 -0.1762 -0.2313 -0.7487
   59SAPC   C31 4464   5.668   2.239  10.541 -0.2549  0.5734 -0.2169
   59SAPC   O32 4465   5.580   2.189  10.609  0.1045 -0.0660  0.3400
   59SAPC   C32 4466   5.647   2.287  10.404 -0.7968 -0.2547  0.3628
   59SAPC   H2X 4467   5.671   2.212  10.325 -1.9816  0.3770 -0.6484
   59SAPC   H2Y 4468   5.720   2.367  10.379  0.8537 -2.0222 -0.8760
   59SAPC   C23 4469   5.496   2.576  10.673  0.1403  0.0286 -0.5198
   59SAPC   H3R 4470   5.488   2.468  10.699  1.3276 -0.0185 -0.3000
   59SAPC   H3S 4471   5.525   2.590  10.567  0.9156  3.3304  0.0108
   59SAPC   C24 4472   5.351   2.631  10.675  0.0195  0.3116 -0.0883
   59SAPC   H4R 4473   5.332   2.741  10.674  0.2052  0.3398 -0.9835
   59SAPC   H4S 4474   5.322   2.593  10.775 -0.0501 -0.2170 -0.3064
   59SAPC   C25 4475   5.271   2.571  10.565 -0.0652  0.6541 -0.1406
   59SAPC   H5R 4476   5.249   2.464  10.577 -0.4256  0.9217  1.9663
   59SAPC   C26 4477   5.224   2.625  10.449 -0.2893 -0.3862  0.1444
   59SAPC   H6R 4478   5.161   2.561  10.385  0.9545  0.6391 -2.2391
   59SAPC   C27 4479   5.231   2.764  10.400  0.1525 -0.0133  0.2180
   59SAPC   H7R 4480   5.260   2.830  10.485  2.6991  0.7918 -1.1584
   59SAPC   H7S 4481   5.131   2.791  10.359 -0.1756 -2.9403 -1.1766
   59SAPC   C28 4482   5.337   2.778  10.292 -0.4330 -0.1632 -0.1655
   59SAPC   H8R 4483   5.436   2.804  10.330  0.2816 -3.5742  0.6118
   59SAPC   C29 4484   5.324   2.757  10.156  0.1438 -0.2400 -0.1763
   59SAPC   H9R 4485   5.411   2.754  10.089  0.3269  0.7214  0.0023
   59SAPC  C210 4486   5.189   2.696  10.101  0.1011 -0.1387  0.1180
   59SAPC  H10R 4487   5.114   2.685  10.183  2.1820  3.3322  2.7983
   59SAPC  H10S 4488   5.206   2.593  10.064 -0.1219  0.4570 -1.7014
   59SAPC  C211 4489   5.115   2.777  10.001 -0.2759  0.3702  0.1282
   59SAPC  H11R 4490   5.050   2.856  10.040  0.2881  0.4986  0.8476
   59SAPC  C212 4491   5.133   2.784   9.867 -0.0967  0.3393  0.6486
   59SAPC  H12R 4492   5.062   2.849   9.814  2.5929  2.1751 -0.9473
   59SAPC  C213 4493   5.238   2.707   9.788 -0.0007  0.4926  0.2242
   59SAPC  H13R 4494   5.322   2.672   9.851  0.2651  0.2364 -0.2620
   59SAPC  H13S 4495   5.276   2.781   9.715  0.0550 -0.1995 -0.4660
   59SAPC  C214 4496   5.194   2.585   9.709  0.8051  0.5270  0.0200
   59SAPC  H14R 4497   5.106   2.542   9.759  0.3117  0.7637 -0.6325
   59SAPC  C215 4498   5.249   2.540   9.597  0.2213 -0.6254 -0.1595
   59SAPC  H15R 4499   5.201   2.451   9.555 -2.1254 -0.1876  1.4310
   59SAPC  C216 4500   5.360   2.613   9.529 -0.0872  0.0275 -0.2162
   59SAPC  H16R 4501   5.453   2.573   9.576  0.3123 -0.4734 -1.3921
   59SAPC  H16S 4502   5.362   2.722   9.551 -0.3327 -0.0998  0.4751
   59SAPC  C217 4503   5.375   2.600   9.376  0.0884  0.2175  0.0400
   59SAPC  H17R 4504   5.378   2.490   9.357  2.5329  0.6311 -2.8452
   59SAPC  H17S 4505   5.471   2.643   9.340  0.6938 -1.1549 -0.0391
   59SAPC  C218 4506   5.277   2.675   9.289  0.1836  0.1810  0.1396
   59SAPC  H18R 4507   5.281   2.780   9.326  0.1331  0.2796 -0.1307
   59SAPC  H18S 4508   5.173   2.646   9.314  1.0618 -0.6921  3.0917
   59SAPC  C219 4509   5.288   2.667   9.135  0.3076  1.0335 -0.5085
   59SAPC  H19R 4510   5.273   2.561   9.104 -0.5709  0.9365  0.1932
   59SAPC  H19S 4511   5.380   2.709   9.089  0.7347  1.0272  0.3286
   59SAPC  C220 4512   5.174   2.744   9.060  0.6978  0.5012  0.9491
   59SAPC  H20R 4513   5.162   2.849   9.094  0.2888  0.8001 -0.0574
   59SAPC  H20S 4514   5.076   2.695   9.081  0.2780  1.3276  0.9451
   59SAPC  H20T 4515   5.183   2.739   8.949 -3.6968  0.8655  0.3958
   59SAPC   C33 4516   5.500   2.317  10.385 -0.4304 -0.6111  0.0958
   59SAPC   H3X 4517   5.461   2.382  10.466 -0.1238  1.1900 -1.1567
   59SAPC   H3Y 4518   5.443   2.223  10.369 -1.5165 -0.3181  1.9448
   59SAPC   C34 4519   5.485   2.415  10.264 -0.3285  0.4902  0.7348
   59SAPC   H4X 4520   5.558   2.495  10.289  0.3899  0.3677 -0.8404
   59SAPC   H4Y 4521   5.379   2.447  10.265 -1.3538 -2.0443 -3.3519
   59SAPC   C35 4522   5.514   2.350  10.131 -0.1982  0.2168 -0.4337
   59SAPC   H5X 4523   5.461   2.254  10.121  1.4180 -0.9740  1.6464
   59SAPC   H5Y 4524   5.621   2.318  10.132  0.2592  1.6039  1.3084
   59SAPC   C36 4525   5.492   2.443  10.016  0.0407  0.6832 -0.1011
   59SAPC   H6X 4526   5.569   2.524  10.022 -0.3839  0.9518  3.5025
   59SAPC   H6Y 4527   5.397   2.500  10.019  0.5885  1.6044  0.3105
   59SAPC   C37 4528   5.511   2.381   9.880 -0.1843  0.5229  0.5920
   59SAPC   H7X 4529   5.484   2.460   9.806  1.6705  0.6713  0.0336
   59SAPC   H7Y 4530   5.448   2.292   9.860  1.2076 -1.0673  2.8234
   59SAPC   C38 4531   5.659   2.344   9.857  0.8166  0.6586 -0.0432
   59SAPC   H8X 4532   5.707   2.309   9.951  2.1031  3.0823  0.2786
   59SAPC   H8Y 4533   5.700   2.445   9.836 -1.2532  1.4448 -0.5270
   59SAPC   C39 4534   5.683   2.246   9.743 -0.5392  0.3898 -0.1051
   59SAPC   H9X 4535   5.633   2.148   9.761 -1.3511 -0.1412 -4.2342
   59SAPC   H9Y 4536   5.792   2.227   9.746 -0.6658 -0.8472 -1.8235
   59SAPC  C310 4537   5.649   2.308   9.606 -0.1197 -0.1764 -0.2723
   59SAPC  H10X 4538   5.707   2.401   9.588 -2.1135  1.5487  1.6403
   59SAPC  H10Y 4539   5.540   2.328   9.605 -0.8034 -3.3263  0.4631
   59SAPC  C311 4540   5.673   2.215   9.488 -0.5019 -0.0764  0.3339
   59SAPC  H11X 4541   5.614   2.122   9.496 -2.7129  1.2346  0.1251
   59SAPC  H11Y 4542   5.781   2.200   9.467 -0.6071  0.1857 -0.4128
   59SAPC  C312 4543   5.611   2.273   9.361 -0.0088 -0.6636 -0.0888
   59SAPC  H12X 4544   5.615   2.384   9.357 -0.9425 -0.6254 -0.4530
   59SAPC  H12Y 4545   5.501   2.258   9.351 -0.4665  2.4820 -0.5901
   59SAPC  C313 4546   5.667   2.201   9.243 -0.0663  0.0223 -0.3469
   59SAPC  H13X 4547   5.650   2.093   9.263  0.1462 -0.1974 -1.2937
   59SAPC  H13Y 4548   5.776   2.218   9.228 -0.0623 -0.7469 -1.2453
   59SAPC  C314 4549   5.582   2.246   9.123 -0.2700  0.3388  0.0895
   59SAPC  H14X 4550   5.477   2.266   9.156 -0.4385  1.9383 -1.2597
   59SAPC  H14Y 4551   5.571   2.163   9.050  1.4760  2.3902 -2.6906
   59SAPC  C315 4552   5.629   2.367   9.039  0.1587  0.0192  0.3260
   59SAPC  H15X 4553   5.727   2.340   8.993  0.8058  0.2752  1.5092
   59SAPC  H15Y 4554   5.647   2.434   9.126 -0.4275  0.9343 -0.2431
   59SAPC  C316 4555   5.525   2.421   8.934 -0.1805  1.1352  0.4291
   59SAPC  H16X 4556   5.558   2.526   8.923 -0.9548  1.4339  0.8791
   59SAPC  H16Y 4557   5.427   2.427   8.986 -0.0710  1.6498  0.5785
   59SAPC  C317 4558   5.511   2.349   8.795 -0.1831 -0.0351 -0.1596
   59SAPC  H17X 4559   5.462   2.250   8.805  0.3867 -0.1622  1.6696
   59SAPC  H17Y 4560   5.610   2.322   8.751 -1.1861 -0.5738 -2.2121
   59SAPC  C318 4561   5.432   2.439   8.696  0.0017  0.0005  0.0569
   59SAPC  H18X 4562   5.484   2.531   8.662 -0.6960  0.2131 -0.4407
   59SAPC  H18Y 4563   5.347   2.480   8.754  2.1474  1.3213  2.5383
   59SAPC  H18Z 4564   5.393   2.378   8.612 -0.4533 -0.1817  0.3993
   60SAPC     N 4565   6.445   1.465  10.887  0.6242 -0.4903 -0.0497
   60SAPC   C12 4566   6.443   1.463  10.737 -0.2194 -0.5463  0.7897
   60SAPC  H12A 4567   6.465   1.563  10.705 -0.4437  0.0831  2.4762
   60SAPC  H12B 4568   6.343   1.453  10.699  0.1825  3.1081 -1.7530
   60SAPC   C13 4569   6.569   1.543  10.928 -0.8203  0.6733  0.5397
   60SAPC  H13A 4570   6.583   1.542  11.035 -1.0235  0.2675  0.5636
   60SAPC  H13B 4571   6.653   1.498  10.877  0.8497  2.1320  1.8531
   60SAPC  H13C 4572   6.550   1.644  10.894  0.6895  0.5130 -0.8742
   60SAPC   C14 4573   6.327   1.536  10.939  0.0573 -0.7523  0.9836
   60SAPC  H14A 4574   6.354   1.572  11.037  1.6664  1.2438 -0.1083
   60SAPC  H14B 4575   6.308   1.623  10.878  0.2978 -2.3028 -1.4544
   60SAPC  H14C 4576   6.238   1.475  10.936  0.3857 -1.2623  1.3969
   60SAPC   C15 4577   6.462   1.323  10.936  0.0497  0.1498  0.1333
   60SAPC  H15A 4578   6.528   1.263  10.876  1.5211  2.9433 -1.2298
   60SAPC  H15B 4579   6.502   1.324  11.036  0.5372  0.7116 -0.0629
   60SAPC  H15C 4580   6.367   1.271  10.939  0.8172 -1.2437  1.6592
   60SAPC   C11 4581   6.524   1.347  10.660  0.6013  0.0994 -0.5296
   60SAPC  H11A 4582   6.542   1.396  10.562 -0.7904  1.8389  0.0419
   60SAPC  H11B 4583   6.459   1.258  10.646 -1.4993  1.2614  1.1768
   60SAPC     P 4584   6.791   1.354  10.698  0.1370 -0.5622  0.2042
   60SAPC   O13 4585   6.799   1.504  10.718  0.5960  0.4782  0.3130
   60SAPC   O14 4586   6.869   1.283  10.796 -0.9587  0.8658  0.1387
   60SAPC   O12 4587   6.646   1.302  10.718  0.2478 -0.2038  0.4028
   60SAPC   O11 4588   6.835   1.323  10.547  0.1626 -0.1682 -0.2122
   60SAPC    C1 4589   6.791   1.200  10.487  0.2013  1.1874 -0.4648
   60SAPC    HA 4590   6.868   1.121  10.478 -0.3204  0.4901  0.9124
   60SAPC    HB 4591   6.704   1.153  10.538 -0.4863  0.9810 -1.7840
   60SAPC    C2 4592   6.754   1.236  10.339  1.0565 -0.4684  0.1226
   60SAPC    HS 4593   6.668   1.305  10.347 -0.4540 -2.4187  1.6704
   60SAPC   O21 4594   6.716   1.120  10.259 -0.0339 -0.0632 -0.4980
   60SAPC   C21 4595   6.600   1.064  10.293  0.0658  0.6320  0.7154
   60SAPC   O22 4596   6.520   1.104  10.379  0.1506  0.1737  0.5562
   60SAPC   C22 4597   6.577   0.948  10.193 -0.9779 -0.3145 -0.1708
   60SAPC   H2R 4598   6.664   0.946  10.124 -0.0752 -0.9776  0.9565
   60SAPC   H2S 4599   6.563   0.856  10.254 -0.2769  0.7313  1.6320
   60SAPC    C3 4600   6.871   1.299  10.263 -0.3457 -0.4472  0.7610
   60SAPC    HX 4601   6.962   1.238  10.283 -0.5158 -0.1682  2.5636
   60SAPC    HY 4602   6.891   1.402  10.300  0.2300 -0.9728  1.9705
   60SAPC   O31 4603   6.851   1.307  10.118  0.3469 -0.3906 -0.3855
   60SAPC   C31 4604   6.958   1.351  10.057  0.3047 -0.6486 -0.3834
   60SAPC   O32 4605   7.062   1.377  10.106 -0.2380 -0.1500  0.6959
   60SAPC   C32 4606   6.937   1.366   9.906 -0.4065  0.3541 -0.0102
   60SAPC   H2X 4607   6.857   1.440   9.886  0.1635  1.0701  0.2997
   60SAPC   H2Y 4608   6.909   1.269   9.860  0.4444 -0.3358  0.8812
   60SAPC   C23 4609   6.444   0.976  10.125  0.2910 -0.0209  0.4370
   60SAPC   H3R 4610   6.465   1.060  10.055  0.5867  0.1418  0.7196
   60SAPC   H3S 4611   6.368   1.012  10.197  1.1183  2.3729  0.2015
   60SAPC   C24 4612   6.395   0.852  10.042  1.0705 -0.1796 -0.1039
   60SAPC   H4R 4613   6.382   0.777  10.123 -0.5120  1.9359  1.7418
   60SAPC   H4S 4614   6.476   0.830   9.969  0.6209  0.5040 -0.8262
   60SAPC   C25 4615   6.266   0.892   9.979  0.1789  0.1497 -0.1680
   60SAPC   H5R 4616   6.196   0.945  10.046  1.3988  0.0432  1.2460
   60SAPC   C26 4617   6.230   0.864   9.850  0.5392 -0.1693  0.3063
   60SAPC   H6R 4618   6.131   0.898   9.817 -0.4969 -1.6516  1.7699
   60SAPC   C27 4619   6.312   0.790   9.748 -1.2108  0.2328  0.2891
   60SAPC   H7R 4620   6.247   0.720   9.692 -0.8621  2.5393 -3.3210
   60SAPC   H7S 4621   6.395   0.729   9.790 -0.2141  1.0169 -0.5014
   60SAPC   C28 4622   6.380   0.884   9.656 -0.0397 -1.0032  0.2537
   60SAPC   H8R 4623   6.382   0.986   9.698 -1.5367 -0.6065 -0.5495
   60SAPC   C29 4624   6.436   0.858   9.538 -0.0294 -0.3219 -0.2018
   60SAPC   H9R 4625   6.482   0.942   9.484  0.8897 -1.1242 -0.7009
   60SAPC  C210 4626   6.441   0.724   9.472  0.4045 -0.4427 -0.5797
   60SAPC  H10R 4627   6.344   0.670   9.483  0.7809 -1.5948 -2.5234
   60SAPC  H10S 4628   6.515   0.665   9.530  1.5843 -1.5274 -3.0381
   60SAPC  C211 4629   6.473   0.729   9.327  0.2241  0.1149 -0.3936
   60SAPC  H11R 4630   6.403   0.790   9.270  0.6108  1.4409  0.5051
   60SAPC  C212 4631   6.577   0.672   9.269 -0.2500 -0.1856  0.0630
   60SAPC  H12R 4632   6.595   0.683   9.161  0.0938  2.5820  0.3232
   60SAPC  C213 4633   6.686   0.598   9.345  0.0548  0.2338  0.9119
   60SAPC  H13R 4634   6.712   0.668   9.428 -0.5076  1.1419  0.3368
   60SAPC  H13S 4635   6.781   0.588   9.288 -1.9181 -2.0836 -2.3043
   60SAPC  C214 4636   6.656   0.464   9.395 -0.6424  0.1255  0.4582
   60SAPC  H14R 4637   6.576   0.415   9.337 -0.0576  0.1860 -0.4068
   60SAPC  C215 4638   6.729   0.392   9.483 -0.2748  0.1735 -0.0293
   60SAPC  H15R 4639   6.703   0.290   9.513 -0.0233 -0.2844 -1.2766
   60SAPC  C216 4640   6.848   0.448   9.556  0.5817 -0.0407 -0.0510
   60SAPC  H16R 4641   6.882   0.546   9.517  0.1907  0.5955  1.1791
   60SAPC  H16S 4642   6.934   0.380   9.537  1.5127  1.4386 -1.3277
   60SAPC  C217 4643   6.822   0.461   9.710  0.2551 -0.1879  0.7529
   60SAPC  H17R 4644   6.913   0.511   9.750 -0.5067  1.4148  0.5633
   60SAPC  H17S 4645   6.800   0.366   9.762  0.2172 -1.1345 -0.8926
   60SAPC  C218 4646   6.701   0.555   9.739  0.6082  0.3697 -0.1222
   60SAPC  H18R 4647   6.608   0.494   9.740  1.4106 -0.8779  0.6521
   60SAPC  H18S 4648   6.701   0.636   9.663 -2.4126  1.1485  0.5758
   60SAPC  C219 4649   6.709   0.611   9.881 -0.2755  0.2150 -0.0627
   60SAPC  H19R 4650   6.653   0.707   9.876 -1.1896 -0.2040  1.4993
   60SAPC  H19S 4651   6.816   0.630   9.902  0.1255 -1.0407 -0.8655
   60SAPC  C220 4652   6.640   0.532   9.987  0.7822 -0.4880  0.4282
   60SAPC  H20R 4653   6.660   0.424   9.972  0.3155 -0.5517  0.2546
   60SAPC  H20S 4654   6.531   0.555   9.983  1.1113  1.4558  1.6797
   60SAPC  H20T 4655   6.671   0.564  10.088 -0.3902 -0.0184  0.6622
   60SAPC   C33 4656   7.064   1.416   9.826  0.3487  0.3103 -0.5087
   60SAPC   H3X 4657   7.129   1.327   9.810 -0.5851 -0.1188 -2.0989
   60SAPC   H3Y 4658   7.112   1.491   9.893 -0.8721 -1.3251  2.3737
   60SAPC   C34 4659   7.034   1.475   9.691  0.0037 -1.3140  0.6822
   60SAPC   H4X 4660   7.128   1.518   9.652 -0.1587 -0.4324  1.2426
   60SAPC   H4Y 4661   6.973   1.568   9.691  0.8293 -0.7629  1.3403
   60SAPC   C35 4662   6.982   1.370   9.590 -0.3309 -0.6148  0.0078
   60SAPC   H5X 4663   6.874   1.350   9.607 -0.8577  1.2281 -0.9071
   60SAPC   H5Y 4664   7.035   1.274   9.605 -0.0059 -0.4272  0.0838
   60SAPC   C36 4665   7.000   1.418   9.447 -0.3209 -0.3207  0.4660
   60SAPC   H6X 4666   6.958   1.339   9.381  0.1673 -1.4177  1.4336
   60SAPC   H6Y 4667   7.109   1.427   9.426 -0.2156 -0.6156  0.8980
   60SAPC   C37 4668   6.926   1.545   9.411  0.3819 -0.2011  0.8569
   60SAPC   H7X 4669   6.986   1.635   9.434  2.2541 -0.6409 -1.7681
   60SAPC   H7Y 4670   6.833   1.552   9.472 -0.9443  2.2207 -1.2483
   60SAPC   C38 4671   6.900   1.559   9.253 -0.2713  0.0803 -0.2406
   60SAPC   H8X 4672   6.879   1.666   9.237 -0.0834  0.0919 -0.4162
   60SAPC   H8Y 4673   6.807   1.507   9.222 -0.6034  0.8380 -0.5320
   60SAPC   C39 4674   7.015   1.525   9.160  0.0411 -0.3070  0.1028
   60SAPC   H9X 4675   7.033   1.417   9.179 -0.3361 -0.2462  0.8522
   60SAPC   H9Y 4676   7.112   1.572   9.187 -0.4899 -0.2936  2.1598
   60SAPC  C310 4677   6.992   1.555   9.009 -0.1679 -0.4074 -0.3583
   60SAPC  H10X 4678   6.970   1.664   9.004 -1.5828 -0.6902 -0.8565
   60SAPC  H10Y 4679   6.900   1.506   8.972 -1.6279  0.9767  1.2328
   60SAPC  C311 4680   7.112   1.500   8.926 -0.4223 -0.1319 -0.5607
   60SAPC  H11X 4681   7.081   1.483   8.821  1.4229  0.1342 -1.1852
   60SAPC  H11Y 4682   7.150   1.407   8.972  0.3001  0.4880  0.1329
   60SAPC  C312 4683   7.241   1.592   8.925  0.5298  0.5737 -0.2911
   60SAPC  H12X 4684   7.315   1.554   8.999  0.1100 -1.3812 -0.8190
   60SAPC  H12Y 4685   7.203   1.693   8.948 -3.1711 -1.0234  1.4408
   60SAPC  C313 4686   7.314   1.601   8.786 -0.1146  0.4911  0.3536
   60SAPC  H13X 4687   7.376   1.691   8.802 -3.0424  3.0636 -1.6558
   60SAPC  H13Y 4688   7.238   1.629   8.711  2.3855 -0.9807 -2.9772
   60SAPC  C314 4689   7.384   1.479   8.739 -0.6942  0.3742  0.0996
   60SAPC  H14X 4690   7.310   1.397   8.750  0.4650 -0.4007  3.3437
   60SAPC  H14Y 4691   7.462   1.449   8.813 -2.0925 -1.4032  0.9263
   60SAPC  C315 4692   7.423   1.486   8.592  0.3966  0.3608  0.0311
   60SAPC  H15X 4693   7.464   1.384   8.579 -1.9504 -0.8190  1.2507
   60SAPC  H15Y 4694   7.497   1.568   8.581 -0.9663  1.7276  0.7895
   60SAPC  C316 4695   7.313   1.505   8.488  0.5742 -0.0469  0.2465
   60SAPC  H16X 4696   7.236   1.583   8.507  1.2988  0.9115 -0.6566
   60SAPC  H16Y 4697   7.247   1.416   8.490  0.5308 -0.0579 -1.0346
   60SAPC  C317 4698   7.353   1.528   8.337 -0.4373 -0.0678  0.3309
   60SAPC  H17X 4699   7.268   1.528   8.266 -1.8137  0.9807  1.8994
   60SAPC  H17Y 4700   7.422   1.444   8.311 -1.3342 -0.0528 -2.4445
   60SAPC  C318 4701   7.430   1.656   8.316 -0.0622 -0.2617  0.1000
   60SAPC  H18X 4702   7.377   1.741   8.365  0.1384  0.0982 -0.3073
   60SAPC  H18Y 4703   7.435   1.677   8.207 -2.8716 -1.4726 -0.3641
   60SAPC  H18Z 4704   7.533   1.649   8.358 -0.9632 -1.4914  2.2811
   61SAPC     N 4705   1.023   0.788  10.879 -0.1871 -0.1917 -0.0388
   61SAPC   C12 4706   0.964   0.650  10.903 -0.0401 -0.1992 -0.0089
   61SAPC  H12A 4707   0.857   0.658  10.903  0.0807  2.2926  0.1642
   61SAPC  H12B 4708   0.999   0.624  11.002 -1.1880  0.5852  0.6304
   61SAPC   C13 4709   0.981   0.890  10.985 -0.3520  0.4729  0.3866
   61SAPC  H13A 4710   1.021   0.988  10.962  2.3379 -0.7069 -0.4579
   61SAPC  H13B 4711   0.874   0.898  10.987 -0.3555  0.3776  0.6021
   61SAPC  H13C 4712   1.025   0.870  11.082 -2.3208 -0.0994  1.2193
   61SAPC   C14 4713   1.173   0.794  10.885  0.0449 -0.0556  1.3744
   61SAPC  H14A 4714   1.203   0.751  10.979 -0.5359  0.2413  1.7013
   61SAPC  H14B 4715   1.213   0.725  10.812  1.3581  1.1107  0.9257
   61SAPC  H14C 4716   1.217   0.892  10.866 -0.4585 -0.0247  0.2757
   61SAPC   C15 4717   0.975   0.841  10.742 -0.4676 -0.3125 -0.4545
   61SAPC  H15A 4718   1.014   0.940  10.723  0.4789 -0.7499 -0.8475
   61SAPC  H15B 4719   1.015   0.770  10.671  1.5608  0.6886 -0.3880
   61SAPC  H15C 4720   0.868   0.842  10.733 -0.4557 -0.9474 -0.7214
   61SAPC   C11 4721   1.010   0.531  10.827  0.8321 -0.0477  0.1692
   61SAPC  H11A 4722   0.995   0.540  10.717 -1.5077 -1.4608  0.3222
   61SAPC  H11B 4723   0.948   0.445  10.860 -2.3639  1.8803 -0.4063
   61SAPC     P 4724   1.188   0.391  10.947 -0.0276 -0.2992 -0.0378
   61SAPC   O13 4725   1.250   0.457  11.065  0.5546  0.3349  0.1803
   61SAPC   O14 4726   1.079   0.292  10.972 -0.1316  0.2708 -0.0428
   61SAPC   O12 4727   1.143   0.505  10.851 -0.3440  0.3792  0.7049
   61SAPC   O11 4728   1.292   0.309  10.861  0.1661  0.0537  0.3773
   61SAPC    C1 4729   1.322   0.333  10.726 -0.0902  0.3173 -0.0360
   61SAPC    HA 4730   1.303   0.440  10.703  0.5040  0.7085  1.2049
   61SAPC    HB 4731   1.428   0.318  10.699 -0.3274  1.6867 -1.9083
   61SAPC    C2 4732   1.247   0.251  10.613  1.0500 -0.5255 -0.2043
   61SAPC    HS 4733   1.268   0.145  10.640  3.0628  0.5508  3.0231
   61SAPC   O21 4734   1.305   0.298  10.490  0.2806 -0.9497 -0.6673
   61SAPC   C21 4735   1.389   0.215  10.437  0.6395 -0.2202  0.8708
   61SAPC   O22 4736   1.433   0.112  10.486 -0.4264  0.7268 -0.1439
   61SAPC   C22 4737   1.422   0.255  10.294  0.5686  0.0725  0.2467
   61SAPC   H2R 4738   1.430   0.365  10.297  1.2239  0.0072  1.7536
   61SAPC   H2S 4739   1.523   0.213  10.275  1.6195  2.4111  0.4336
   61SAPC    C3 4740   1.091   0.260  10.601 -0.3309 -0.7374  0.0548
   61SAPC    HX 4741   1.069   0.365  10.573 -1.3880 -1.1419 -0.7277
   61SAPC    HY 4742   1.050   0.246  10.704 -1.0353  0.0307 -0.1104
   61SAPC   O31 4743   1.030   0.148  10.532 -0.2402  0.0910  0.1444
   61SAPC   C31 4744   0.957   0.176  10.429 -0.4842 -0.1591 -0.0507
   61SAPC   O32 4745   0.939   0.288  10.381  0.3178  0.1409 -0.3344
   61SAPC   C32 4746   0.882   0.049  10.384  0.1869  0.1333 -0.4176
   61SAPC   H2X 4747   0.792   0.033  10.448  0.1807  2.7168  0.3295
   61SAPC   H2Y 4748   0.950  -0.032  10.418 -0.3049 -0.0910  0.0529
   61SAPC   C23 4749   1.317   0.199  10.196  1.1726 -0.2649 -0.1039
   61SAPC   H3R 4750   1.309   0.266  10.107  1.8732 -0.2605 -0.1699
   61SAPC   H3S 4751   1.221   0.184  10.250  0.6586  2.2231 -0.2164
   61SAPC   C24 4752   1.368   0.065  10.137 -0.3170 -0.0747 -0.5834
   61SAPC   H4R 4753   1.420   0.013  10.221 -0.0637 -0.5562 -1.0343
   61SAPC   H4S 4754   1.446   0.083  10.060  2.3222 -2.1896  1.3563
   61SAPC   C25 4755   1.268  -0.029  10.075  0.4448  0.1713  0.2677
   61SAPC   H5R 4756   1.240  -0.104  10.151  0.3208 -1.7390 -1.5754
   61SAPC   C26 4757   1.229  -0.032   9.948 -0.0625 -0.0373  0.1001
   61SAPC   H6R 4758   1.147  -0.101   9.922 -0.2465  0.7230 -1.4211
   61SAPC   C27 4759   1.254   0.061   9.836 -0.1629  0.5621  0.3732
   61SAPC   H7R 4760   1.295   0.157   9.875 -0.0845  0.2223  1.1270
   61SAPC   H7S 4761   1.152   0.092   9.803 -0.0751  0.4820  0.0183
   61SAPC   C28 4762   1.342   0.015   9.722 -0.2290 -0.3588 -0.0730
   61SAPC   H8R 4763   1.441  -0.022   9.755  0.0794  0.3560 -0.1641
   61SAPC   C29 4764   1.318   0.022   9.585  0.8092  0.3019  0.2273
   61SAPC   H9R 4765   1.401  -0.014   9.523  0.5013  0.7885 -0.4757
   61SAPC  C210 4766   1.190   0.072   9.521  0.7980  0.7595 -0.6606
   61SAPC  H10R 4767   1.142   0.152   9.581  0.9926  0.4684 -0.1118
   61SAPC  H10S 4768   1.108  -0.003   9.525  0.7472  0.8799  1.4756
   61SAPC  C211 4769   1.219   0.141   9.387 -0.1710  0.8789  0.6224
   61SAPC  H11R 4770   1.228   0.250   9.396  2.0768  0.7586  0.3697
   61SAPC  C212 4771   1.248   0.078   9.274  0.5562 -0.0458  0.0344
   61SAPC  H12R 4772   1.267   0.135   9.182  3.8458 -0.1104  0.5475
   61SAPC  C213 4773   1.246  -0.075   9.261 -0.2641 -0.1525  0.0185
   61SAPC  H13R 4774   1.230  -0.128   9.358  0.2965 -1.4034 -0.5531
   61SAPC  H13S 4775   1.347  -0.107   9.229 -0.7850  0.6047 -2.6181
   61SAPC  C214 4776   1.135  -0.118   9.168  0.7929  0.8180  0.3023
   61SAPC  H14R 4777   1.034  -0.118   9.211 -0.0517 -1.8407 -1.3788
   61SAPC  C215 4778   1.149  -0.162   9.039  0.3136 -0.8462 -0.6868
   61SAPC  H15R 4779   1.058  -0.194   8.987  0.2570 -1.2774 -0.3208
   61SAPC  C216 4780   1.273  -0.173   8.956  0.0599 -0.4324 -0.0737
   61SAPC  H16R 4781   1.328  -0.269   8.966  0.4659 -0.3776 -1.5565
   61SAPC  H16S 4782   1.339  -0.096   9.002  0.7704 -2.2679  2.1693
   61SAPC  C217 4783   1.255  -0.147   8.805 -0.7339 -0.1554  0.2798
   61SAPC  H17R 4784   1.174  -0.071   8.798 -0.6052  0.1056  1.4234
   61SAPC  H17S 4785   1.228  -0.243   8.755 -2.3981 -0.6339  1.9470
   61SAPC  C218 4786   1.380  -0.090   8.739  0.2741 -0.6633 -0.0239
   61SAPC  H18R 4787   1.476  -0.144   8.757  1.2363  0.5008 -1.3933
   61SAPC  H18S 4788   1.400   0.009   8.784  1.2632 -0.1159 -1.5726
   61SAPC  C219 4789   1.353  -0.077   8.586 -0.9395  0.6824  0.3763
   61SAPC  H19R 4790   1.319  -0.173   8.543 -1.0912  0.2058  1.5350
   61SAPC  H19S 4791   1.452  -0.056   8.539  0.5438 -0.6564  2.6843
   61SAPC  C220 4792   1.255   0.028   8.531 -0.2100 -0.0897 -0.5419
   61SAPC  H20R 4793   1.264   0.060   8.425 -1.4564  1.6790 -0.1506
   61SAPC  H20S 4794   1.251   0.120   8.593 -2.6164 -0.2710 -0.3606
   61SAPC  H20T 4795   1.152  -0.012   8.535 -1.0349  1.8317 -1.1808
   61SAPC   C33 4796   0.844   0.057  10.239  0.5671  0.4640  0.4937
   61SAPC   H3X 4797   0.932   0.073  10.174 -0.1515  1.3359 -0.3056
   61SAPC   H3Y 4798   0.778   0.145  10.226 -0.9373 -0.5944  0.6825
   61SAPC   C34 4799   0.769  -0.066  10.188 -0.0384  0.1345  0.3674
   61SAPC   H4X 4800   0.677  -0.076  10.250  0.1655  0.1266  0.6691
   61SAPC   H4Y 4801   0.829  -0.160  10.193  0.1026 -0.0120 -2.4850
   61SAPC   C35 4802   0.730  -0.071  10.031 -0.1251  0.1954 -0.2240
   61SAPC   H5X 4803   0.663  -0.158  10.015  1.2627 -0.7386 -1.2386
   61SAPC   H5Y 4804   0.819  -0.085   9.965  0.1228 -0.5148  0.2434
   61SAPC   C36 4805   0.656   0.055   9.991 -0.6894 -0.5054 -0.0949
   61SAPC   H6X 4806   0.723   0.142   9.973 -2.2469  1.2332  2.1437
   61SAPC   H6Y 4807   0.606   0.092  10.082  0.5331  0.4053  0.2351
   61SAPC   C37 4808   0.551   0.021   9.884 -0.3464  0.1258 -0.5542
   61SAPC   H7X 4809   0.493   0.115   9.868  2.6937  2.6568  1.8012
   61SAPC   H7Y 4810   0.479  -0.052   9.926  2.6595 -2.5799  0.3230
   61SAPC   C38 4811   0.612  -0.009   9.748 -0.4177  0.9837 -0.4327
   61SAPC   H8X 4812   0.528  -0.035   9.679 -0.8084 -0.1214  0.4372
   61SAPC   H8Y 4813   0.672  -0.101   9.760  1.1455  2.0453  0.2701
   61SAPC   C39 4814   0.703   0.097   9.686  0.2655 -0.3456  0.3180
   61SAPC   H9X 4815   0.789   0.113   9.755  1.4854  0.1523 -1.2289
   61SAPC   H9Y 4816   0.647   0.192   9.671 -1.3053 -1.2452  0.3234
   61SAPC  C310 4817   0.734   0.055   9.539 -0.2389 -0.4792  0.8587
   61SAPC  H10X 4818   0.635   0.028   9.498 -0.0852 -1.0390  0.8435
   61SAPC  H10Y 4819   0.798  -0.036   9.530 -1.4598 -1.2465 -0.5249
   61SAPC  C311 4820   0.791   0.181   9.461 -0.1617 -0.0935  0.3415
   61SAPC  H11X 4821   0.883   0.224   9.507  1.2694 -1.7309 -0.8324
   61SAPC  H11Y 4822   0.717   0.264   9.468  1.7960  1.6408  2.3707
   61SAPC  C312 4823   0.821   0.146   9.313 -0.4950  0.2231  0.4709
   61SAPC  H12X 4824   0.884   0.054   9.315  2.2978  2.0349  0.5415
   61SAPC  H12Y 4825   0.891   0.215   9.261 -1.3446 -0.6046 -1.9441
   61SAPC  C313 4826   0.698   0.137   9.223 -0.3558  0.4545  0.5597
   61SAPC  H13X 4827   0.620   0.208   9.259 -0.2022  1.6429 -1.2997
   61SAPC  H13Y 4828   0.676   0.029   9.241 -0.5993  0.5912  1.1023
   61SAPC  C314 4829   0.720   0.160   9.078  0.4260 -0.1975 -0.1221
   61SAPC  H14X 4830   0.740   0.267   9.056 -1.7513 -0.1451 -2.2919
   61SAPC  H14Y 4831   0.624   0.149   9.023  0.0317  1.5527  0.1400
   61SAPC  C315 4832   0.819   0.064   9.023  0.0277  0.8699  0.5489
   61SAPC  H15X 4833   0.807  -0.039   9.062  0.9010  0.8152  0.6863
   61SAPC  H15Y 4834   0.920   0.074   9.069  0.1388 -0.1059  0.5279
   61SAPC  C316 4835   0.835   0.067   8.868  0.0244  0.4183 -0.3896
   61SAPC  H16X 4836   0.732   0.086   8.832  0.0376  0.3018 -0.4905
   61SAPC  H16Y 4837   0.871  -0.036   8.844  2.2329  1.0928 -0.2001
   61SAPC  C317 4838   0.919   0.188   8.815  0.1626 -0.5864  0.4632
   61SAPC  H17X 4839   1.019   0.198   8.864  1.2164  0.6738 -1.7800
   61SAPC  H17Y 4840   0.858   0.275   8.847  1.7014  1.2275 -1.2856
   61SAPC  C318 4841   0.934   0.186   8.659  0.4290 -0.5674  0.4467
   61SAPC  H18X 4842   0.975   0.283   8.623 -4.0784  1.5676  0.3395
   61SAPC  H18Y 4843   0.837   0.151   8.618  0.7014 -3.7158  2.1384
   61SAPC  H18Z 4844   1.014   0.111   8.643  0.3473 -0.6648  0.4975
   62SAPC     N 4845   6.439   5.924  10.770  0.2550  1.1443  0.5337
   62SAPC   C12 4846   6.467   6.001  10.639  0.2155 -0.0288  0.1814
   62SAPC  H12A 4847   6.377   6.038  10.593  1.2418 -0.8679 -2.7288
   62SAPC  H12B 4848   6.505   5.927  10.570 -0.7821 -0.9992  0.6432
   62SAPC   C13 4849   6.362   6.002  10.864 -0.1864  0.2397 -0.1978
   62SAPC  H13A 4850   6.425   6.085  10.895  2.8621 -2.7357  2.3278
   62SAPC  H13B 4851   6.272   6.051  10.830 -1.1567 -0.7338  0.8854
   62SAPC  H13C 4852   6.336   5.945  10.952  2.2649  0.4320  0.7253
   62SAPC   C14 4853   6.355   5.801  10.749 -0.7696  0.0419 -0.2631
   62SAPC  H14A 4854   6.266   5.822  10.692 -0.2812 -1.8005 -1.7897
   62SAPC  H14B 4855   6.400   5.732  10.680 -0.5317 -0.1413  0.0737
   62SAPC  H14C 4856   6.339   5.746  10.841 -0.5743 -0.6040 -0.6106
   62SAPC   C15 4857   6.558   5.864  10.829 -0.2795  0.0161  0.5199
   62SAPC  H15A 4858   6.629   5.828  10.756  1.3965  1.5416  1.3134
   62SAPC  H15B 4859   6.617   5.941  10.878  2.7072 -1.1257 -1.0580
   62SAPC  H15C 4860   6.530   5.793  10.904 -1.2577 -1.3752 -1.1011
   62SAPC   C11 4861   6.572   6.115  10.634  0.9831  0.5280 -0.4203
   62SAPC  H11A 4862   6.582   6.145  10.528  2.9339 -0.8850 -0.7027
   62SAPC  H11B 4863   6.669   6.070  10.665  0.2661 -1.1364 -0.4715
   62SAPC     P 4864   6.454   6.348  10.655 -0.2254  0.3328  0.3349
   62SAPC   O13 4865   6.340   6.309  10.575 -0.0157 -0.1558  0.9189
   62SAPC   O14 4866   6.424   6.428  10.776 -0.4784  0.0322  0.0292
   62SAPC   O12 4867   6.538   6.220  10.718 -0.1870 -0.0184  0.3737
   62SAPC   O11 4868   6.565   6.410  10.560 -0.1793 -0.4120 -0.1260
   62SAPC    C1 4869   6.674   6.483  10.612 -0.2418 -0.7203  0.7212
   62SAPC    HA 4870   6.637   6.586  10.631  1.6082  0.1413 -0.0489
   62SAPC    HB 4871   6.731   6.437  10.695  1.9669  2.4247  1.1494
   62SAPC    C2 4872   6.784   6.473  10.494 -0.7570 -0.1739 -0.3366
   62SAPC    HS 4873   6.872   6.532  10.526 -0.7202  0.1405 -0.9996
   62SAPC   O21 4874   6.747   6.507  10.361 -0.3107 -0.1130 -0.2636
   62SAPC   C21 4875   6.681   6.621  10.338 -0.1030  0.2888 -0.8192
   62SAPC   O22 4876   6.689   6.716  10.411  0.3288 -0.4824  0.4396
   62SAPC   C22 4877   6.589   6.609  10.215 -0.0322 -0.4025 -0.0459
   62SAPC   H2R 4878   6.615   6.512  10.167  0.1465 -0.1347 -0.4963
   62SAPC   H2S 4879   6.491   6.607  10.266  0.4586 -0.0653  0.9368
   62SAPC    C3 4880   6.850   6.330  10.484 -0.0904 -0.1056  0.5241
   62SAPC    HX 4881   6.785   6.258  10.430  0.5040  0.9825 -1.7657
   62SAPC    HY 4882   6.859   6.274  10.579 -2.3669 -0.3936  0.6398
   62SAPC   O31 4883   6.988   6.339  10.432 -0.7233  0.2490  0.4455
   62SAPC   C31 4884   7.087   6.330  10.523 -0.0860  0.2635  0.1616
   62SAPC   O32 4885   7.067   6.314  10.644 -0.5378 -0.2102  0.2190
   62SAPC   C32 4886   7.233   6.311  10.463  0.3363 -0.0061  0.4680
   62SAPC   H2X 4887   7.281   6.246  10.539 -0.4183 -3.0571 -1.4975
   62SAPC   H2Y 4888   7.272   6.415  10.459 -2.3819  1.0957  0.8082
   62SAPC   C23 4889   6.592   6.733  10.117 -0.6100  0.2645 -0.1300
   62SAPC   H3R 4890   6.693   6.743  10.070  0.4238  1.4624  2.1860
   62SAPC   H3S 4891   6.583   6.816  10.190  0.4256 -0.8317  1.3111
   62SAPC   C24 4892   6.480   6.729  10.018  0.0958 -0.6002  1.0460
   62SAPC   H4R 4893   6.388   6.690  10.065 -0.7620 -2.2438 -1.7412
   62SAPC   H4S 4894   6.503   6.649   9.945 -0.0010  1.7847 -1.7944
   62SAPC   C25 4895   6.453   6.855   9.947 -0.3461 -0.1351 -0.1102
   62SAPC   H5R 4896   6.388   6.929   9.996 -0.6438  1.0910 -2.2509
   62SAPC   C26 4897   6.495   6.891   9.828  0.3754  1.0041  0.3383
   62SAPC   H6R 4898   6.471   6.993   9.794 -1.4115 -0.1510 -2.1681
   62SAPC   C27 4899   6.579   6.808   9.735 -0.2474 -0.1097  1.0471
   62SAPC   H7R 4900   6.631   6.725   9.787  1.6258 -1.2125 -2.3054
   62SAPC   H7S 4901   6.657   6.879   9.699  0.2972 -0.0305  2.3157
   62SAPC   C28 4902   6.488   6.750   9.627  0.3421  0.0623  0.2751
   62SAPC   H8R 4903   6.389   6.711   9.656 -0.3852  1.3706 -0.3444
   62SAPC   C29 4904   6.509   6.748   9.498 -0.5546  0.7887  0.4954
   62SAPC   H9R 4905   6.421   6.710   9.444 -0.8315 -0.0445  1.4953
   62SAPC  C210 4906   6.623   6.805   9.416  0.3440  0.3815 -0.2946
   62SAPC  H10R 4907   6.674   6.884   9.475 -0.2916  0.1564  0.5880
   62SAPC  H10S 4908   6.572   6.860   9.334 -0.8795 -1.0202 -0.5205
   62SAPC  C211 4909   6.720   6.699   9.367  0.1084 -0.1623 -0.6447
   62SAPC  H11R 4910   6.811   6.690   9.429 -1.1944  0.3635  1.4056
   62SAPC  C212 4911   6.697   6.622   9.256  0.2292 -0.2113 -0.1112
   62SAPC  H12R 4912   6.762   6.537   9.230 -0.3014 -0.5733 -0.2665
   62SAPC  C213 4913   6.584   6.631   9.164  0.1900  0.5131  0.2473
   62SAPC  H13R 4914   6.593   6.725   9.106 -2.7563  1.0628  0.5143
   62SAPC  H13S 4915   6.491   6.647   9.223  0.5584 -1.7121  1.5457
   62SAPC  C214 4916   6.565   6.519   9.068 -0.3809 -0.3722 -0.4531
   62SAPC  H14R 4917   6.522   6.430   9.119 -1.8732  0.2201 -0.6153
   62SAPC  C215 4918   6.579   6.510   8.934 -0.0130 -0.4251 -0.0841
   62SAPC  H15R 4919   6.550   6.418   8.881  1.6676 -0.2964 -1.3238
   62SAPC  C216 4920   6.621   6.620   8.837  0.3516 -0.3014 -0.6356
   62SAPC  H16R 4921   6.700   6.570   8.777 -0.2374 -2.7047  0.4831
   62SAPC  H16S 4922   6.658   6.700   8.904 -4.3975 -1.5427  4.2361
   62SAPC  C217 4923   6.520   6.691   8.744  0.2053 -0.6503 -0.3267
   62SAPC  H17R 4924   6.481   6.604   8.686 -0.8672 -1.3126  1.3151
   62SAPC  H17S 4925   6.572   6.765   8.679 -0.6641  1.2510  1.0658
   62SAPC  C218 4926   6.403   6.752   8.811  0.3710  0.2910  0.2457
   62SAPC  H18R 4927   6.425   6.861   8.822 -0.5756  0.6537 -1.1208
   62SAPC  H18S 4928   6.390   6.723   8.917 -1.1056  1.4231  0.4078
   62SAPC  C219 4929   6.260   6.731   8.750  0.3534 -0.1618 -0.0842
   62SAPC  H19R 4930   6.239   6.623   8.760  1.3188 -0.1733  2.4647
   62SAPC  H19S 4931   6.272   6.740   8.640 -1.2902 -0.8483 -0.3473
   62SAPC  C220 4932   6.164   6.822   8.822 -0.0467  0.1788  0.8227
   62SAPC  H20R 4933   6.186   6.930   8.804 -0.5639  0.1720  0.1092
   62SAPC  H20S 4934   6.161   6.795   8.930 -0.9374  0.2965  0.8354
   62SAPC  H20T 4935   6.061   6.801   8.786  0.7793  0.0192 -1.5853
   62SAPC   C33 4936   7.236   6.232  10.323 -0.2070 -0.5068 -0.5141
   62SAPC   H3X 4937   7.155   6.270  10.257 -0.6328  0.6087  0.6091
   62SAPC   H3Y 4938   7.228   6.124  10.345 -0.9524 -0.3055  0.2895
   62SAPC   C34 4939   7.366   6.268  10.243  0.2240 -0.4106 -0.1825
   62SAPC   H4X 4940   7.451   6.222  10.297  2.2050  1.6290 -1.3320
   62SAPC   H4Y 4941   7.376   6.379  10.237 -3.9036  0.1621  0.6495
   62SAPC   C35 4942   7.364   6.227  10.095  0.3133 -0.0316  1.0828
   62SAPC   H5X 4943   7.278   6.272  10.041  0.8416 -2.1331 -1.7766
   62SAPC   H5Y 4944   7.352   6.116  10.096 -1.9766  0.1170 -0.7914
   62SAPC   C36 4945   7.484   6.273  10.016 -0.8186  0.1327  0.3067
   62SAPC   H6X 4946   7.575   6.238  10.070  0.0200 -0.7940 -1.6109
   62SAPC   H6Y 4947   7.487   6.384  10.023  0.5755  0.1480 -0.2613
   62SAPC   C37 4948   7.483   6.234   9.868  0.7659  0.3289 -0.0301
   62SAPC   H7X 4949   7.475   6.124   9.858  0.4977  0.5257 -2.4029
   62SAPC   H7Y 4950   7.585   6.260   9.834  1.7563 -1.5275  1.3489
   62SAPC   C38 4951   7.379   6.313   9.787  0.4465  0.3678 -0.3364
   62SAPC   H8X 4952   7.338   6.401   9.842  0.9870  0.4696 -0.0863
   62SAPC   H8Y 4953   7.294   6.248   9.757  1.3400 -1.5973  1.1411
   62SAPC   C39 4954   7.452   6.367   9.668  0.0406  0.1793 -0.2468
   62SAPC   H9X 4955   7.505   6.284   9.618 -0.0542 -1.6290  2.4233
   62SAPC   H9Y 4956   7.529   6.440   9.704 -1.0561 -0.0077  2.8547
   62SAPC  C310 4957   7.372   6.434   9.560  0.2830  0.1057  0.6107
   62SAPC  H10X 4958   7.332   6.536   9.581 -4.0672 -1.0192 -1.2705
   62SAPC  H10Y 4959   7.295   6.360   9.531  2.4867 -2.1614  0.2169
   62SAPC  C311 4960   7.465   6.445   9.436  0.0346 -0.4069  0.4188
   62SAPC  H11X 4961   7.499   6.343   9.411 -2.3466 -1.1945  0.1141
   62SAPC  H11Y 4962   7.552   6.512   9.454 -0.5233  0.6440 -0.6392
   62SAPC  C312 4963   7.375   6.494   9.315 -0.7822  0.1776 -0.2895
   62SAPC  H12X 4964   7.353   6.600   9.340 -3.1791 -0.3389 -0.0393
   62SAPC  H12Y 4965   7.280   6.437   9.318  0.0694 -1.3191 -0.6248
   62SAPC  C313 4966   7.421   6.489   9.177  0.3466 -0.7425  0.7099
   62SAPC  H13X 4967   7.500   6.564   9.157 -1.8844  1.4217 -0.5143
   62SAPC  H13Y 4968   7.335   6.531   9.120  2.1539  0.3775 -1.3455
   62SAPC  C314 4969   7.461   6.348   9.136  0.4070 -0.1934  0.6535
   62SAPC  H14X 4970   7.379   6.274   9.148 -1.9039  2.3549  1.3837
   62SAPC  H14Y 4971   7.541   6.310   9.203  0.8101  0.4875  0.5610
   62SAPC  C315 4972   7.510   6.350   8.996 -0.2492 -0.2529 -0.4209
   62SAPC  H15X 4973   7.586   6.430   8.988  1.2066 -1.5520 -0.2476
   62SAPC  H15Y 4974   7.421   6.376   8.935 -0.1604 -0.2340 -0.5416
   62SAPC  C316 4975   7.569   6.218   8.943  0.2788  0.8726  0.0182
   62SAPC  H16X 4976   7.639   6.181   9.020  3.0826 -0.6333 -2.9888
   62SAPC  H16Y 4977   7.627   6.240   8.851  0.1066 -1.4907 -0.7237
   62SAPC  C317 4978   7.466   6.111   8.916 -0.4049  0.2420 -0.2414
   62SAPC  H17X 4979   7.411   6.098   9.011  1.6183  0.5599  1.0401
   62SAPC  H17Y 4980   7.533   6.022   8.916  1.4042  1.5203  1.6361
   62SAPC  C318 4981   7.388   6.136   8.799  0.9284 -0.5902  1.2176
   62SAPC  H18X 4982   7.341   6.236   8.809 -1.2739 -1.5823  1.3563
   62SAPC  H18Y 4983   7.306   6.066   8.771  1.9451 -0.6459 -2.1255
   62SAPC  H18Z 4984   7.458   6.145   8.713  0.6139 -1.4602  0.8596
   63SAPC     N 4985   0.768   5.085   5.997 -0.2852  0.6021  0.6018
   63SAPC   C12 4986   0.907   5.059   6.069 -0.5417 -0.5198  0.2808
   63SAPC  H12A 4987   0.974   5.140   6.045  0.1333 -0.8178  1.1332
   63SAPC  H12B 4988   0.951   4.973   6.020  0.1605 -0.4644  0.7980
   63SAPC   C13 4989   0.696   5.191   6.068  0.2049  0.5703  0.0937
   63SAPC  H13A 4990   0.592   5.193   6.039  0.2492 -1.9900 -0.4124
   63SAPC  H13B 4991   0.697   5.176   6.175 -0.8050  2.3745  0.4078
   63SAPC  H13C 4992   0.739   5.288   6.046 -2.2407  1.6156 -0.4997
   63SAPC   C14 4993   0.778   5.127   5.853  0.1605  0.3318  0.4173
   63SAPC  H14A 4994   0.829   5.048   5.800 -2.0960 -0.2792 -1.0019
   63SAPC  H14B 4995   0.681   5.144   5.808 -1.3719 -1.4041  2.8295
   63SAPC  H14C 4996   0.834   5.219   5.847  0.2613  0.2151 -0.8151
   63SAPC   C15 4997   0.684   4.956   6.006 -0.2888  0.1343 -0.4364
   63SAPC  H15A 4998   0.583   4.984   5.977  0.6686  2.8776 -1.4505
   63SAPC  H15B 4999   0.709   4.875   5.940 -1.4201  0.4753 -1.3191
   63SAPC  H15C 5000   0.685   4.909   6.104  0.6992 -2.6947 -1.7109
   63SAPC   C11 5001   0.916   5.034   6.222  0.1791  0.3281 -0.7343
   63SAPC  H11A 5002   0.869   5.122   6.271 -1.3735 -1.5815  1.4245
   63SAPC  H11B 5003   1.024   5.033   6.247  0.2366  0.5666 -0.9667
   63SAPC     P 5004   0.931   4.805   6.343  0.3352  0.3016  0.0487
   63SAPC   O13 5005   0.835   4.704   6.398  0.0048  0.2945  0.2145
   63SAPC   O14 5006   1.046   4.751   6.266 -0.1473  0.0892 -0.1448
   63SAPC   O12 5007   0.853   4.916   6.253 -0.2752 -0.5852 -0.4278
   63SAPC   O11 5008   0.983   4.898   6.462 -0.2065 -0.1088 -0.1802
   63SAPC    C1 5009   1.128   4.911   6.484 -0.1686  0.2563 -0.1603
   63SAPC    HA 5010   1.183   4.938   6.391 -1.1228 -1.0810 -1.1573
   63SAPC    HB 5011   1.141   4.991   6.559  3.2941 -0.0855 -0.2421
   63SAPC    C2 5012   1.202   4.778   6.522 -0.3583  0.4682 -0.3219
   63SAPC    HS 5013   1.215   4.723   6.427  0.5355  1.4443 -0.7799
   63SAPC   O21 5014   1.118   4.714   6.621 -0.5575 -0.1171  0.3514
   63SAPC   C21 5015   1.117   4.579   6.611 -0.1964 -0.0972  0.6059
   63SAPC   O22 5016   1.193   4.513   6.537  0.0841  0.2052 -0.3093
   63SAPC   C22 5017   1.015   4.516   6.713 -0.4538  1.1475 -0.3421
   63SAPC   H2R 5018   0.939   4.594   6.736 -1.4239  0.7284 -1.9727
   63SAPC   H2S 5019   0.965   4.439   6.651 -0.9217 -1.1295  2.6761
   63SAPC    C3 5020   1.340   4.806   6.583 -0.7163  0.0182  0.0877
   63SAPC    HX 5021   1.391   4.884   6.523  0.1250 -0.9612 -0.5142
   63SAPC    HY 5022   1.382   4.704   6.592 -2.2185 -0.5399  1.3068
   63SAPC   O31 5023   1.331   4.861   6.718  0.3398 -0.2801 -0.0674
   63SAPC   C31 5024   1.438   4.875   6.791 -0.4360 -0.3984 -0.5585
   63SAPC   O32 5025   1.555   4.840   6.769  1.0520  0.1351  0.4725
   63SAPC   C32 5026   1.415   4.962   6.920  0.4181  0.2763  0.2275
   63SAPC   H2X 5027   1.305   4.962   6.933  0.3878  0.4963 -0.0173
   63SAPC   H2Y 5028   1.442   5.069   6.906 -0.7174  0.6990  1.1446
   63SAPC   C23 5029   1.068   4.451   6.841 -0.0658  0.0515  0.0521
   63SAPC   H3R 5030   1.125   4.360   6.814  1.0242  0.4250  1.0178
   63SAPC   H3S 5031   0.988   4.407   6.905 -2.4905  1.5367 -1.7489
   63SAPC   C24 5032   1.161   4.544   6.926  0.2017  0.1003  0.2340
   63SAPC   H4R 5033   1.253   4.577   6.873  1.3420 -0.2312  1.9389
   63SAPC   H4S 5034   1.197   4.473   7.003  0.8772 -0.2840 -0.4292
   63SAPC   C25 5035   1.072   4.657   6.978 -0.2451  0.0357  0.8403
   63SAPC   H5R 5036   1.069   4.752   6.924  0.5733 -0.0926  0.5559
   63SAPC   C26 5037   1.007   4.653   7.095 -0.8534 -0.3400  0.0510
   63SAPC   H6R 5038   0.934   4.734   7.110 -1.3689 -0.3566 -2.0393
   63SAPC   C27 5039   1.008   4.543   7.194 -0.5452 -0.2016 -1.0723
   63SAPC   H7R 5040   1.075   4.564   7.279 -3.1025 -2.5147  1.7516
   63SAPC   H7S 5041   1.043   4.456   7.134  2.4521  0.8807 -1.0477
   63SAPC   C28 5042   0.868   4.525   7.252 -0.4055  0.2656  0.0363
   63SAPC   H8R 5043   0.783   4.551   7.187 -1.1493 -0.3671  0.7304
   63SAPC   C29 5044   0.834   4.510   7.380  0.7008  0.2741 -0.0714
   63SAPC   H9R 5045   0.728   4.497   7.407  0.9087 -3.2051 -0.4856
   63SAPC  C210 5046   0.925   4.501   7.497 -0.2587  0.2122 -0.3492
   63SAPC  H10R 5047   1.022   4.551   7.477  0.3747  0.1690  2.2388
   63SAPC  H10S 5048   0.943   4.394   7.521 -0.2716  0.2905  0.0128
   63SAPC  C211 5049   0.868   4.564   7.621 -0.1457  0.2417  0.3687
   63SAPC  H11R 5050   0.869   4.674   7.626  1.4036  0.2858 -0.3406
   63SAPC  C212 5051   0.819   4.492   7.722 -0.1817 -0.3653  0.2416
   63SAPC  H12R 5052   0.769   4.539   7.808 -1.0848 -0.6080 -0.1304
   63SAPC  C213 5053   0.813   4.338   7.735  0.4285  0.1602 -0.4763
   63SAPC  H13R 5054   0.800   4.298   7.838 -0.3213  0.0666 -0.6057
   63SAPC  H13S 5055   0.910   4.289   7.708  1.6668  1.7164  0.9548
   63SAPC  C214 5056   0.700   4.264   7.653  0.1448 -0.6400  0.1559
   63SAPC  H14R 5057   0.708   4.289   7.546 -0.3753  0.5058  0.3668
   63SAPC  C215 5058   0.616   4.170   7.693 -0.4780  0.1157 -0.5954
   63SAPC  H15R 5059   0.556   4.133   7.608  0.3252 -0.8842 -0.7464
   63SAPC  C216 5060   0.592   4.123   7.838  0.1047 -0.9817  0.7167
   63SAPC  H16R 5061   0.676   4.055   7.867  0.6827  0.2548  2.0567
   63SAPC  H16S 5062   0.496   4.068   7.835 -0.6225  0.1738  1.8187
   63SAPC  C217 5063   0.575   4.223   7.954 -0.2680  0.3672  0.0300
   63SAPC  H17R 5064   0.493   4.293   7.925 -2.3830 -2.1711 -0.5127
   63SAPC  H17S 5065   0.674   4.266   7.979  0.1381 -1.0766  0.9949
   63SAPC  C218 5066   0.537   4.146   8.080 -0.4943  0.1610 -0.5680
   63SAPC  H18R 5067   0.615   4.068   8.097  3.0193  2.8397 -2.8636
   63SAPC  H18S 5068   0.444   4.088   8.062  0.7937 -2.5444  0.7984
   63SAPC  C219 5069   0.527   4.213   8.216  0.7882 -0.0990  0.5177
   63SAPC  H19R 5070   0.429   4.265   8.218  1.4174  1.1921 -0.5996
   63SAPC  H19S 5071   0.609   4.284   8.241  0.2964  0.6140  0.1299
   63SAPC  C220 5072   0.508   4.109   8.329 -0.4015 -0.3315  0.5342
   63SAPC  H20R 5073   0.449   4.019   8.301  0.8782 -1.2618  0.7463
   63SAPC  H20S 5074   0.455   4.170   8.406  0.2623  2.4749 -1.0668
   63SAPC  H20T 5075   0.608   4.075   8.362 -0.9329 -1.0958  1.3776
   63SAPC   C33 5076   1.462   4.892   7.045  0.9097 -0.3480  0.3473
   63SAPC   H3X 5077   1.447   4.954   7.135  1.6028 -1.8801  1.5548
   63SAPC   H3Y 5078   1.571   4.870   7.043  0.7838 -0.9509 -1.0848
   63SAPC   C34 5079   1.384   4.761   7.077  0.2541 -0.4793 -0.1394
   63SAPC   H4X 5080   1.413   4.681   7.005  0.2197 -0.0841 -0.5995
   63SAPC   H4Y 5081   1.274   4.773   7.064  0.3582  0.0789 -0.5916
   63SAPC   C35 5082   1.398   4.713   7.223  0.6030  1.2950  0.5887
   63SAPC   H5X 5083   1.506   4.708   7.250  0.0978  2.2462  3.0269
   63SAPC   H5Y 5084   1.365   4.608   7.234  0.4642  1.4078  1.3100
   63SAPC   C36 5085   1.334   4.805   7.329 -0.1117  0.4690  0.2415
   63SAPC   H6X 5086   1.229   4.822   7.295  0.4588  0.4110 -1.6729
   63SAPC   H6Y 5087   1.389   4.901   7.329  0.6980  0.0244  1.4503
   63SAPC   C37 5088   1.342   4.731   7.456 -0.5911 -0.2806 -0.0106
   63SAPC   H7X 5089   1.448   4.725   7.487 -0.3373 -0.5963 -0.9085
   63SAPC   H7Y 5090   1.297   4.630   7.443 -0.6590  0.0858 -3.5846
   63SAPC   C38 5091   1.255   4.800   7.566  0.3017 -0.3723 -0.7335
   63SAPC   H8X 5092   1.270   4.746   7.662 -2.4451  0.8557  0.4871
   63SAPC   H8Y 5093   1.148   4.800   7.537  0.7688 -0.4123 -2.6015
   63SAPC   C39 5094   1.308   4.946   7.600  0.0657  0.2048 -0.5035
   63SAPC   H9X 5095   1.262   5.012   7.523 -1.7685 -1.2951 -0.7716
   63SAPC   H9Y 5096   1.418   4.949   7.585 -0.0798 -0.3407 -1.7477
   63SAPC  C310 5097   1.270   4.996   7.739  0.1699  0.2398 -0.7805
   63SAPC  H10X 5098   1.332   4.941   7.813  1.9360  2.2649 -0.6510
   63SAPC  H10Y 5099   1.164   4.974   7.764 -0.0679 -0.1610 -2.0729
   63SAPC  C311 5100   1.299   5.152   7.765  0.2590 -0.0007 -0.9973
   63SAPC  H11X 5101   1.238   5.228   7.712 -0.8824 -0.2966 -0.1416
   63SAPC  H11Y 5102   1.403   5.175   7.733  0.6171  0.9432  0.7364
   63SAPC  C312 5103   1.273   5.181   7.913  0.1169  0.0638  0.2403
   63SAPC  H12X 5104   1.352   5.143   7.981 -2.5065  0.1624  3.6346
   63SAPC  H12Y 5105   1.178   5.135   7.946 -2.1534  3.3805 -1.1348
   63SAPC  C313 5106   1.284   5.330   7.952 -0.7549  0.2111  0.0962
   63SAPC  H13X 5107   1.214   5.384   7.884  0.1566 -1.2131 -2.0753
   63SAPC  H13Y 5108   1.391   5.355   7.941 -0.2687 -1.2117  1.2608
   63SAPC  C314 5109   1.241   5.358   8.092 -0.2510  0.4505 -0.4413
   63SAPC  H14X 5110   1.133   5.338   8.111 -0.0101  0.0730  0.6073
   63SAPC  H14Y 5111   1.251   5.467   8.107  1.2683  0.5019 -1.7012
   63SAPC  C315 5112   1.327   5.299   8.207  0.1886  0.1054 -0.1276
   63SAPC  H15X 5113   1.436   5.320   8.197  0.0622  1.2900  0.7276
   63SAPC  H15Y 5114   1.313   5.189   8.199 -1.0762  0.3158 -1.1709
   63SAPC  C316 5115   1.285   5.342   8.344 -0.6434  0.5281  0.3842
   63SAPC  H16X 5116   1.200   5.278   8.375  1.8045 -1.9078  2.5501
   63SAPC  H16Y 5117   1.237   5.440   8.325 -1.3546  0.0622 -0.2968
   63SAPC  C317 5118   1.406   5.342   8.432  0.3012 -0.5169 -0.0153
   63SAPC  H17X 5119   1.463   5.436   8.414 -0.3107 -0.2824 -0.7586
   63SAPC  H17Y 5120   1.466   5.249   8.421  1.9481  0.1015  2.7022
   63SAPC  C318 5121   1.358   5.335   8.578 -0.3795 -0.0085  0.0732
   63SAPC  H18X 5122   1.285   5.416   8.600 -0.0095  0.2552  0.3471
   63SAPC  H18Y 5123   1.446   5.345   8.646  0.4623  1.3468 -1.1408
   63SAPC  H18Z 5124   1.307   5.238   8.592  1.7997 -1.5882 -2.0985
   64SAPC     N 5125   4.559   4.156   5.870  0.0764  0.2689 -0.2756
   64SAPC   C12 5126   4.433   4.148   5.952  0.0256  0.3047 -1.2469
   64SAPC  H12A 5127   4.402   4.050   5.983  2.0746  0.4494  1.6361
   64SAPC  H12B 5128   4.353   4.187   5.890  0.1737  1.9031 -0.4978
   64SAPC   C13 5129   4.604   4.291   5.841 -0.0729 -0.4571 -0.1146
   64SAPC  H13A 5130   4.705   4.294   5.803  0.4583  1.6886  1.2982
   64SAPC  H13B 5131   4.538   4.342   5.772  0.0395  0.5103  0.4783
   64SAPC  H13C 5132   4.587   4.344   5.933  1.7058  0.8132 -0.4716
   64SAPC   C14 5133   4.669   4.093   5.952 -0.1089 -0.1092 -0.3062
   64SAPC  H14A 5134   4.766   4.108   5.906 -0.7503 -1.8706 -2.4581
   64SAPC  H14B 5135   4.675   4.133   6.052  1.1562 -2.0853  0.4805
   64SAPC  H14C 5136   4.651   3.988   5.968 -1.4985 -0.1228 -1.7212
   64SAPC   C15 5137   4.534   4.091   5.743 -0.4617 -0.1018  0.0767
   64SAPC  H15A 5138   4.616   4.079   5.674 -0.9173 -1.0360 -0.3124
   64SAPC  H15B 5139   4.496   3.992   5.762 -1.8208  0.1253 -1.3082
   64SAPC  H15C 5140   4.460   4.152   5.693  0.6990  0.1102 -1.4699
   64SAPC   C11 5141   4.430   4.231   6.087  0.1052 -0.0510  0.7778
   64SAPC  H11A 5142   4.517   4.206   6.151  0.5653 -0.5827 -0.0447
   64SAPC  H11B 5143   4.342   4.192   6.142 -0.9859 -0.5548 -1.2272
   64SAPC     P 5144   4.307   4.459   6.060 -0.2099 -0.3798  0.3559
   64SAPC   O13 5145   4.354   4.594   6.013 -0.1057 -0.5965  0.4371
   64SAPC   O14 5146   4.188   4.400   5.998  0.3204 -0.7485  0.7043
   64SAPC   O12 5147   4.431   4.368   6.057  0.1100  0.0682  0.5397
   64SAPC   O11 5148   4.278   4.477   6.215 -0.7916  0.4406 -0.2976
   64SAPC    C1 5149   4.148   4.450   6.275 -0.6777 -0.5437  0.1480
   64SAPC    HA 5150   4.083   4.533   6.240  0.1323  0.4945  1.0286
   64SAPC    HB 5151   4.115   4.350   6.240 -0.8828 -0.3089 -0.3373
   64SAPC    C2 5152   4.151   4.443   6.428  0.0070 -0.1612  0.2110
   64SAPC    HS 5153   4.044   4.430   6.455 -0.8493  1.4402 -2.1214
   64SAPC   O21 5154   4.211   4.562   6.498  0.8923  0.1188 -0.3421
   64SAPC   C21 5155   4.131   4.669   6.482 -0.6069  0.4134  0.5513
   64SAPC   O22 5156   4.018   4.664   6.430  0.3565 -0.5202  0.2172
   64SAPC   C22 5157   4.188   4.789   6.552 -0.6285 -1.3203  0.2754
   64SAPC   H2R 5158   4.271   4.759   6.619 -0.9429  0.0623  1.3412
   64SAPC   H2S 5159   4.225   4.860   6.476  0.9063 -1.1795  1.1150
   64SAPC    C3 5160   4.227   4.315   6.464 -0.3831  0.2717  0.1207
   64SAPC    HX 5161   4.333   4.348   6.458  0.8172 -2.7098  2.3055
   64SAPC    HY 5162   4.230   4.240   6.383  2.7552 -0.8234  1.1008
   64SAPC   O31 5163   4.188   4.256   6.591 -0.3226  0.0839  0.2162
   64SAPC   C31 5164   4.257   4.146   6.623  0.4264  0.4730 -0.2836
   64SAPC   O32 5165   4.344   4.090   6.563  0.3846 -0.1474 -0.1092
   64SAPC   C32 5166   4.197   4.085   6.751 -0.1022  0.5290  1.3900
   64SAPC   H2X 5167   4.097   4.044   6.724  1.2583 -2.1115 -0.1069
   64SAPC   H2Y 5168   4.186   4.170   6.821  3.3069  1.4227  1.0087
   64SAPC   C23 5169   4.081   4.860   6.647 -0.2876  0.4289  0.2228
   64SAPC   H3R 5170   3.990   4.866   6.584 -0.6024  0.9703  0.7131
   64SAPC   H3S 5171   4.122   4.958   6.681  1.8340  0.3779 -1.9574
   64SAPC   C24 5172   4.040   4.785   6.776  0.4318  0.6362 -0.5620
   64SAPC   H4R 5173   4.121   4.787   6.853 -0.5264  0.0321  0.4856
   64SAPC   H4S 5174   4.043   4.675   6.758  0.3716  0.0895  2.3356
   64SAPC   C25 5175   3.899   4.826   6.831 -1.6190  0.1491  0.3199
   64SAPC   H5R 5176   3.825   4.827   6.751  1.0499  0.6699 -2.3248
   64SAPC   C26 5177   3.872   4.874   6.953 -0.3690 -0.0221  0.4421
   64SAPC   H6R 5178   3.768   4.907   6.965 -0.6788 -0.8607  0.1264
   64SAPC   C27 5179   3.965   4.891   7.072 -0.0810 -0.4014 -0.3136
   64SAPC   H7R 5180   4.041   4.966   7.041 -0.5050 -0.4231 -1.4759
   64SAPC   H7S 5181   4.030   4.802   7.081  0.3798 -0.0381  0.0264
   64SAPC   C28 5182   3.910   4.936   7.209  0.2109 -0.2395  0.3447
   64SAPC   H8R 5183   3.812   4.985   7.195  1.3473  1.8057 -1.0384
   64SAPC   C29 5184   3.974   4.940   7.324 -0.2376  0.1836 -0.0541
   64SAPC   H9R 5185   3.925   4.974   7.416  1.3209  0.1425  0.8182
   64SAPC  C210 5186   4.117   4.902   7.343 -0.0372 -0.1214 -0.1632
   64SAPC  H10R 5187   4.183   4.992   7.344 -3.4368  2.5654  0.6814
   64SAPC  H10S 5188   4.161   4.830   7.271  3.6504  1.5146  0.2387
   64SAPC  C211 5189   4.145   4.829   7.473  0.3203  0.8013 -0.1872
   64SAPC  H11R 5190   4.130   4.720   7.470 -0.5852  0.9284 -2.6279
   64SAPC  C212 5191   4.182   4.879   7.589  0.3211  0.2352 -0.1499
   64SAPC  H12R 5192   4.199   4.804   7.668 -2.1747 -0.9154 -0.6125
   64SAPC  C213 5193   4.196   5.028   7.616 -0.8703 -0.0896 -0.6165
   64SAPC  H13R 5194   4.121   5.054   7.694  0.4125  2.2085 -0.0806
   64SAPC  H13S 5195   4.164   5.093   7.532  1.1196  0.6876 -0.8188
   64SAPC  C214 5196   4.332   5.078   7.661 -0.3966  0.2351 -0.8713
   64SAPC  H14R 5197   4.391   5.133   7.586  1.7217 -0.0728  0.4619
   64SAPC  C215 5198   4.379   5.046   7.784  0.6097  0.6499 -0.9453
   64SAPC  H15R 5199   4.473   5.092   7.817  0.2140  1.0512 -0.3612
   64SAPC  C216 5200   4.325   4.964   7.897  0.7357  0.1863  0.0229
   64SAPC  H16R 5201   4.245   4.898   7.856  1.3629 -1.4550  1.3201
   64SAPC  H16S 5202   4.281   5.030   7.974 -0.6795 -1.5700  0.8015
   64SAPC  C217 5203   4.438   4.879   7.964  0.5673  0.7484 -0.2249
   64SAPC  H17R 5204   4.525   4.947   7.966 -0.8759  2.6380  0.3988
   64SAPC  H17S 5205   4.463   4.795   7.895 -1.2064  0.0347 -0.0710
   64SAPC  C218 5206   4.412   4.841   8.112 -0.2629  0.6529 -0.1944
   64SAPC  H18R 5207   4.330   4.767   8.126  1.2194 -0.9237  0.5162
   64SAPC  H18S 5208   4.374   4.937   8.152  2.1352  0.6966  2.2506
   64SAPC  C219 5209   4.534   4.800   8.205  0.1994  0.0614 -0.3562
   64SAPC  H19R 5210   4.614   4.875   8.185 -1.7592  1.5480 -3.2665
   64SAPC  H19S 5211   4.578   4.705   8.167  1.7709 -0.2651  2.0116
   64SAPC  C220 5212   4.509   4.796   8.354 -0.1859 -0.0070 -0.0826
   64SAPC  H20R 5213   4.591   4.731   8.392  0.3321 -0.3950 -1.7746
   64SAPC  H20S 5214   4.409   4.748   8.365  0.2618 -0.9955 -0.2254
   64SAPC  H20T 5215   4.509   4.895   8.403 -0.2927 -0.9680  1.9864
   64SAPC   C33 5216   4.270   3.959   6.810  0.5304 -0.2141 -0.2676
   64SAPC   H3X 5217   4.322   3.904   6.729  2.8762 -0.2964  1.2166
   64SAPC   H3Y 5218   4.185   3.902   6.854  1.1832 -0.1898  1.0450
   64SAPC   C34 5219   4.377   3.982   6.916 -0.5863 -0.1539 -0.0988
   64SAPC   H4X 5220   4.341   4.046   6.999 -1.2485 -0.8451  0.1572
   64SAPC   H4Y 5221   4.462   4.027   6.859  0.2229 -1.9204 -0.3648
   64SAPC   C35 5222   4.438   3.853   6.980  0.1996  0.2569 -0.1671
   64SAPC   H5X 5223   4.486   3.782   6.909  0.2561 -0.6254  0.7445
   64SAPC   H5Y 5224   4.347   3.797   7.008  1.3175 -1.4195  0.2686
   64SAPC   C36 5225   4.539   3.898   7.087  0.6138 -0.1698  0.9026
   64SAPC   H6X 5226   4.612   3.970   7.045  1.5038  0.1384  2.8812
   64SAPC   H6Y 5227   4.597   3.805   7.106 -0.2094 -0.7281  0.7443
   64SAPC   C37 5228   4.477   3.955   7.210  0.2721 -0.0303  0.5279
   64SAPC   H7X 5229   4.401   3.885   7.251 -0.8048  0.6222 -0.3212
   64SAPC   H7Y 5230   4.424   4.050   7.186  1.3645  0.4791  0.0473
   64SAPC   C38 5231   4.581   3.980   7.319  0.3717 -0.2792  0.6990
   64SAPC   H8X 5232   4.653   4.053   7.277 -1.4044  1.3849  0.4257
   64SAPC   H8Y 5233   4.642   3.887   7.333 -0.0132 -0.2556  2.9171
   64SAPC   C39 5234   4.524   4.015   7.449  0.1214 -0.7842  0.1059
   64SAPC   H9X 5235   4.458   3.934   7.488 -1.0965  0.0087 -0.2486
   64SAPC   H9Y 5236   4.465   4.109   7.455 -0.2003 -0.8228 -1.8182
   64SAPC  C310 5237   4.629   4.031   7.554  0.4147 -0.3004  0.0730
   64SAPC  H10X 5238   4.671   4.133   7.539  2.8768 -1.4298 -1.3613
   64SAPC  H10Y 5239   4.715   3.962   7.536  0.2487 -0.9580  1.6553
   64SAPC  C311 5240   4.579   4.003   7.700 -0.0722  0.1498  0.3598
   64SAPC  H11X 5241   4.486   4.060   7.719 -1.0416 -1.4274  0.5290
   64SAPC  H11Y 5242   4.663   4.044   7.759  0.7217  0.3009 -0.8387
   64SAPC  C312 5243   4.547   3.856   7.725 -0.4127 -0.1108 -0.7296
   64SAPC  H12X 5244   4.632   3.789   7.700 -0.4118 -0.1171 -0.7091
   64SAPC  H12Y 5245   4.477   3.814   7.650  0.4951 -0.4373 -1.4136
   64SAPC  C313 5246   4.503   3.819   7.868 -0.8185  0.3885 -0.3489
   64SAPC  H13X 5247   4.429   3.890   7.908 -1.5438 -1.3943  1.6273
   64SAPC  H13Y 5248   4.586   3.821   7.942 -1.1012 -1.7690  0.1044
   64SAPC  C314 5249   4.450   3.670   7.882 -0.4018 -0.4488  0.5886
   64SAPC  H14X 5250   4.525   3.597   7.845  1.3250  2.4556 -2.1706
   64SAPC  H14Y 5251   4.369   3.672   7.807  1.9842  1.0243 -2.1852
   64SAPC  C315 5252   4.416   3.640   8.027  0.1171 -0.6559  0.6032
   64SAPC  H15X 5253   4.336   3.706   8.068 -1.1249 -1.0929 -1.0376
   64SAPC  H15Y 5254   4.504   3.648   8.094  0.8395 -1.4331 -0.2423
   64SAPC  C316 5255   4.354   3.501   8.055  0.0330 -0.1876  0.1056
   64SAPC  H16X 5256   4.430   3.430   8.014 -1.7796 -1.8328 -0.5834
   64SAPC  H16Y 5257   4.270   3.487   7.984 -0.1452 -0.3009  0.3378
   64SAPC  C317 5258   4.320   3.474   8.202 -0.4369 -0.5156  0.4187
   64SAPC  H17X 5259   4.413   3.507   8.254  0.9208 -0.0002 -2.1833
   64SAPC  H17Y 5260   4.295   3.366   8.204 -4.6707  0.3016  0.1337
   64SAPC  C318 5261   4.191   3.545   8.249 -0.3788  0.3928  0.6261
   64SAPC  H18X 5262   4.161   3.502   8.346 -0.5922 -0.3412  0.2441
   64SAPC  H18Y 5263   4.106   3.517   8.184  0.0654 -1.3611  0.7327
   64SAPC  H18Z 5264   4.211   3.654   8.253  0.1962  0.3663 -0.8291
   65SAPC     N 5265   4.004   0.403   5.847  0.3332  1.3449 -0.1248
   65SAPC   C12 5266   4.057   0.378   5.987  0.1224  0.9284  0.0380
   65SAPC  H12A 5267   4.149   0.324   5.972  0.2212  0.9053  0.7101
   65SAPC  H12B 5268   3.984   0.313   6.034  0.5199 -1.8453 -2.8128
   65SAPC   C13 5269   4.111   0.413   5.741  0.7534 -0.0404 -0.9890
   65SAPC  H13A 5270   4.077   0.392   5.641  0.1575 -1.9216 -0.4392
   65SAPC  H13B 5271   4.132   0.519   5.746 -3.6861  0.9916  0.5500
   65SAPC  H13C 5272   4.200   0.361   5.774  0.9266  0.4613 -0.6549
   65SAPC   C14 5273   3.932   0.282   5.790 -0.7788  0.3910 -0.5308
   65SAPC  H14A 5274   4.012   0.210   5.798  0.5608  1.8223 -0.3810
   65SAPC  H14B 5275   3.835   0.262   5.832 -0.3043  1.0542  0.9665
   65SAPC  H14C 5276   3.911   0.300   5.685  1.3509 -1.6233 -1.3880
   65SAPC   C15 5277   3.925   0.523   5.834  0.8857  0.7337  0.5069
   65SAPC  H15A 5278   3.984   0.613   5.843  1.0129  0.7766 -0.5986
   65SAPC  H15B 5279   3.889   0.519   5.732  0.1849 -0.2524  0.7805
   65SAPC  H15C 5280   3.846   0.519   5.907  1.5080 -0.0999  1.1735
   65SAPC   C11 5281   4.089   0.496   6.079 -0.4764 -0.8554 -0.1332
   65SAPC  H11A 5282   4.109   0.458   6.181  0.1143  0.8592  0.4199
   65SAPC  H11B 5283   3.993   0.551   6.094 -1.3313 -2.1221 -0.7414
   65SAPC     P 5284   4.346   0.555   6.063 -0.1997 -0.0551 -0.2657
   65SAPC   O13 5285   4.358   0.408   6.077 -0.2440 -0.3511 -0.1305
   65SAPC   O14 5286   4.440   0.612   5.966 -0.1421 -0.2085 -0.0114
   65SAPC   O12 5287   4.193   0.582   6.028 -0.1526  0.0211 -0.0009
   65SAPC   O11 5288   4.364   0.632   6.196  0.4899 -0.8914  0.0607
   65SAPC    C1 5289   4.283   0.753   6.219  0.0641  0.1421  0.1145
   65SAPC    HA 5290   4.307   0.839   6.153 -0.4300  1.1083  1.1742
   65SAPC    HB 5291   4.176   0.728   6.202  0.5898 -0.9430 -1.8991
   65SAPC    C2 5292   4.306   0.794   6.366 -0.6359  0.0008 -0.0107
   65SAPC    HS 5293   4.237   0.879   6.384 -2.2154 -0.5384 -2.8371
   65SAPC   O21 5294   4.445   0.821   6.373 -0.3605 -0.4414 -0.2613
   65SAPC   C21 5295   4.484   0.894   6.481 -0.9785 -0.2099 -0.1217
   65SAPC   O22 5296   4.417   0.961   6.554 -0.0967  0.3280  0.3968
   65SAPC   C22 5297   4.636   0.887   6.487  0.8869 -0.2872  0.3105
   65SAPC   H2R 5298   4.668   0.782   6.500  1.2285 -0.2051  0.1260
   65SAPC   H2S 5299   4.675   0.927   6.391  1.4343  2.5357  1.5976
   65SAPC    C3 5300   4.253   0.672   6.455 -0.1955 -0.5318  0.8424
   65SAPC    HX 5301   4.296   0.574   6.423 -0.2252 -0.2503 -0.0774
   65SAPC    HY 5302   4.147   0.661   6.423  0.4852 -0.5239 -1.6119
   65SAPC   O31 5303   4.275   0.704   6.598  0.0860 -0.3563  0.1526
   65SAPC   C31 5304   4.169   0.773   6.650 -0.3031  0.1094 -0.1351
   65SAPC   O32 5305   4.075   0.816   6.589  0.3607 -0.1795  0.0118
   65SAPC   C32 5306   4.191   0.777   6.802 -0.4677 -1.0751  0.7287
   65SAPC   H2X 5307   4.293   0.816   6.824 -1.0993  1.7019 -0.8170
   65SAPC   H2Y 5308   4.192   0.674   6.842 -0.6341 -1.5406 -0.4212
   65SAPC   C23 5309   4.691   0.966   6.603  0.0062  0.6405 -0.5458
   65SAPC   H3R 5310   4.652   1.069   6.614  1.4643  1.2920 -1.1430
   65SAPC   H3S 5311   4.802   0.976   6.596  0.1651 -0.4486  0.1422
   65SAPC   C24 5312   4.653   0.885   6.729 -0.2891 -0.3548  0.1272
   65SAPC   H4R 5313   4.704   0.787   6.721  0.1049 -0.1605  0.1950
   65SAPC   H4S 5314   4.543   0.883   6.747 -0.1532  0.6680  1.2135
   65SAPC   C25 5315   4.725   0.931   6.855  0.3645 -0.6226 -0.2245
   65SAPC   H5R 5316   4.826   0.887   6.862  0.5850  0.0383  1.3565
   65SAPC   C26 5317   4.677   1.011   6.951  0.3616  0.0313 -0.8108
   65SAPC   H6R 5318   4.747   1.058   7.022  0.3563  1.7828 -1.9104
   65SAPC   C27 5319   4.537   1.065   6.951 -0.7379 -0.0747  0.3045
   65SAPC   H7R 5320   4.489   1.080   6.852 -1.4888  1.8356  0.9157
   65SAPC   H7S 5321   4.535   1.167   6.994 -3.4887  0.1825 -0.2394
   65SAPC   C28 5322   4.448   0.979   7.033  0.4023  0.2355  0.3030
   65SAPC   H8R 5323   4.407   0.895   6.975 -2.5180  3.0896 -2.1817
   65SAPC   C29 5324   4.416   1.002   7.159 -0.2071 -0.3445 -0.6111
   65SAPC   H9R 5325   4.350   0.934   7.215  1.3869  0.2035  2.0962
   65SAPC  C210 5326   4.462   1.109   7.250 -0.3403  0.2288 -0.0973
   65SAPC  H10R 5327   4.369   1.149   7.296 -0.1963  0.3552  0.0910
   65SAPC  H10S 5328   4.510   1.194   7.197  1.7174  0.1285  1.4504
   65SAPC  C211 5329   4.564   1.054   7.346 -0.1919 -0.5807  0.4071
   65SAPC  H11R 5330   4.664   1.039   7.302 -0.3710 -1.7484  0.3788
   65SAPC  C212 5331   4.558   1.054   7.484 -0.2107 -0.7098  0.5140
   65SAPC  H12R 5332   4.644   1.016   7.541 -1.0417  1.6156  3.5676
   65SAPC  C213 5333   4.439   1.098   7.569 -0.3901  0.5834  0.2219
   65SAPC  H13R 5334   4.346   1.100   7.508 -0.4775  1.1545  0.3684
   65SAPC  H13S 5335   4.462   1.203   7.598  2.5430 -0.2084  1.1248
   65SAPC  C214 5336   4.402   1.002   7.681 -0.0483  0.2933 -0.2700
   65SAPC  H14R 5337   4.313   0.943   7.653  0.6441 -1.9024  1.7994
   65SAPC  C215 5338   4.470   0.976   7.795  0.6373 -0.1211  0.4305
   65SAPC  H15R 5339   4.437   0.899   7.866 -0.1021  1.5721  1.9801
   65SAPC  C216 5340   4.589   1.053   7.835 -0.5763 -0.1321 -1.0146
   65SAPC  H16R 5341   4.598   1.154   7.789 -0.9919  0.0176 -0.7728
   65SAPC  H16S 5342   4.677   0.990   7.814  0.1137  0.0034  1.2020
   65SAPC  C217 5343   4.585   1.064   7.990  0.6777  0.6354 -0.2554
   65SAPC  H17R 5344   4.583   0.965   8.041 -0.6626  0.2583 -0.9952
   65SAPC  H17S 5345   4.501   1.129   8.022  0.3953 -0.3191  1.0364
   65SAPC  C218 5346   4.710   1.143   8.045  0.1511 -0.0143  0.1970
   65SAPC  H18R 5347   4.676   1.178   8.144  1.8844  0.4485  0.6663
   65SAPC  H18S 5348   4.734   1.225   7.973 -0.5596 -0.9956 -1.1970
   65SAPC  C219 5349   4.831   1.049   8.068 -0.7213 -1.1682  0.5534
   65SAPC  H19R 5350   4.819   0.967   7.994 -0.2757 -1.1298  0.4335
   65SAPC  H19S 5351   4.834   0.997   8.166 -0.3759 -0.8430  0.7192
   65SAPC  C220 5352   4.965   1.117   8.060 -0.0386 -0.1483 -0.2875
   65SAPC  H20R 5353   5.046   1.041   8.070 -0.0576  0.0390  1.7051
   65SAPC  H20S 5354   4.974   1.187   8.146 -2.0306  0.1703 -0.3013
   65SAPC  H20T 5355   4.977   1.182   7.971  1.1661 -1.5498 -1.2052
   65SAPC   C33 5356   4.087   0.881   6.871 -0.7263  0.7886 -0.2610
   65SAPC   H3X 5357   3.982   0.870   6.838 -0.4720  1.2962 -1.2673
   65SAPC   H3Y 5358   4.126   0.983   6.854 -0.1074  0.5082 -0.5600
   65SAPC   C34 5359   4.097   0.849   7.022 -0.0681  0.0399 -0.1205
   65SAPC   H4X 5360   4.197   0.872   7.065 -1.0094 -1.1646  2.9889
   65SAPC   H4Y 5361   4.080   0.740   7.037 -1.4371  0.3128  0.4654
   65SAPC   C35 5362   3.994   0.924   7.105  0.1509 -0.3887  0.6461
   65SAPC   H5X 5363   3.897   0.894   7.059  0.6403 -1.1423  0.0848
   65SAPC   H5Y 5364   4.010   1.033   7.089  1.1767 -0.3562  1.7701
   65SAPC   C36 5365   3.993   0.889   7.252 -0.0741 -0.6762  0.0623
   65SAPC   H6X 5366   4.102   0.881   7.275 -0.0069 -0.0486 -0.0096
   65SAPC   H6Y 5367   3.948   0.788   7.253 -0.2804 -0.5847  0.0109
   65SAPC   C37 5368   3.933   0.990   7.346  0.6006 -0.6253  0.1166
   65SAPC   H7X 5369   3.834   1.028   7.313  1.3504  2.1355  0.7335
   65SAPC   H7Y 5370   3.992   1.084   7.338  0.9675 -0.8777 -0.1681
   65SAPC   C38 5371   3.929   0.963   7.498 -0.2257 -0.4864  1.3067
   65SAPC   H8X 5372   4.030   0.927   7.528  0.9009 -1.9696 -3.4183
   65SAPC   H8Y 5373   3.867   0.872   7.514  1.6001 -2.2566 -0.9966
   65SAPC   C39 5374   3.887   1.085   7.582 -0.1659 -0.5290  0.0287
   65SAPC   H9X 5375   3.789   1.124   7.549  0.6036 -1.1257 -3.2851
   65SAPC   H9Y 5376   3.966   1.161   7.562 -1.6202  1.2300  0.7314
   65SAPC  C310 5377   3.887   1.056   7.731 -0.5967  0.2699 -0.0586
   65SAPC  H10X 5378   3.825   0.965   7.743  0.8680 -0.9232 -1.2301
   65SAPC  H10Y 5379   3.843   1.143   7.786 -1.3044 -0.0786 -0.0634
   65SAPC  C311 5380   4.031   1.042   7.789  0.8412 -0.1931 -0.3405
   65SAPC  H11X 5381   4.096   1.132   7.784  1.5455 -0.6682  0.1908
   65SAPC  H11Y 5382   4.088   0.964   7.733 -1.4770 -1.4723 -1.0521
   65SAPC  C312 5383   4.014   0.995   7.937 -0.4555  0.1175 -0.9649
   65SAPC  H12X 5384   3.943   0.910   7.937  2.1398 -2.2077 -0.6126
   65SAPC  H12Y 5385   3.981   1.086   7.992  1.1105 -0.1203  0.4806
   65SAPC  C313 5386   4.145   0.937   7.998  0.0932  0.2490 -1.2083
   65SAPC  H13X 5387   4.219   1.019   8.013  1.1377 -0.6472 -1.3230
   65SAPC  H13Y 5388   4.192   0.848   7.950  0.2746 -0.0844 -0.4349
   65SAPC  C314 5389   4.119   0.888   8.155 -0.2296  0.2386  0.6586
   65SAPC  H14X 5390   4.056   0.796   8.151  0.3709 -0.1390 -1.0948
   65SAPC  H14Y 5391   4.072   0.978   8.200  0.3568  1.5710 -1.2775
   65SAPC  C315 5392   4.249   0.855   8.224 -0.3904  0.2047 -0.0379
   65SAPC  H15X 5393   4.234   0.858   8.334  0.6254 -0.9655  0.1507
   65SAPC  H15Y 5394   4.322   0.935   8.198  0.2874 -0.3314  0.1627
   65SAPC  C316 5395   4.316   0.723   8.183 -0.1272  0.6552  0.2675
   65SAPC  H16X 5396   4.329   0.723   8.073 -1.1494 -2.3192  0.0431
   65SAPC  H16Y 5397   4.252   0.633   8.195 -0.9719  1.0000 -1.3656
   65SAPC  C317 5398   4.460   0.712   8.251  1.0607  0.0935  0.6730
   65SAPC  H17X 5399   4.441   0.730   8.359  1.4321 -0.8989  0.9160
   65SAPC  H17Y 5400   4.530   0.789   8.211  0.7063 -0.2141 -0.5813
   65SAPC  C318 5401   4.528   0.576   8.244  0.0323  0.0556 -0.2711
   65SAPC  H18X 5402   4.456   0.499   8.279 -0.0068 -0.1242 -0.7448
   65SAPC  H18Y 5403   4.619   0.563   8.307  0.5646  0.6579 -0.8902
   65SAPC  H18Z 5404   4.557   0.552   8.140 -0.4134 -2.3234  0.1069
   66SAPC     N 5405   2.541   5.122   6.414  0.2383 -0.5028 -0.4331
   66SAPC   C12 5406   2.454   5.030   6.332  0.4807 -0.0459  0.4494
   66SAPC  H12A 5407   2.351   5.027   6.364  0.7271 -0.2236  1.2357
   66SAPC  H12B 5408   2.475   4.929   6.363 -0.5507 -0.3884  0.0824
   66SAPC   C13 5409   2.452   5.237   6.454  0.4729  0.0924 -0.8368
   66SAPC  H13A 5410   2.410   5.277   6.362 -0.1898 -0.7858 -0.9366
   66SAPC  H13B 5411   2.382   5.202   6.528  0.8940  0.5301 -0.2317
   66SAPC  H13C 5412   2.517   5.306   6.505  1.9007 -1.8687  0.1240
   66SAPC   C14 5413   2.583   5.054   6.540 -0.1759  0.2069 -0.4241
   66SAPC  H14A 5414   2.622   5.124   6.611 -1.4903  0.6083 -0.0813
   66SAPC  H14B 5415   2.499   5.003   6.584  1.9104 -0.7344  2.7643
   66SAPC  H14C 5416   2.657   4.978   6.518  1.9202  1.8759  0.5107
   66SAPC   C15 5417   2.665   5.163   6.333 -0.4722 -0.2185 -0.3075
   66SAPC  H15A 5418   2.717   5.248   6.376 -0.5717 -0.3811  0.1476
   66SAPC  H15B 5419   2.733   5.079   6.321 -0.7084 -0.2242 -1.6529
   66SAPC  H15C 5420   2.636   5.188   6.233  0.5470  0.7241 -0.3826
   66SAPC   C11 5421   2.447   5.062   6.175 -0.3018 -0.0351  0.4386
   66SAPC  H11A 5422   2.383   4.993   6.116  1.0555 -0.1053 -0.9989
   66SAPC  H11B 5423   2.544   5.037   6.128 -1.0004  0.9346 -1.6533
   66SAPC     P 5424   2.259   5.238   6.130 -0.3932  0.0186 -0.0292
   66SAPC   O13 5425   2.244   5.376   6.084 -0.4840 -0.3646 -0.2356
   66SAPC   O14 5426   2.202   5.140   6.038 -0.0805 -0.2462  0.2436
   66SAPC   O12 5427   2.411   5.203   6.144  0.3547 -0.2743 -0.2564
   66SAPC   O11 5428   2.204   5.213   6.278 -0.4165 -0.0417  0.4626
   66SAPC    C1 5429   2.080   5.247   6.336  0.5585 -0.3462  0.3144
   66SAPC    HA 5430   2.045   5.344   6.296  1.1968 -0.8249 -1.5018
   66SAPC    HB 5431   1.994   5.187   6.300 -0.1001  1.3072 -1.0028
   66SAPC    C2 5432   2.087   5.253   6.489 -0.3385 -0.0393 -0.1381
   66SAPC    HS 5433   1.987   5.277   6.530 -0.5426  0.3121 -0.8182
   66SAPC   O21 5434   2.187   5.355   6.531  0.1727  0.0663  0.2752
   66SAPC   C21 5435   2.145   5.478   6.548 -0.2463  0.2807 -0.0269
   66SAPC   O22 5436   2.034   5.526   6.527 -1.0641  0.0535  0.1934
   66SAPC   C22 5437   2.262   5.556   6.602 -0.5080 -0.3438 -0.4812
   66SAPC   H2R 5438   2.270   5.551   6.713 -1.1749 -0.2515 -0.4253
   66SAPC   H2S 5439   2.353   5.524   6.549 -0.1839 -0.0748 -0.0929
   66SAPC    C3 5440   2.135   5.119   6.551  0.1101  0.2594 -0.7858
   66SAPC    HX 5441   2.233   5.086   6.511 -0.5371 -2.1432 -0.5460
   66SAPC    HY 5442   2.061   5.041   6.524  1.5330 -1.9749  1.3142
   66SAPC   O31 5443   2.119   5.129   6.694 -0.2595 -0.3765  0.1116
   66SAPC   C31 5444   2.205   5.198   6.770  0.1198  0.4153 -0.1658
   66SAPC   O32 5445   2.306   5.252   6.737 -0.0178  0.3277  0.4203
   66SAPC   C32 5446   2.154   5.191   6.913  0.2793 -0.0405 -0.3397
   66SAPC   H2X 5447   2.144   5.085   6.946 -1.3969 -0.2920 -1.5694
   66SAPC   H2Y 5448   2.055   5.239   6.910  0.5744  0.5074 -2.2255
   66SAPC   C23 5449   2.258   5.714   6.577 -0.2735  0.2405  0.1112
   66SAPC   H3R 5450   2.154   5.748   6.601 -0.9571 -0.9499 -1.0232
   66SAPC   H3S 5451   2.276   5.721   6.468 -0.7220 -2.4183 -0.1913
   66SAPC   C24 5452   2.358   5.775   6.677 -0.2771 -0.0246  0.4432
   66SAPC   H4R 5453   2.326   5.751   6.781  1.5401  3.2219  1.9233
   66SAPC   H4S 5454   2.354   5.883   6.654  1.8172 -0.2130 -1.0967
   66SAPC   C25 5455   2.501   5.725   6.648  0.2389  0.6685 -0.0755
   66SAPC   H5R 5456   2.527   5.716   6.542  1.7453 -0.7823  0.3708
   66SAPC   C26 5457   2.594   5.687   6.736 -0.2915 -0.0497 -0.7811
   66SAPC   H6R 5458   2.697   5.660   6.710  0.1776 -0.4951  1.3242
   66SAPC   C27 5459   2.574   5.715   6.889 -0.4473  0.1991  0.6318
   66SAPC   H7R 5460   2.519   5.811   6.898 -2.3999 -0.6759 -1.2499
   66SAPC   H7S 5461   2.678   5.722   6.928 -0.1525  1.2499 -0.3002
   66SAPC   C28 5462   2.493   5.611   6.955 -0.5807  0.2082 -0.6199
   66SAPC   H8R 5463   2.482   5.512   6.908 -0.5484 -0.1498  0.1167
   66SAPC   C29 5464   2.432   5.636   7.076  0.6765  0.5849  0.2082
   66SAPC   H9R 5465   2.371   5.551   7.109  4.1253 -2.2528 -0.1599
   66SAPC  C210 5466   2.435   5.757   7.169  0.4861  0.6759  0.6689
   66SAPC  H10R 5467   2.360   5.756   7.251  1.2947 -1.0682  1.4326
   66SAPC  H10S 5468   2.430   5.857   7.121  1.8203  0.2473 -0.4157
   66SAPC  C211 5469   2.574   5.745   7.234  0.3511  0.6524  0.0465
   66SAPC  H11R 5470   2.654   5.720   7.162 -0.6698 -2.8639 -0.0744
   66SAPC  C212 5471   2.609   5.764   7.360 -0.1831 -1.2790 -0.1042
   66SAPC  H12R 5472   2.715   5.753   7.389 -0.8351 -1.3689  2.4773
   66SAPC  C213 5473   2.528   5.795   7.484  0.2788 -0.1026  0.2622
   66SAPC  H13R 5474   2.450   5.863   7.442 -1.6148 -2.1794  0.1927
   66SAPC  H13S 5475   2.588   5.858   7.552  0.7365 -0.1837 -0.0604
   66SAPC  C214 5476   2.452   5.681   7.553 -0.6086 -0.4126 -0.3892
   66SAPC  H14R 5477   2.431   5.592   7.492  1.3700 -2.3313  1.5625
   66SAPC  C215 5478   2.397   5.677   7.675  0.2949 -0.1583 -0.1492
   66SAPC  H15R 5479   2.334   5.588   7.691 -0.9143  0.6058 -0.6061
   66SAPC  C216 5480   2.412   5.789   7.773 -0.5578 -0.5207 -0.0718
   66SAPC  H16R 5481   2.316   5.827   7.815  0.5813  1.0545  1.2397
   66SAPC  H16S 5482   2.471   5.878   7.742  1.1556 -0.7699  2.1462
   66SAPC  C217 5483   2.501   5.742   7.893  0.1325 -0.6435  0.6712
   66SAPC  H17R 5484   2.552   5.831   7.936  1.6985 -2.3797  2.6489
   66SAPC  H17S 5485   2.592   5.691   7.855  2.3402  2.5676  1.2490
   66SAPC  C218 5486   2.438   5.652   8.002  0.3697  0.0510  0.1312
   66SAPC  H18R 5487   2.391   5.563   7.957 -0.0056 -0.5981  1.7208
   66SAPC  H18S 5488   2.364   5.712   8.060  0.7182 -0.3049  0.9741
   66SAPC  C219 5489   2.549   5.623   8.100  0.0887  0.4297 -0.2681
   66SAPC  H19R 5490   2.642   5.616   8.041  0.2737 -1.4033  0.1700
   66SAPC  H19S 5491   2.522   5.522   8.137 -1.8987  1.0281  0.0723
   66SAPC  C220 5492   2.557   5.727   8.209  0.1518 -0.2949 -0.9781
   66SAPC  H20R 5493   2.557   5.828   8.163 -0.1620  0.0985 -0.1268
   66SAPC  H20S 5494   2.644   5.701   8.273  0.1789 -1.5638 -1.4997
   66SAPC  H20T 5495   2.462   5.723   8.266 -0.8428  1.0786 -2.4288
   66SAPC   C33 5496   2.248   5.270   7.016  0.7171 -0.1458  0.0030
   66SAPC   H3X 5497   2.248   5.376   6.984  0.5734  0.4594  1.8712
   66SAPC   H3Y 5498   2.350   5.228   7.021  0.1284 -1.7593 -0.8640
   66SAPC   C34 5499   2.188   5.262   7.159 -0.0341  0.1585  0.1164
   66SAPC   H4X 5500   2.139   5.162   7.154  0.2858  0.0702 -2.9648
   66SAPC   H4Y 5501   2.107   5.336   7.176 -1.9078 -1.6895 -0.3027
   66SAPC   C35 5502   2.273   5.279   7.281 -0.0923 -0.5680 -0.0113
   66SAPC   H5X 5503   2.317   5.381   7.281 -0.7176 -0.2878  0.5339
   66SAPC   H5Y 5504   2.347   5.200   7.304 -0.6384 -0.7267  1.2566
   66SAPC   C36 5505   2.180   5.282   7.410 -0.4581 -0.2661 -0.1947
   66SAPC   H6X 5506   2.147   5.178   7.427 -1.2917  0.2421  1.5678
   66SAPC   H6Y 5507   2.091   5.344   7.387 -0.2866  0.4778  1.0534
   66SAPC   C37 5508   2.238   5.317   7.549  0.3248  0.4356  0.1632
   66SAPC   H7X 5509   2.263   5.425   7.545 -1.0994  0.7758  0.0188
   66SAPC   H7Y 5510   2.329   5.253   7.556  1.4131  1.8784 -0.1680
   66SAPC   C38 5511   2.147   5.290   7.664  0.0474 -0.3818 -0.6899
   66SAPC   H8X 5512   2.104   5.188   7.662 -2.1672  0.4691  0.2887
   66SAPC   H8Y 5513   2.059   5.356   7.648 -0.5765 -0.3806  2.3118
   66SAPC   C39 5514   2.205   5.318   7.804  0.3328  0.1815 -0.3801
   66SAPC   H9X 5515   2.204   5.429   7.802 -0.4746  0.2042 -3.0643
   66SAPC   H9Y 5516   2.306   5.274   7.821  0.6092  1.3390  1.2246
   66SAPC  C310 5517   2.117   5.267   7.919  0.3442 -0.7141  0.8742
   66SAPC  H10X 5518   2.135   5.159   7.939 -1.1156 -0.6983  2.4473
   66SAPC  H10Y 5519   2.014   5.304   7.899  1.2348  1.3909 -0.1064
   66SAPC  C311 5520   2.160   5.346   8.037  0.3101 -0.0029  0.0714
   66SAPC  H11X 5521   2.143   5.453   8.014 -2.4797 -0.2230  0.7301
   66SAPC  H11Y 5522   2.270   5.337   8.046  0.1971 -1.4828  0.1694
   66SAPC  C312 5523   2.085   5.308   8.166 -0.4831 -1.0385  0.1581
   66SAPC  H12X 5524   2.083   5.197   8.174 -1.0116 -1.0635 -0.2317
   66SAPC  H12Y 5525   1.978   5.334   8.155 -0.4492 -0.2627  1.4937
   66SAPC  C313 5526   2.133   5.367   8.300  0.1100  0.3453  0.4876
   66SAPC  H13X 5527   2.095   5.304   8.383  0.8956  0.3482  0.8538
   66SAPC  H13Y 5528   2.090   5.469   8.310  1.2543  0.7149  2.0239
   66SAPC  C314 5529   2.288   5.375   8.304 -0.3224  0.1425  1.1710
   66SAPC  H14X 5530   2.310   5.449   8.384 -0.9631  1.5479  0.0929
   66SAPC  H14Y 5531   2.325   5.433   8.216 -0.5443  0.9588  1.6065
   66SAPC  C315 5532   2.362   5.238   8.319  0.5203 -0.2015  0.3953
   66SAPC  H15X 5533   2.467   5.261   8.291  0.6451 -1.8799 -0.6334
   66SAPC  H15Y 5534   2.316   5.169   8.245  0.6390  1.6462 -1.5003
   66SAPC  C316 5535   2.374   5.185   8.456 -0.6471  0.4681 -0.3948
   66SAPC  H16X 5536   2.280   5.185   8.515  0.3338  0.8357  1.2245
   66SAPC  H16Y 5537   2.437   5.254   8.516  2.0312 -1.1342 -1.1772
   66SAPC  C317 5538   2.438   5.044   8.473  0.6943 -0.4864  0.6642
   66SAPC  H17X 5539   2.541   5.044   8.430 -0.3120  3.6211 -2.3301
   66SAPC  H17Y 5540   2.374   4.974   8.417 -1.9719  0.7864  1.9349
   66SAPC  C318 5541   2.432   4.998   8.621  0.3328 -0.4948  0.4185
   66SAPC  H18X 5542   2.444   5.078   8.696 -3.3905  1.1663 -0.5099
   66SAPC  H18Y 5543   2.506   4.915   8.631 -0.7495 -1.2163  3.2410
   66SAPC  H18Z 5544   2.332   4.955   8.642  0.2708 -0.0863  0.9499
   67SAPC     N 5545   3.986   1.427   6.389 -0.0830 -0.3145  0.3638
   67SAPC   C12 5546   3.877   1.412   6.492  0.3457 -0.0576 -0.6566
   67SAPC  H12A 5547   3.782   1.418   6.441  0.7975  0.6164 -1.4280
   67SAPC  H12B 5548   3.884   1.498   6.558 -1.3953  0.9870 -1.7272
   67SAPC   C13 5549   3.972   1.544   6.309  0.2089 -0.3752  0.0451
   67SAPC  H13A 5550   4.063   1.561   6.254  0.5081 -0.3334  0.5542
   67SAPC  H13B 5551   3.892   1.548   6.235 -0.0291  1.3418  0.3552
   67SAPC  H13C 5552   3.969   1.624   6.381 -0.1121 -0.2459 -0.1083
   67SAPC   C14 5553   4.126   1.434   6.444  0.0602  0.2912  0.0667
   67SAPC  H14A 5554   4.202   1.453   6.371  0.1332  0.5130  0.1994
   67SAPC  H14B 5555   4.138   1.492   6.535 -1.3027  0.4876  0.1448
   67SAPC  H14C 5556   4.139   1.333   6.481 -0.8714 -0.7614 -2.2647
   67SAPC   C15 5557   3.984   1.310   6.296  0.9626  0.0231 -0.2081
   67SAPC  H15A 5558   4.066   1.316   6.225  1.5341  1.0422  0.5126
   67SAPC  H15B 5559   4.002   1.224   6.359 -1.8425 -0.3092  0.2343
   67SAPC  H15C 5560   3.889   1.283   6.253  0.0645 -1.1355  2.2950
   67SAPC   C11 5561   3.866   1.285   6.579 -0.5947  0.3122  0.4520
   67SAPC  H11A 5562   3.786   1.302   6.654 -0.3296  1.3622  0.5153
   67SAPC  H11B 5563   3.965   1.287   6.629  1.3756  2.0405 -3.0957
   67SAPC     P 5564   3.716   1.101   6.464 -0.2382 -0.2528  0.1835
   67SAPC   O13 5565   3.652   1.202   6.369  0.1704  0.7186 -1.0513
   67SAPC   O14 5566   3.743   0.968   6.413 -0.0522  0.1640 -0.6090
   67SAPC   O12 5567   3.857   1.160   6.516  0.8813  0.6044 -0.6822
   67SAPC   O11 5568   3.633   1.095   6.602  0.0789  0.2044  1.1143
   67SAPC    C1 5569   3.662   1.003   6.711 -0.9223 -0.5382  0.2576
   67SAPC    HA 5570   3.772   0.986   6.713 -0.3946  1.3430 -3.6204
   67SAPC    HB 5571   3.626   1.049   6.806 -1.6953  3.1188 -1.6494
   67SAPC    C2 5572   3.605   0.857   6.694 -0.1210 -0.7099  0.1263
   67SAPC    HS 5573   3.616   0.826   6.588 -1.6771 -2.9993  0.5747
   67SAPC   O21 5574   3.466   0.865   6.731 -0.0168  0.3594 -0.2794
   67SAPC   C21 5575   3.397   0.762   6.690 -0.2379  0.7809 -0.3430
   67SAPC   O22 5576   3.439   0.665   6.623 -0.2954  0.3262 -0.1567
   67SAPC   C22 5577   3.248   0.783   6.734 -0.0849  0.6220 -0.2577
   67SAPC   H2R 5578   3.244   0.885   6.777  0.6185  0.7858 -0.5720
   67SAPC   H2S 5579   3.192   0.779   6.638 -0.5054  1.8853 -0.0833
   67SAPC    C3 5580   3.684   0.752   6.767 -0.8917 -0.4551 -0.5943
   67SAPC    HX 5581   3.783   0.750   6.718  0.5144  0.7647  2.0318
   67SAPC    HY 5582   3.646   0.648   6.758 -1.6886 -0.0096 -4.1171
   67SAPC   O31 5583   3.712   0.787   6.906 -0.4580  0.1432 -0.1380
   67SAPC   C31 5584   3.621   0.763   6.993  0.8657 -0.0279 -0.7629
   67SAPC   O32 5585   3.517   0.697   6.971 -0.3532 -0.0123  0.1575
   67SAPC   C32 5586   3.642   0.841   7.122 -0.5156 -0.4869  0.4691
   67SAPC   H2X 5587   3.636   0.948   7.092  0.8604 -0.4161  0.3796
   67SAPC   H2Y 5588   3.740   0.815   7.167  0.1253 -1.0251 -1.1544
   67SAPC   C23 5589   3.202   0.684   6.849  0.1047  0.1178  0.4610
   67SAPC   H3R 5590   3.255   0.721   6.940  0.7189  0.3001  0.0352
   67SAPC   H3S 5591   3.244   0.582   6.834 -1.1569 -0.6014  1.5499
   67SAPC   C24 5592   3.052   0.680   6.865  0.3463  0.1021 -0.3729
   67SAPC   H4R 5593   3.011   0.633   6.773 -2.6957 -1.0162  1.4023
   67SAPC   H4S 5594   3.018   0.784   6.882 -3.6649 -0.8532 -1.4193
   67SAPC   C25 5595   3.019   0.579   6.974  0.1714  1.1403  0.0017
   67SAPC   H5R 5596   3.041   0.476   6.940 -1.2306 -0.0287  2.3567
   67SAPC   C26 5597   2.978   0.594   7.101 -0.1367 -0.6791 -0.3598
   67SAPC   H6R 5598   2.956   0.515   7.175 -0.1257  1.6326  2.2806
   67SAPC   C27 5599   2.939   0.725   7.161 -0.3324  0.3563 -0.2386
   67SAPC   H7R 5600   2.841   0.720   7.213 -0.6052  0.8620 -0.7038
   67SAPC   H7S 5601   2.941   0.811   7.092  0.3326 -0.4826 -1.3015
   67SAPC   C28 5602   3.057   0.754   7.262 -0.3585 -0.1440  0.1196
   67SAPC   H8R 5603   3.138   0.809   7.213 -2.3352  1.3211 -1.7398
   67SAPC   C29 5604   3.057   0.741   7.397 -0.2396 -0.0835  0.2911
   67SAPC   H9R 5605   3.154   0.766   7.443  0.4775  0.2706 -1.3472
   67SAPC  C210 5606   2.944   0.684   7.484 -0.3291  0.7274  0.1195
   67SAPC  H10R 5607   2.961   0.574   7.481 -1.4213  0.5505  0.2735
   67SAPC  H10S 5608   2.848   0.712   7.436  2.0216  4.4868 -2.9782
   67SAPC  C211 5609   2.957   0.738   7.623 -0.7487 -0.0941 -0.4831
   67SAPC  H11R 5610   2.934   0.845   7.619 -3.7083 -0.6318 -0.6153
   67SAPC  C212 5611   3.003   0.672   7.734  0.4875  0.1491  0.4316
   67SAPC  H12R 5612   3.013   0.722   7.831  0.1159  1.9270 -0.3983
   67SAPC  C213 5613   3.031   0.526   7.747 -0.0593  0.1107  0.6437
   67SAPC  H13R 5614   3.001   0.485   7.649 -0.0103 -0.3553  0.8231
   67SAPC  H13S 5615   2.969   0.473   7.823  0.7885 -0.5941  0.8640
   67SAPC  C214 5616   3.175   0.491   7.769 -0.4080 -0.2710 -0.4018
   67SAPC  H14R 5617   3.240   0.487   7.681 -0.4341 -0.9581 -0.3948
   67SAPC  C215 5618   3.235   0.500   7.888 -0.4138  0.0850 -1.0845
   67SAPC  H15R 5619   3.342   0.486   7.906 -0.8450 -0.7231  1.1532
   67SAPC  C216 5620   3.170   0.525   8.022  0.0472 -0.1268  0.2427
   67SAPC  H16R 5621   3.135   0.434   8.075  2.4527 -0.5679  1.1637
   67SAPC  H16S 5622   3.077   0.587   8.019  0.1060  0.2611  3.4183
   67SAPC  C217 5623   3.264   0.599   8.119  0.3336  0.1720  0.3219
   67SAPC  H17R 5624   3.288   0.697   8.072  0.0012  0.9006  1.6285
   67SAPC  H17S 5625   3.349   0.531   8.140 -0.9418 -0.9563  2.0830
   67SAPC  C218 5626   3.210   0.648   8.256 -0.6058  0.3566 -0.1501
   67SAPC  H18R 5627   3.207   0.556   8.319 -0.3869 -1.1524 -2.2336
   67SAPC  H18S 5628   3.107   0.685   8.236 -1.0039  0.1186  1.3651
   67SAPC  C219 5629   3.300   0.763   8.327  0.0233 -1.5104 -0.4722
   67SAPC  H19R 5630   3.403   0.731   8.352  1.6116  2.4414 -1.2700
   67SAPC  H19S 5631   3.246   0.785   8.422  2.2795  2.2055  0.1320
   67SAPC  C220 5632   3.298   0.901   8.256 -0.1844 -0.0227  0.1798
   67SAPC  H20R 5633   3.312   0.981   8.331 -2.6369  1.7980 -1.1739
   67SAPC  H20S 5634   3.200   0.911   8.206  0.0194 -1.0495 -0.4631
   67SAPC  H20T 5635   3.378   0.911   8.179  0.7559  0.7235  1.2207
   67SAPC   C33 5636   3.519   0.817   7.217  0.4850  0.1629 -0.1270
   67SAPC   H3X 5637   3.500   0.708   7.230  0.0941  0.3711  1.2556
   67SAPC   H3Y 5638   3.425   0.867   7.189  0.5292  0.0969 -0.3919
   67SAPC   C34 5639   3.562   0.874   7.350  0.4122  0.3758  0.4064
   67SAPC   H4X 5640   3.594   0.978   7.328  0.2029  0.3784  0.1099
   67SAPC   H4Y 5641   3.657   0.830   7.387  1.6926  1.6991 -1.1850
   67SAPC   C35 5642   3.450   0.860   7.457  1.0305 -0.5484 -0.1349
   67SAPC   H5X 5643   3.421   0.755   7.478  0.9770 -0.7251 -1.0393
   67SAPC   H5Y 5644   3.352   0.909   7.435  1.8291  1.5129  0.6756
   67SAPC   C36 5645   3.485   0.944   7.582 -0.3185  0.5119  0.3784
   67SAPC   H6X 5646   3.501   1.050   7.552 -1.0477  1.1036  1.9671
   67SAPC   H6Y 5647   3.583   0.908   7.619  0.9151  2.1903 -1.0480
   67SAPC   C37 5648   3.381   0.932   7.695  0.5270 -0.0573  0.5983
   67SAPC   H7X 5649   3.368   0.823   7.713  1.6912 -0.1508  0.9615
   67SAPC   H7Y 5650   3.285   0.977   7.662  0.7528 -0.0302 -0.0325
   67SAPC   C38 5651   3.428   0.976   7.831 -0.2711  0.7519 -0.5042
   67SAPC   H8X 5652   3.461   0.890   7.892 -3.2743  0.4818  0.8689
   67SAPC   H8Y 5653   3.348   1.008   7.900  0.7701  2.0408  0.1601
   67SAPC   C39 5654   3.532   1.091   7.821 -0.0106 -0.1874  0.2068
   67SAPC   H9X 5655   3.485   1.170   7.759  0.1625 -0.7982 -0.7332
   67SAPC   H9Y 5656   3.628   1.060   7.774  0.7252 -0.0534  1.5735
   67SAPC  C310 5657   3.568   1.149   7.957 -0.1176 -0.9064 -0.1516
   67SAPC  H10X 5658   3.480   1.185   8.014  0.9370 -0.6625  1.3794
   67SAPC  H10Y 5659   3.629   1.241   7.948  1.3499 -1.6346  1.8637
   67SAPC  C311 5660   3.654   1.058   8.035  0.3089  0.1645  0.2709
   67SAPC  H11X 5661   3.759   1.082   8.007  0.6456 -0.4894  0.9279
   67SAPC  H11Y 5662   3.657   0.950   8.008 -1.7044 -1.0471  4.1556
   67SAPC  C312 5663   3.640   1.063   8.184 -0.2615  0.5613  0.2167
   67SAPC  H12X 5664   3.557   1.000   8.222 -0.5682  1.8465  1.7981
   67SAPC  H12Y 5665   3.622   1.168   8.217 -2.2939  0.1064  0.6796
   67SAPC  C313 5666   3.776   1.022   8.256 -0.2979 -0.2532 -0.3163
   67SAPC  H13X 5667   3.856   1.095   8.231  0.5535 -0.7168  0.9676
   67SAPC  H13Y 5668   3.807   0.927   8.209  0.7999 -0.9903  1.8016
   67SAPC  C314 5669   3.775   0.996   8.408 -0.0988  0.1791 -0.2008
   67SAPC  H14X 5670   3.732   1.088   8.455  0.1573 -0.6878  1.8560
   67SAPC  H14Y 5671   3.874   0.975   8.456 -0.8920 -1.0371  0.9766
   67SAPC  C315 5672   3.685   0.887   8.460  0.0816  0.3577 -0.3961
   67SAPC  H15X 5673   3.710   0.786   8.421  0.9476  0.2287  0.4903
   67SAPC  H15Y 5674   3.582   0.892   8.416 -0.6507 -0.8182  1.0945
   67SAPC  C316 5675   3.673   0.887   8.611  0.1807 -0.4382 -0.7206
   67SAPC  H16X 5676   3.600   0.962   8.647  0.6891  1.8498 -3.9815
   67SAPC  H16Y 5677   3.768   0.927   8.652 -0.6685  0.9666 -0.0942
   67SAPC  C317 5678   3.637   0.756   8.678  1.0984 -0.1367 -0.8572
   67SAPC  H17X 5679   3.719   0.685   8.657  1.5074 -0.3201  1.2063
   67SAPC  H17Y 5680   3.541   0.720   8.635 -0.2141  0.9061  1.0379
   67SAPC  C318 5681   3.628   0.754   8.838 -0.1819  0.3631 -0.1811
   67SAPC  H18X 5682   3.670   0.843   8.890 -1.9297  0.7893  0.6034
   67SAPC  H18Y 5683   3.693   0.675   8.881  2.4192  3.0273  1.1085
   67SAPC  H18Z 5684   3.527   0.733   8.879  1.0316  0.7812  3.4037
   68SAPC     N 5685   2.695   0.402   5.732 -0.6066  0.2036 -0.4205
   68SAPC   C12 5686   2.695   0.422   5.880  0.5180 -0.4484  1.0010
   68SAPC  H12A 5687   2.614   0.369   5.928 -1.7425  0.9962 -0.9774
   68SAPC  H12B 5688   2.673   0.527   5.890  2.0448 -0.0114  0.0125
   68SAPC   C13 5689   2.564   0.404   5.667 -0.0278 -0.0840  0.0047
   68SAPC  H13A 5690   2.562   0.364   5.566 -2.5666 -0.3639  0.1044
   68SAPC  H13B 5691   2.495   0.339   5.720 -0.0223 -1.1889 -1.2887
   68SAPC  H13C 5692   2.517   0.501   5.658 -2.7920 -1.1277  1.8964
   68SAPC   C14 5693   2.786   0.499   5.663 -0.0316  0.2868  0.1384
   68SAPC  H14A 5694   2.886   0.464   5.684  0.3398  0.8954 -0.5811
   68SAPC  H14B 5695   2.784   0.505   5.555  1.6764  0.5625  0.0954
   68SAPC  H14C 5696   2.773   0.593   5.715 -0.2454  1.2440 -1.5876
   68SAPC   C15 5697   2.740   0.266   5.694 -0.6669  0.5783  0.2087
   68SAPC  H15A 5698   2.665   0.190   5.703 -0.2684  0.1924  0.2955
   68SAPC  H15B 5699   2.771   0.270   5.591 -1.1407  1.2273  0.0825
   68SAPC  H15C 5700   2.823   0.237   5.757  0.5107  2.0372 -0.5953
   68SAPC   C11 5701   2.822   0.386   5.960  0.2955  0.1490  0.2127
   68SAPC  H11A 5702   2.838   0.277   5.951 -2.5903 -0.1818 -3.1024
   68SAPC  H11B 5703   2.801   0.398   6.068 -1.4706 -1.0512  0.0394
   68SAPC     P 5704   3.073   0.426   5.996 -0.1311 -0.5275  0.2036
   68SAPC   O13 5705   3.104   0.280   5.983  0.0002  0.3418  0.1659
   68SAPC   O14 5706   3.176   0.533   5.957 -0.1821  0.4203  0.2777
   68SAPC   O12 5707   2.943   0.452   5.909 -0.2827 -0.4974 -0.3568
   68SAPC   O11 5708   3.020   0.457   6.137 -0.4783 -0.8644  0.0556
   68SAPC    C1 5709   3.030   0.598   6.182  0.0362  0.3736  0.2033
   68SAPC    HA 5710   3.135   0.615   6.215  0.2701 -0.3080 -0.1599
   68SAPC    HB 5711   3.002   0.669   6.102 -1.0997  1.3096  1.3854
   68SAPC    C2 5712   2.939   0.634   6.297  0.0729  0.8258  0.7630
   68SAPC    HS 5713   2.971   0.734   6.333  0.1303  0.8782  0.5699
   68SAPC   O21 5714   2.962   0.548   6.408  0.0077  0.3984 -0.5405
   68SAPC   C21 5715   3.079   0.544   6.465 -0.9942  0.6182 -0.1443
   68SAPC   O22 5716   3.175   0.623   6.447 -0.2693  0.6750  0.2609
   68SAPC   C22 5717   3.088   0.428   6.558  0.4458 -0.1346  0.3502
   68SAPC   H2R 5718   3.067   0.461   6.661 -0.4296  0.5610 -0.0418
   68SAPC   H2S 5719   3.006   0.354   6.543 -0.0880  0.6604 -0.8348
   68SAPC    C3 5720   2.795   0.632   6.255 -1.2695 -0.1313  0.0785
   68SAPC    HX 5721   2.768   0.527   6.233  0.5877  0.1606 -4.9170
   68SAPC    HY 5722   2.780   0.691   6.162 -0.2713 -0.4301 -0.2849
   68SAPC   O31 5723   2.716   0.700   6.362 -0.2307 -0.0617 -0.5700
   68SAPC   C31 5724   2.592   0.662   6.387  0.3345 -0.5388  0.0145
   68SAPC   O32 5725   2.533   0.571   6.329 -0.0513  0.4728 -1.0965
   68SAPC   C32 5726   2.530   0.766   6.481 -0.3409 -0.5706  0.1722
   68SAPC   H2X 5727   2.423   0.780   6.457  0.1203  0.6183 -1.3194
   68SAPC   H2Y 5728   2.588   0.858   6.461  0.0438 -1.5183 -3.9975
   68SAPC   C23 5729   3.223   0.344   6.557  0.2853  0.3111 -0.0079
   68SAPC   H3R 5730   3.303   0.398   6.612  2.0756 -1.0869 -1.1254
   68SAPC   H3S 5731   3.251   0.332   6.450  3.3428  0.4387  0.6741
   68SAPC   C24 5732   3.220   0.207   6.627  0.5829  0.7168 -0.0935
   68SAPC   H4R 5733   3.317   0.152   6.617 -0.6852 -1.4937 -0.8628
   68SAPC   H4S 5734   3.160   0.132   6.572 -0.5708  1.0174  0.7174
   68SAPC   C25 5735   3.168   0.217   6.769 -0.6846 -0.1057  0.1489
   68SAPC   H5R 5736   3.060   0.233   6.782 -0.2481  1.9777  1.6944
   68SAPC   C26 5737   3.246   0.218   6.880 -0.1670 -0.2008 -0.1768
   68SAPC   H6R 5738   3.196   0.224   6.977 -1.8086 -0.0499 -1.0041
   68SAPC   C27 5739   3.400   0.207   6.892 -0.0013 -0.5860  0.2000
   68SAPC   H7R 5740   3.455   0.170   6.803  0.9112 -0.1365  0.5700
   68SAPC   H7S 5741   3.412   0.124   6.964 -1.6302 -2.5891 -1.6882
   68SAPC   C28 5742   3.443   0.349   6.927 -0.0110  0.1781 -0.1256
   68SAPC   H8R 5743   3.468   0.409   6.838  1.0886 -2.0812 -1.4375
   68SAPC   C29 5744   3.468   0.397   7.053  0.0480  0.2577  0.0170
   68SAPC   H9R 5745   3.526   0.490   7.055 -0.7777  0.7853 -0.1556
   68SAPC  C210 5746   3.439   0.332   7.183 -0.3119 -0.6364 -1.0681
   68SAPC  H10R 5747   3.539   0.300   7.218 -0.1788 -0.1349 -0.9760
   68SAPC  H10S 5748   3.384   0.236   7.184 -0.7237 -0.4178  0.8297
   68SAPC  C211 5749   3.384   0.422   7.288  0.2134 -1.0878 -0.1175
   68SAPC  H11R 5750   3.328   0.512   7.258  1.2276  0.1076  1.3642
   68SAPC  C212 5751   3.401   0.402   7.418 -0.0204 -0.3928 -0.9427
   68SAPC  H12R 5752   3.365   0.480   7.487 -0.7076 -1.5139 -0.0061
   68SAPC  C213 5753   3.470   0.286   7.495 -0.0783 -0.3799 -0.1166
   68SAPC  H13R 5754   3.579   0.293   7.473 -0.3854  0.3742 -1.4999
   68SAPC  H13S 5755   3.440   0.191   7.446  1.1606 -1.0309  0.3327
   68SAPC  C214 5756   3.434   0.252   7.637  0.6184  0.1359 -0.2214
   68SAPC  H14R 5757   3.361   0.171   7.651 -0.2465  0.8702 -0.3551
   68SAPC  C215 5758   3.482   0.320   7.740 -0.9359  0.3277 -0.1629
   68SAPC  H15R 5759   3.455   0.283   7.840 -0.1489 -4.0454 -1.3440
   68SAPC  C216 5760   3.578   0.439   7.732 -0.1656 -0.1758 -0.1121
   68SAPC  H16R 5761   3.519   0.528   7.699 -0.8334 -0.7904 -0.6125
   68SAPC  H16S 5762   3.665   0.430   7.663 -0.7055  0.8504 -0.9578
   68SAPC  C217 5763   3.623   0.488   7.870 -0.3071 -0.0580  0.1052
   68SAPC  H17R 5764   3.703   0.421   7.908  2.7458  3.3271  0.2341
   68SAPC  H17S 5765   3.546   0.488   7.949  0.3716 -0.8370  0.7747
   68SAPC  C218 5766   3.697   0.621   7.883 -0.2950 -0.6553  0.2848
   68SAPC  H18R 5767   3.623   0.703   7.877 -1.3372 -1.6952 -1.8335
   68SAPC  H18S 5768   3.761   0.620   7.792  1.4936  0.6598  1.4372
   68SAPC  C219 5769   3.777   0.627   8.018  0.7140  0.5829 -0.9952
   68SAPC  H19R 5770   3.835   0.721   8.032 -0.9768  1.2254  3.3261
   68SAPC  H19S 5771   3.849   0.542   8.022 -1.2185 -1.2277 -2.4914
   68SAPC  C220 5772   3.696   0.618   8.152 -1.1398  0.0759 -0.1336
   68SAPC  H20R 5773   3.619   0.698   8.151 -1.0044  0.2038 -1.1736
   68SAPC  H20S 5774   3.755   0.619   8.246 -0.0164  0.2857 -0.8305
   68SAPC  H20T 5775   3.639   0.523   8.154 -1.9545  0.5411 -0.5480
   68SAPC   C33 5776   2.550   0.735   6.631  0.5738 -0.0402  0.6899
   68SAPC   H3X 5777   2.657   0.717   6.654 -0.0716 -1.4807  2.9360
   68SAPC   H3Y 5778   2.492   0.643   6.655 -1.9738  1.2027 -0.3226
   68SAPC   C34 5779   2.513   0.849   6.731 -0.1609 -0.6306 -0.6984
   68SAPC   H4X 5780   2.409   0.883   6.716  0.0949 -0.7155 -2.9248
   68SAPC   H4Y 5781   2.572   0.941   6.707 -0.5709 -0.1791  0.0025
   68SAPC   C35 5782   2.542   0.810   6.880 -0.6797  0.4793  0.3355
   68SAPC   H5X 5783   2.650   0.791   6.899 -0.7494  1.0634  1.3571
   68SAPC   H5Y 5784   2.493   0.710   6.885  3.6220 -1.9233  0.0148
   68SAPC   C36 5785   2.500   0.913   6.981 -0.4028  0.0136 -0.5920
   68SAPC   H6X 5786   2.390   0.928   6.972 -0.4092  1.5358  1.3050
   68SAPC   H6Y 5787   2.541   1.016   6.966 -1.9934  0.4864 -1.9386
   68SAPC   C37 5788   2.532   0.872   7.134  0.1156  0.2433  0.6935
   68SAPC   H7X 5789   2.639   0.845   7.146 -0.3019 -1.5303  0.6084
   68SAPC   H7Y 5790   2.471   0.785   7.166  0.3281 -0.4924 -0.8070
   68SAPC   C38 5791   2.515   0.994   7.229  0.4506 -0.0650  0.3055
   68SAPC   H8X 5792   2.408   1.016   7.210  1.2305  3.7904 -0.4527
   68SAPC   H8Y 5793   2.579   1.081   7.203 -0.0577 -0.1413 -1.3190
   68SAPC   C39 5794   2.535   0.945   7.374  0.3217  0.1325 -0.4862
   68SAPC   H9X 5795   2.631   0.891   7.391  0.1801  0.8280  3.4943
   68SAPC   H9Y 5796   2.456   0.871   7.400 -0.3229  1.3434  1.1831
   68SAPC  C310 5797   2.526   1.064   7.470  0.2160 -0.5437  0.2434
   68SAPC  H10X 5798   2.441   1.132   7.447 -0.1663 -0.7724  0.9510
   68SAPC  H10Y 5799   2.619   1.116   7.438  1.1430 -1.9171  0.6460
   68SAPC  C311 5800   2.526   1.041   7.618 -0.3979  0.4726 -0.4980
   68SAPC  H11X 5801   2.438   0.983   7.652 -0.0891 -0.2939 -0.9847
   68SAPC  H11Y 5802   2.522   1.135   7.677 -0.8181  0.4536 -0.4901
   68SAPC  C312 5803   2.635   0.944   7.672 -0.7015 -0.5759 -0.1297
   68SAPC  H12X 5804   2.732   0.979   7.629  1.5496 -2.3066  3.1071
   68SAPC  H12Y 5805   2.613   0.843   7.632  2.2936 -1.9395  1.3373
   68SAPC  C313 5806   2.645   0.951   7.830  0.1672 -0.3538  0.0232
   68SAPC  H13X 5807   2.544   0.937   7.875  0.1100 -1.7464 -0.4694
   68SAPC  H13Y 5808   2.673   1.054   7.861 -0.5139 -0.4033  0.8352
   68SAPC  C314 5809   2.731   0.839   7.874 -0.0759  0.0768 -0.2407
   68SAPC  H14X 5810   2.829   0.883   7.899 -0.4258  0.5641  0.2974
   68SAPC  H14Y 5811   2.755   0.755   7.806  0.0448 -0.6199  0.6383
   68SAPC  C315 5812   2.674   0.765   7.994  0.5832  0.0470 -0.5728
   68SAPC  H15X 5813   2.579   0.716   7.965  1.0723 -2.9707  2.2860
   68SAPC  H15Y 5814   2.659   0.833   8.081  1.4566 -1.7642  1.0844
   68SAPC  C316 5815   2.770   0.665   8.066  0.6791 -0.2725 -0.1617
   68SAPC  H16X 5816   2.856   0.721   8.107  0.7231 -0.7607  0.4219
   68SAPC  H16Y 5817   2.807   0.582   8.003  3.4014 -0.6018  1.7174
   68SAPC  C317 5818   2.714   0.590   8.187  0.1970 -0.3040 -0.7863
   68SAPC  H17X 5819   2.626   0.527   8.162  0.3574 -0.0288 -2.1358
   68SAPC  H17Y 5820   2.666   0.663   8.256  1.0197 -0.0403 -0.4712
   68SAPC  C318 5821   2.828   0.508   8.249  0.0894  0.4813  0.2796
   68SAPC  H18X 5822   2.859   0.433   8.174 -0.7520  2.8198 -2.5957
   68SAPC  H18Y 5823   2.784   0.459   8.339 -2.1639  1.4378 -0.2350
   68SAPC  H18Z 5824   2.906   0.580   8.281 -1.8872  2.3524  1.1818
   69SLPC     N 5825   1.769   4.978  11.111  0.0167 -0.4068  0.9707
   69SLPC   C13 5826   1.769   5.116  11.163 -0.2252 -0.1337 -0.5358
   69SLPC  H13A 5827   1.665   5.137  11.183 -0.5786 -2.1620 -0.0760
   69SLPC  H13B 5828   1.829   5.128  11.252  0.3256  0.8834 -1.0182
   69SLPC  H13C 5829   1.795   5.190  11.089  0.7882  1.3647  1.2105
   69SLPC   C14 5830   1.898   4.946  11.056 -0.5221  0.5637  0.0358
   69SLPC  H14A 5831   1.906   4.841  11.030 -1.4183  0.6747 -0.7549
   69SLPC  H14B 5832   1.909   5.002  10.964  0.0518  0.1800 -0.1337
   69SLPC  H14C 5833   1.971   4.984  11.126 -0.1479  2.1288 -1.1660
   69SLPC   C15 5834   1.676   4.954  10.992 -0.9252  0.2447  0.5654
   69SLPC  H15A 5835   1.708   4.856  10.959 -2.8613 -0.1448 -0.3294
   69SLPC  H15B 5836   1.574   4.941  11.027 -0.6159  1.4964  1.9795
   69SLPC  H15C 5837   1.679   5.036  10.922 -3.8328 -0.1840 -0.1868
   69SLPC   C12 5838   1.737   4.873  11.221  0.6682 -0.1635  0.0625
   69SLPC  H12A 5839   1.646   4.893  11.276  0.8463 -2.3959  1.2930
   69SLPC  H12B 5840   1.811   4.874  11.299 -0.0770  0.5077  0.7828
   69SLPC   C11 5841   1.729   4.722  11.177 -0.5409 -0.5219 -0.1073
   69SLPC  H11A 5842   1.627   4.699  11.140  0.2516  0.2579 -3.0409
   69SLPC  H11B 5843   1.741   4.654  11.265  1.1007 -1.9353 -1.3279
   69SLPC     P 5844   1.835   4.543  11.008  0.0704  0.0138 -0.0445
   69SLPC   O13 5845   1.969   4.526  10.950 -0.2154  0.1861 -0.4073
   69SLPC   O14 5846   1.789   4.436  11.103  0.2407 -0.2390  0.4549
   69SLPC   O12 5847   1.833   4.679  11.086 -0.4305  0.0736 -0.4081
   69SLPC   O11 5848   1.730   4.571  10.891 -0.4842  0.7209  0.1262
   69SLPC    C1 5849   1.751   4.528  10.757  0.1887  0.2050  0.3835
   69SLPC    HA 5850   1.859   4.505  10.744 -0.1608 -0.6941 -1.1351
   69SLPC    HB 5851   1.691   4.439  10.729  1.5795 -1.1853  1.6283
   69SLPC    C2 5852   1.727   4.644  10.660  0.1106  0.3980 -0.5444
   69SLPC    HS 5853   1.626   4.688  10.661 -0.2572 -0.4242 -0.8192
   69SLPC   O21 5854   1.756   4.585  10.530 -0.4469  0.2511 -0.5245
   69SLPC   C21 5855   1.675   4.495  10.480  0.3967 -0.0567 -0.8654
   69SLPC   O22 5856   1.569   4.453  10.528  0.0996 -0.0168  0.1282
   69SLPC   C22 5857   1.727   4.441  10.347  0.1657 -0.3626 -0.1849
   69SLPC   H2R 5858   1.755   4.529  10.285  0.4582 -0.7899 -0.6724
   69SLPC   H2S 5859   1.825   4.393  10.370  0.3006  0.3418  0.7527
   69SLPC    C3 5860   1.833   4.759  10.679 -0.2311  0.5894 -1.0985
   69SLPC    HX 5861   1.937   4.719  10.674 -0.2382  0.7173 -2.7595
   69SLPC    HY 5862   1.813   4.809  10.776 -1.6353 -3.1765  0.7561
   69SLPC   O31 5863   1.828   4.846  10.569  0.3362 -0.6756 -0.3814
   69SLPC   C31 5864   1.771   4.966  10.588 -0.5432  0.9009  0.1164
   69SLPC   O32 5865   1.745   5.018  10.696  0.4633 -0.0899  0.3058
   69SLPC   C32 5866   1.768   5.030  10.452 -0.3449 -0.5076  0.8373
   69SLPC   H2X 5867   1.869   5.070  10.430  0.0107 -1.9698 -0.3521
   69SLPC   H2Y 5868   1.700   5.118  10.459  2.2162  1.4786  2.6477
   69SLPC   C23 5869   1.633   4.348  10.279 -0.1998 -0.1687 -0.5559
   69SLPC   H3R 5870   1.529   4.386  10.272  0.0683  0.3934 -1.7523
   69SLPC   H3S 5871   1.623   4.255  10.339 -0.1641  0.5260  0.5403
   69SLPC   C24 5872   1.669   4.304  10.135  0.7394 -0.2841 -0.2070
   69SLPC   H4R 5873   1.631   4.201  10.114 -0.5640  0.0890  0.2006
   69SLPC   H4S 5874   1.779   4.293  10.132  1.2005  2.5867  2.1413
   69SLPC   C25 5875   1.615   4.404  10.030 -0.7893 -0.1900 -0.9206
   69SLPC   H5R 5876   1.672   4.499  10.044  1.2422 -1.0311 -2.8170
   69SLPC   H5S 5877   1.508   4.431  10.042 -0.8119 -0.1031 -1.3263
   69SLPC   C26 5878   1.642   4.367   9.883  0.2358 -0.3272  0.7180
   69SLPC   H6R 5879   1.595   4.441   9.814  0.0515 -1.0953 -0.0012
   69SLPC   H6S 5880   1.582   4.278   9.854  0.0921 -0.5784  1.7373
   69SLPC   C27 5881   1.790   4.370   9.855 -0.1782  0.3305 -0.6226
   69SLPC   H7R 5882   1.825   4.268   9.880  0.6376  0.2148 -2.1129
   69SLPC   H7S 5883   1.845   4.441   9.921  0.0899  0.4529 -0.9717
   69SLPC   C28 5884   1.818   4.416   9.714 -0.4795  0.4205 -0.1951
   69SLPC   H8R 5885   1.928   4.419   9.699 -0.6464  0.5865 -1.5511
   69SLPC   H8S 5886   1.794   4.524   9.703  0.2015  0.3686 -2.9676
   69SLPC   C29 5887   1.759   4.335   9.604  0.6151  0.3547 -0.0813
   69SLPC   H9R 5888   1.649   4.332   9.595  0.7018  0.0661 -1.2033
   69SLPC  C210 5889   1.818   4.269   9.505  0.2422 -0.4100 -0.1949
   69SLPC  H10R 5890   1.755   4.223   9.427  0.3201  2.1951 -1.9008
   69SLPC  C211 5891   1.964   4.253   9.478  0.3405  0.7065 -0.2373
   69SLPC  H11R 5892   1.998   4.148   9.488  1.0642  1.0758  1.5733
   69SLPC  H11S 5893   2.032   4.311   9.544  2.5217 -1.1637 -0.7294
   69SLPC  C212 5894   2.000   4.305   9.343 -0.2631  0.2438  0.7056
   69SLPC  H12R 5895   1.962   4.406   9.323 -1.6792 -0.5475 -0.8553
   69SLPC  C213 5896   2.067   4.252   9.240  0.2249 -0.0369 -0.3000
   69SLPC  H13R 5897   2.083   4.299   9.141 -2.1682  0.2186 -0.6161
   69SLPC  C214 5898   2.131   4.116   9.243 -0.0904  0.3616  0.0711
   69SLPC  H14R 5899   2.188   4.100   9.336 -1.9204 -1.1268  0.9955
   69SLPC  H14S 5900   2.209   4.110   9.164  0.8153 -0.8227  1.0199
   69SLPC  C215 5901   2.046   3.992   9.209 -0.6712  0.3386 -0.5225
   69SLPC  H15R 5902   1.997   4.016   9.113  0.7086  0.4593 -1.2195
   69SLPC  H15S 5903   1.955   3.988   9.273  0.8489  1.6461  1.8870
   69SLPC  C216 5904   2.132   3.860   9.201  0.2465 -1.4860 -0.1665
   69SLPC  H16R 5905   2.166   3.847   9.306 -2.6786 -0.9646  0.9525
   69SLPC  H16S 5906   2.220   3.866   9.134  0.4427 -1.2374  0.1141
   69SLPC  C217 5907   2.046   3.731   9.179 -0.0808 -0.1937 -0.2301
   69SLPC  H17R 5908   1.991   3.708   9.273 -0.1866  1.9062  0.2676
   69SLPC  H17S 5909   2.123   3.651   9.177  0.3465  0.1576  1.0714
   69SLPC  C218 5910   1.952   3.734   9.060 -0.6091 -0.2812  0.1352
   69SLPC  H18R 5911   1.906   3.634   9.058 -3.3057  0.8595  0.9965
   69SLPC  H18S 5912   2.001   3.747   8.961 -0.6250  0.5338  0.2225
   69SLPC  H18T 5913   1.871   3.808   9.082  0.1061  0.8427 -0.8539
   69SLPC   C33 5914   1.710   4.943  10.340 -0.0950  0.7244  0.4037
   69SLPC   H3X 5915   1.601   4.964  10.337 -0.7724 -1.9747  2.4687
   69SLPC   H3Y 5916   1.721   4.836  10.369 -1.4212 -0.7182 -3.7831
   69SLPC   C34 5917   1.786   4.951  10.204 -0.1210  0.5847  0.5739
   69SLPC   H4X 5918   1.895   4.935  10.221 -0.4579  0.2719  2.7636
   69SLPC   H4Y 5919   1.778   5.054  10.162  1.4845  0.2463 -0.6672
   69SLPC   C35 5920   1.721   4.856  10.107  0.0059  0.3525  0.1625
   69SLPC   H5X 5921   1.613   4.872  10.131  0.0250  0.2486  0.3264
   69SLPC   H5Y 5922   1.740   4.750  10.134 -1.8567 -0.1537 -0.3126
   69SLPC   C36 5923   1.750   4.882   9.960  0.1985  0.5912 -0.1913
   69SLPC   H6X 5924   1.857   4.861   9.940 -0.1227 -0.5938 -0.7917
   69SLPC   H6Y 5925   1.733   4.986   9.926  0.4300  1.4348  2.0982
   69SLPC   C37 5926   1.684   4.781   9.858 -0.3632 -0.2463  0.2341
   69SLPC   H7X 5927   1.576   4.765   9.878  0.2028 -1.2848  2.8001
   69SLPC   H7Y 5928   1.731   4.681   9.868 -1.8282 -0.8867  0.9033
   69SLPC   C38 5929   1.721   4.831   9.716  0.2385  0.6298  1.0165
   69SLPC   H8X 5930   1.828   4.808   9.703 -0.2202 -1.0637 -0.0996
   69SLPC   H8Y 5931   1.697   4.938   9.696 -0.0066  0.2524 -0.9083
   69SLPC   C39 5932   1.641   4.746   9.609 -0.2249  0.6342 -0.2057
   69SLPC   H9X 5933   1.539   4.789   9.595  0.0524  1.3473 -0.0555
   69SLPC   H9Y 5934   1.638   4.646   9.659 -0.5528  0.6284 -0.2323
   69SLPC  C310 5935   1.722   4.737   9.483 -0.6508 -0.3839  0.6744
   69SLPC  H10X 5936   1.821   4.698   9.515 -0.9976 -1.5476  0.3773
   69SLPC  H10Y 5937   1.728   4.837   9.433 -0.3650 -0.6576  0.1538
   69SLPC  C311 5938   1.659   4.636   9.385 -0.0032  0.6097  1.1808
   69SLPC  H11X 5939   1.554   4.653   9.352  0.6473 -0.9672 -2.0013
   69SLPC  H11Y 5940   1.665   4.540   9.440  2.0284 -0.6943 -1.1786
   69SLPC  C312 5941   1.734   4.615   9.259 -0.3343 -0.1818  0.1344
   69SLPC  H12X 5942   1.835   4.571   9.273  0.4941  1.2462 -1.0805
   69SLPC  H12Y 5943   1.748   4.715   9.213 -1.7144  0.4495  1.0474
   69SLPC  C313 5944   1.664   4.528   9.152  0.1321  0.8240 -0.5833
   69SLPC  H13X 5945   1.566   4.556   9.108 -0.5660 -2.8384 -1.6648
   69SLPC  H13Y 5946   1.653   4.424   9.189 -3.5230  0.9590 -0.9423
   69SLPC  C314 5947   1.760   4.519   9.032 -0.8421  0.1908  1.3389
   69SLPC  H14X 5948   1.864   4.494   9.063  0.2647  1.0817 -1.3780
   69SLPC  H14Y 5949   1.765   4.617   8.979 -2.9340 -1.4460 -2.2197
   69SLPC  C315 5950   1.713   4.417   8.935 -0.0869  0.0584  0.2358
   69SLPC  H15X 5951   1.649   4.343   8.987 -0.1257  0.0825  0.2231
   69SLPC  H15Y 5952   1.805   4.367   8.898 -0.1373 -0.5698  0.9364
   69SLPC  C316 5953   1.636   4.471   8.816  0.5037 -0.4593  0.2338
   69SLPC  H16X 5954   1.708   4.531   8.756 -0.6047  1.0780  0.3566
   69SLPC  H16Y 5955   1.548   4.537   8.834  0.5258 -0.0678 -0.9625
   69SLPC  C317 5956   1.581   4.364   8.719 -0.1202  0.1749  0.2137
   69SLPC  H17X 5957   1.520   4.302   8.789 -0.2554  1.2592  1.0867
   69SLPC  H17Y 5958   1.668   4.310   8.677 -1.4877 -1.4531 -0.6671
   69SLPC  C318 5959   1.491   4.404   8.603 -0.2751  0.8334  0.4872
   69SLPC  H18X 5960   1.473   4.311   8.546 -0.7451 -0.4462  2.5966
   69SLPC  H18Y 5961   1.553   4.469   8.538 -0.4988  0.6045  0.0439
   69SLPC  H18Z 5962   1.399   4.451   8.643 -1.2583  0.0696 -0.8207
   70SLPC     N 5963   3.033   2.176  10.662  0.0847  0.6779 -0.1082
   70SLPC   C13 5964   3.072   2.289  10.751  1.0575 -0.1583  0.5556
   70SLPC  H13A 5965   3.131   2.242  10.828  0.3630 -0.7712  0.7240
   70SLPC  H13B 5966   3.132   2.365  10.704  1.5170  0.6313  2.3408
   70SLPC  H13C 5967   2.986   2.337  10.795  0.9543 -0.4805  0.7090
   70SLPC   C14 5968   2.945   2.230  10.554 -0.3216 -0.4914  0.1828
   70SLPC  H14A 5969   2.975   2.329  10.526  1.2240 -1.4308 -1.7546
   70SLPC  H14B 5970   2.955   2.168  10.466  1.7393  2.0673 -1.5184
   70SLPC  H14C 5971   2.840   2.220  10.577  0.3358  0.8718  4.6749
   70SLPC   C15 5972   2.963   2.076  10.744 -0.0671 -0.0601  0.5884
   70SLPC  H15A 5973   2.936   1.989  10.687  0.2379 -0.0333  0.3995
   70SLPC  H15B 5974   3.024   2.041  10.826  0.8966 -0.5817 -0.3176
   70SLPC  H15C 5975   2.874   2.120  10.785 -0.1834 -0.2534  0.5400
   70SLPC   C12 5976   3.153   2.106  10.604  0.4517  0.2800  0.2413
   70SLPC  H12A 5977   3.120   2.032  10.533 -0.8651 -0.6181  1.7150
   70SLPC  H12B 5978   3.200   2.037  10.672 -1.9646 -1.9728 -0.2057
   70SLPC   C11 5979   3.246   2.196  10.521  0.2531  0.3592 -0.0202
   70SLPC  H11A 5980   3.179   2.248  10.450  0.3020  1.0852  0.4610
   70SLPC  H11B 5981   3.311   2.130  10.460 -0.7677 -1.0726  0.3813
   70SLPC     P 5982   3.426   2.238  10.693  0.1243 -0.1462 -0.1583
   70SLPC   O13 5983   3.449   2.329  10.806  0.1115 -0.0188  0.5269
   70SLPC   O14 5984   3.390   2.105  10.744 -0.4097 -0.1474  0.2261
   70SLPC   O12 5985   3.318   2.292  10.593 -0.4178 -0.5622  0.1464
   70SLPC   O11 5986   3.560   2.238  10.608 -0.0605 -0.2874  0.1292
   70SLPC    C1 5987   3.626   2.132  10.546  0.0709 -0.0483 -0.3534
   70SLPC    HA 5988   3.719   2.111  10.603 -0.5599 -1.3590  0.2367
   70SLPC    HB 5989   3.573   2.034  10.548  2.1726 -1.2532 -0.8523
   70SLPC    C2 5990   3.662   2.147  10.395  0.0545  0.1331  0.2361
   70SLPC    HS 5991   3.735   2.231  10.397  0.9966 -0.6739  0.8093
   70SLPC   O21 5992   3.545   2.173  10.315 -0.3050 -0.5739  0.5885
   70SLPC   C21 5993   3.512   2.308  10.313 -0.1944  0.4829  0.1639
   70SLPC   O22 5994   3.570   2.391  10.383 -0.2477 -0.9034 -0.0517
   70SLPC   C22 5995   3.394   2.332  10.223  0.6875 -0.1361  0.0107
   70SLPC   H2R 5996   3.305   2.287  10.272  1.1881  0.3689  1.4098
   70SLPC   H2S 5997   3.389   2.443  10.225  4.4818  0.1439  0.6194
   70SLPC    C3 5998   3.732   2.016  10.350  0.2320  0.2724 -0.0630
   70SLPC    HX 5999   3.682   1.922  10.381  1.9147 -0.1554  1.5731
   70SLPC    HY 6000   3.824   2.024  10.412 -0.3246  3.4768  0.5026
   70SLPC   O31 6001   3.777   2.011  10.218  0.1015  0.2184  0.7657
   70SLPC   C31 6002   3.675   1.961  10.133 -0.1267 -0.2881  0.6477
   70SLPC   O32 6003   3.572   1.918  10.169 -0.0249  0.2277 -0.2313
   70SLPC   C32 6004   3.727   1.950   9.986 -0.4705 -0.5494 -0.4249
   70SLPC   H2X 6005   3.743   1.840   9.973  0.1491 -0.9052  2.4888
   70SLPC   H2Y 6006   3.831   1.988   9.979  0.9555 -4.0291 -0.3906
   70SLPC   C23 6007   3.415   2.287  10.075 -1.1140 -0.3554 -0.2777
   70SLPC   H3R 6008   3.433   2.178  10.067 -2.5338 -0.4902 -2.1503
   70SLPC   H3S 6009   3.509   2.332  10.034 -2.3878 -0.8074 -4.0284
   70SLPC   C24 6010   3.304   2.331   9.978  0.0716  0.4000 -0.8004
   70SLPC   H4R 6011   3.261   2.428  10.010  1.1125  1.1911 -1.7565
   70SLPC   H4S 6012   3.223   2.254   9.975  0.8420 -0.4281 -0.9781
   70SLPC   C25 6013   3.350   2.347   9.836 -0.1672  0.0717 -0.3521
   70SLPC   H5R 6014   3.386   2.248   9.800 -0.4202  0.3838 -1.4954
   70SLPC   H5S 6015   3.441   2.411   9.839 -0.2320  0.2334 -1.4659
   70SLPC   C26 6016   3.249   2.406   9.735 -0.2767  0.1936 -0.3946
   70SLPC   H6R 6017   3.249   2.517   9.744 -2.3610  0.2295 -0.2695
   70SLPC   H6S 6018   3.151   2.364   9.765  1.5521 -1.9977  3.1486
   70SLPC   C27 6019   3.278   2.369   9.593  0.0316  0.0234 -0.0797
   70SLPC   H7R 6020   3.280   2.260   9.574  0.4665  0.1118 -0.5694
   70SLPC   H7S 6021   3.379   2.401   9.560  1.0296 -2.2982  0.5211
   70SLPC   C28 6022   3.169   2.417   9.497  0.4476  0.6897  0.2897
   70SLPC   H8R 6023   3.202   2.515   9.458  0.1644  0.3344 -0.8791
   70SLPC   H8S 6024   3.077   2.447   9.553 -0.1731  0.1921 -0.4537
   70SLPC   C29 6025   3.141   2.318   9.382  0.7101 -0.2695 -0.7712
   70SLPC   H9R 6026   3.095   2.226   9.421  3.3016 -0.1766  3.1083
   70SLPC  C210 6027   3.162   2.321   9.247 -0.0731 -0.4654 -0.2556
   70SLPC  H10R 6028   3.135   2.235   9.183 -0.7306 -0.4944  0.0461
   70SLPC  C211 6029   3.237   2.437   9.182  0.2613 -0.1259 -0.4509
   70SLPC  H11R 6030   3.175   2.528   9.165 -1.8215 -1.7793 -2.3797
   70SLPC  H11S 6031   3.245   2.411   9.074 -2.8319 -1.9773 -0.3545
   70SLPC  C212 6032   3.374   2.459   9.227  0.4312 -0.5168 -0.8103
   70SLPC  H12R 6033   3.403   2.407   9.319 -0.1834 -0.2247 -0.4441
   70SLPC  C213 6034   3.458   2.522   9.156  0.3569  0.2448 -0.5401
   70SLPC  H13R 6035   3.564   2.522   9.186 -0.0504 -1.4471  1.0630
   70SLPC  C214 6036   3.428   2.594   9.021  0.3578  0.0156 -0.2432
   70SLPC  H14R 6037   3.446   2.703   9.036 -1.4789  0.1704  1.1357
   70SLPC  H14S 6038   3.321   2.584   8.995 -0.2226  0.5306  1.7869
   70SLPC  C215 6039   3.529   2.542   8.913  0.8498 -0.4135  0.5836
   70SLPC  H15R 6040   3.535   2.431   8.920 -0.2450 -0.6397 -1.3409
   70SLPC  H15S 6041   3.633   2.580   8.921  1.1844 -1.1359 -0.1917
   70SLPC  C216 6042   3.470   2.583   8.775 -0.9097 -0.3866 -0.7315
   70SLPC  H16R 6043   3.464   2.694   8.766  0.6078 -0.3445 -1.6054
   70SLPC  H16S 6044   3.369   2.537   8.772 -0.4575 -1.8152  2.1736
   70SLPC  C217 6045   3.553   2.558   8.649 -0.1392 -0.3752 -0.1062
   70SLPC  H17R 6046   3.497   2.574   8.554  1.4363 -0.9516 -1.1634
   70SLPC  H17S 6047   3.584   2.452   8.642 -2.0561 -1.0805  1.3536
   70SLPC  C218 6048   3.688   2.638   8.635  0.2323  0.1207  0.2666
   70SLPC  H18R 6049   3.741   2.635   8.733 -2.1251  3.3486  1.8227
   70SLPC  H18S 6050   3.654   2.741   8.611 -0.6980 -0.4103 -0.7634
   70SLPC  H18T 6051   3.743   2.588   8.553  0.1905 -0.2544  0.4639
   70SLPC   C33 6052   3.634   2.014   9.881 -0.3001  0.1994 -0.1301
   70SLPC   H3X 6053   3.639   2.124   9.895  2.6336  0.2710 -0.9830
   70SLPC   H3Y 6054   3.532   1.971   9.892 -0.1688  0.3169  1.6975
   70SLPC   C34 6055   3.689   1.980   9.744  0.7327 -0.1124  0.4417
   70SLPC   H4X 6056   3.684   1.870   9.733  0.4853  0.0397 -1.3727
   70SLPC   H4Y 6057   3.795   2.007   9.725  0.3894 -0.3318 -2.1475
   70SLPC   C35 6058   3.590   2.037   9.643  0.5066 -0.5628  0.2046
   70SLPC   H5X 6059   3.598   2.147   9.628  0.6047 -0.9337 -3.5738
   70SLPC   H5Y 6060   3.490   2.016   9.687  0.3514 -2.1444 -0.8412
   70SLPC   C36 6061   3.603   1.979   9.499  0.2244 -0.9241 -0.2995
   70SLPC   H6X 6062   3.574   1.871   9.500  0.7509 -1.0760 -0.6577
   70SLPC   H6Y 6063   3.712   1.982   9.476  0.0993  0.4179 -0.7849
   70SLPC   C37 6064   3.522   2.067   9.392 -0.0611  0.4409  0.1212
   70SLPC   H7X 6065   3.559   2.172   9.385  0.1005  0.2365 -3.6823
   70SLPC   H7Y 6066   3.415   2.070   9.424 -0.4106  3.7285 -0.9711
   70SLPC   C38 6067   3.536   2.002   9.258 -0.2194 -0.1634  0.2839
   70SLPC   H8X 6068   3.471   1.915   9.236  0.8979 -0.4335 -2.2629
   70SLPC   H8Y 6069   3.643   1.977   9.247  0.2946  2.0081 -0.0043
   70SLPC   C39 6070   3.505   2.102   9.147 -0.1826  0.4541  0.6625
   70SLPC   H9X 6071   3.554   2.201   9.160  4.6493 -1.3354 -1.6476
   70SLPC   H9Y 6072   3.394   2.114   9.153 -0.0248  1.6437  1.5683
   70SLPC  C310 6073   3.555   2.056   9.008  0.5419 -0.5940 -0.2259
   70SLPC  H10X 6074   3.525   1.951   8.992  0.2837 -0.3958 -1.1366
   70SLPC  H10Y 6075   3.665   2.060   9.000  0.8903 -3.5816  1.5730
   70SLPC  C311 6076   3.478   2.137   8.894  0.7326  1.0611  0.4394
   70SLPC  H11X 6077   3.535   2.229   8.872  3.9622 -0.9086 -0.0882
   70SLPC  H11Y 6078   3.389   2.181   8.944  0.2964 -0.2102  0.8296
   70SLPC  C312 6079   3.436   2.055   8.768  0.4134 -0.1261  0.8586
   70SLPC  H12X 6080   3.368   1.970   8.791  0.5186 -0.5854 -0.4464
   70SLPC  H12Y 6081   3.533   2.021   8.725 -0.0773  0.9415 -1.2331
   70SLPC  C313 6082   3.358   2.152   8.677  0.1623  0.4018  0.0089
   70SLPC  H13X 6083   3.398   2.255   8.661 -0.0912  0.4888 -0.0712
   70SLPC  H13Y 6084   3.257   2.169   8.720  0.6897 -1.3134  2.0601
   70SLPC  C314 6085   3.337   2.097   8.532  0.1808  0.3014 -0.3118
   70SLPC  H14X 6086   3.428   2.065   8.477 -1.8323  0.4228 -4.0613
   70SLPC  H14Y 6087   3.295   2.176   8.467 -1.0407 -0.0943 -0.0299
   70SLPC  C315 6088   3.238   1.978   8.538 -0.4180  0.4715 -0.1779
   70SLPC  H15X 6089   3.169   1.986   8.625  0.6983 -0.3044  0.8180
   70SLPC  H15Y 6090   3.302   1.889   8.558  0.3435  0.4740 -2.3369
   70SLPC  C316 6091   3.158   1.963   8.412  0.1150  0.0696 -0.3506
   70SLPC  H16X 6092   3.236   1.978   8.334  1.9851  0.3847  1.4874
   70SLPC  H16Y 6093   3.086   2.046   8.398  1.0954  1.4925  2.3734
   70SLPC  C317 6094   3.089   1.829   8.388 -0.1520  0.2929 -0.6509
   70SLPC  H17X 6095   3.052   1.828   8.284  0.2563 -0.7458 -0.8005
   70SLPC  H17Y 6096   2.998   1.827   8.452 -0.4821  0.9318 -1.0903
   70SLPC  C318 6097   3.170   1.698   8.399 -0.2476 -0.0983  0.5978
   70SLPC  H18X 6098   3.229   1.689   8.305  2.3357 -2.4446  2.2487
   70SLPC  H18Y 6099   3.114   1.604   8.420 -3.0476  0.2616 -4.0396
   70SLPC  H18Z 6100   3.246   1.714   8.479 -0.1347  5.0828 -0.2497
   71SLPC     N 6101   3.150   2.864  11.030  0.1978 -0.0184 -0.5134
   71SLPC   C13 6102   3.037   2.908  11.122  0.9624 -0.7523 -0.3076
   71SLPC  H13A 6103   3.074   2.914  11.223  0.7294  1.2832 -0.3026
   71SLPC  H13B 6104   2.997   3.002  11.088 -1.8277 -2.3468 -1.7668
   71SLPC  H13C 6105   2.958   2.835  11.133 -0.2432  0.6479  0.5842
   71SLPC   C14 6106   3.200   2.731  11.087  0.0266  0.1785 -0.0493
   71SLPC  H14A 6107   3.276   2.679  11.031 -0.4352 -0.8092  0.2166
   71SLPC  H14B 6108   3.236   2.742  11.189  0.2272 -1.0699  0.0306
   71SLPC  H14C 6109   3.111   2.670  11.096 -0.6711  0.5633 -3.3123
   71SLPC   C15 6110   3.266   2.952  11.020 -0.7299  0.2295  0.2249
   71SLPC  H15A 6111   3.350   2.909  10.969  0.5636  2.3200  0.4694
   71SLPC  H15B 6112   3.241   3.037  10.957  0.0109  0.3133  0.0403
   71SLPC  H15C 6113   3.289   2.988  11.119 -0.5887 -0.1171  0.3200
   71SLPC   C12 6114   3.102   2.831  10.889  0.0520 -0.0618  0.3455
   71SLPC  H12A 6115   3.174   2.784  10.824 -0.9785 -0.8219 -0.2686
   71SLPC  H12B 6116   3.079   2.930  10.853 -1.6064 -0.2729  0.7462
   71SLPC   C11 6117   2.972   2.740  10.872 -0.2889 -0.2052  0.4409
   71SLPC  H11A 6118   2.978   2.660  10.948  1.6234 -2.1750 -1.6403
   71SLPC  H11B 6119   2.981   2.695  10.770  0.0306  0.3421  0.2229
   71SLPC     P 6120   2.723   2.753  10.824  0.5048 -0.1722 -0.2269
   71SLPC   O13 6121   2.675   2.674  10.937 -0.1728  0.3601 -0.4312
   71SLPC   O14 6122   2.635   2.859  10.766 -0.3099  0.8304  0.0980
   71SLPC   O12 6123   2.852   2.819  10.877  0.3321  0.1546 -0.8122
   71SLPC   O11 6124   2.757   2.642  10.712 -0.4217  0.2087  0.1921
   71SLPC    C1 6125   2.740   2.684  10.570  0.9110  0.4792 -0.5774
   71SLPC    HA 6126   2.633   2.680  10.539 -0.0653 -2.9604  2.6220
   71SLPC    HB 6127   2.761   2.792  10.551  0.1079  0.4674 -1.6149
   71SLPC    C2 6128   2.825   2.607  10.466 -0.3166 -0.1102  0.1185
   71SLPC    HS 6129   2.829   2.501  10.499 -0.2104 -1.0397 -2.6819
   71SLPC   O21 6130   2.955   2.668  10.468 -0.3258  0.1580  0.1843
   71SLPC   C21 6131   3.046   2.601  10.402  0.0493 -0.3263  0.1073
   71SLPC   O22 6132   3.052   2.482  10.378 -0.0441  0.0130  0.4164
   71SLPC   C22 6133   3.158   2.703  10.373 -0.2370  0.2386 -0.1913
   71SLPC   H2R 6134   3.192   2.760  10.462 -2.3050 -1.0734  1.5387
   71SLPC   H2S 6135   3.241   2.644  10.329 -0.2735 -0.8243  1.0752
   71SLPC    C3 6136   2.769   2.591  10.323  0.3646 -0.0207 -0.6410
   71SLPC    HX 6137   2.674   2.539  10.347  0.5062 -0.8911 -1.9132
   71SLPC    HY 6138   2.838   2.529  10.262  3.2160  0.8589  1.4652
   71SLPC   O31 6139   2.744   2.720  10.255  0.6959  0.6360 -0.4888
   71SLPC   C31 6140   2.661   2.718  10.153 -0.4229 -0.5496  0.4077
   71SLPC   O32 6141   2.623   2.613  10.104 -0.4985  0.5652 -0.0985
   71SLPC   C32 6142   2.626   2.859  10.101 -0.4355 -0.1499  0.3272
   71SLPC   H2X 6143   2.679   2.942  10.152  3.2060 -0.1181 -3.0755
   71SLPC   H2Y 6144   2.518   2.878  10.123 -0.0702 -0.5590  2.7490
   71SLPC   C23 6145   3.109   2.803  10.272 -0.5460 -0.0711 -0.2978
   71SLPC   H3R 6146   3.182   2.886  10.259 -2.5626  1.6106 -1.8526
   71SLPC   H3S 6147   3.009   2.849  10.292 -0.9867 -1.0733 -0.1251
   71SLPC   C24 6148   3.089   2.736  10.136  0.0223 -0.0663  0.7064
   71SLPC   H4R 6149   3.004   2.664  10.140  0.6096 -1.0678 -2.1103
   71SLPC   H4S 6150   3.182   2.682  10.110  0.9985  1.2522  1.4057
   71SLPC   C25 6151   3.077   2.859  10.032  1.1005 -0.0292 -0.1387
   71SLPC   H5R 6152   3.162   2.928  10.051  0.7714  0.6040 -0.9275
   71SLPC   H5S 6153   2.984   2.916  10.052  1.0232 -0.8935  2.2545
   71SLPC   C26 6154   3.088   2.823   9.882 -0.0460 -0.0125 -1.2044
   71SLPC   H6R 6155   3.186   2.771   9.881 -0.5310 -1.0193  0.2151
   71SLPC   H6S 6156   3.112   2.905   9.811  0.7331 -1.5813 -2.8273
   71SLPC   C27 6157   2.985   2.725   9.827  0.1445  0.2000 -0.5469
   71SLPC   H7R 6158   2.889   2.752   9.875  0.7667 -0.5227  1.1889
   71SLPC   H7S 6159   3.011   2.622   9.859  2.6353  0.0411 -2.7377
   71SLPC   C28 6160   2.984   2.724   9.673  0.5794 -0.0882 -0.1495
   71SLPC   H8R 6161   2.914   2.643   9.643 -0.1654  0.1528  0.8503
   71SLPC   H8S 6162   3.082   2.696   9.630  0.4424  0.6347 -0.9606
   71SLPC   C29 6163   2.921   2.843   9.601  0.2144  0.5177 -0.3797
   71SLPC   H9R 6164   2.899   2.927   9.668 -1.2068 -0.9709  1.1174
   71SLPC  C210 6165   2.877   2.845   9.477 -0.2650  0.3364  0.2519
   71SLPC  H10R 6166   2.831   2.939   9.443 -1.1986 -0.1326  0.1753
   71SLPC  C211 6167   2.890   2.732   9.379  0.7177  0.3690 -0.6973
   71SLPC  H11R 6168   2.947   2.641   9.407  1.7841  1.2348  0.0074
   71SLPC  H11S 6169   2.951   2.764   9.292  1.0505 -0.9840 -0.9899
   71SLPC  C212 6170   2.749   2.705   9.327 -0.3536  0.3685 -0.0885
   71SLPC  H12R 6171   2.674   2.692   9.406  1.6430 -0.0684  1.8165
   71SLPC  C213 6172   2.716   2.696   9.194  0.3167  0.1562 -0.1634
   71SLPC  H13R 6173   2.615   2.666   9.165  0.7206 -1.3927 -0.0604
   71SLPC  C214 6174   2.803   2.713   9.071 -0.3054  0.0511  0.2025
   71SLPC  H14R 6175   2.906   2.743   9.100 -1.0824  1.6333  1.4775
   71SLPC  H14S 6176   2.765   2.795   9.006 -2.1848  0.8033  2.1491
   71SLPC  C215 6177   2.812   2.578   8.989 -0.6718 -0.5247 -0.0346
   71SLPC  H15R 6178   2.706   2.554   8.965 -0.6924 -0.5892  0.1257
   71SLPC  H15S 6179   2.856   2.494   9.047 -1.3660 -0.7926  0.1196
   71SLPC  C216 6180   2.886   2.596   8.853  0.5265 -0.7141 -0.1561
   71SLPC  H16R 6181   2.817   2.650   8.783  0.7368  0.0810  0.2322
   71SLPC  H16S 6182   2.894   2.506   8.789  1.3899  0.0583 -1.1810
   71SLPC  C217 6183   3.019   2.662   8.865 -0.2184  0.1728  0.1846
   71SLPC  H17R 6184   3.076   2.596   8.935  1.3800 -1.5577 -2.5902
   71SLPC  H17S 6185   3.017   2.767   8.900  0.1504  0.1122  0.3921
   71SLPC  C218 6186   3.101   2.651   8.734 -0.3129  0.8317  0.0994
   71SLPC  H18R 6187   3.051   2.703   8.650 -0.7254  0.6092  0.2032
   71SLPC  H18S 6188   3.126   2.545   8.711 -1.9063 -0.2519  2.7979
   71SLPC  H18T 6189   3.194   2.710   8.748 -0.2898  0.5644  1.1058
   71SLPC   C33 6190   2.645   2.878   9.946  0.8767 -0.6181  0.0254
   71SLPC   H3X 6191   2.637   2.780   9.895  1.1378  0.6468 -2.6706
   71SLPC   H3Y 6192   2.748   2.917   9.927  0.4004 -0.1222 -1.8185
   71SLPC   C34 6193   2.540   2.978   9.881 -0.4786 -0.3041 -0.1400
   71SLPC   H4X 6194   2.547   3.081   9.921 -1.0179  0.3939 -1.7802
   71SLPC   H4Y 6195   2.437   2.948   9.911 -1.5856  1.5489 -1.8887
   71SLPC   C35 6196   2.555   2.984   9.731  0.0900 -0.1954 -0.0210
   71SLPC   H5X 6197   2.519   2.891   9.682 -4.9045  3.1790 -3.7842
   71SLPC   H5Y 6198   2.662   2.996   9.704  0.7589  0.8759  2.7294
   71SLPC   C36 6199   2.488   3.110   9.670 -0.3521  0.1911 -0.3390
   71SLPC   H6X 6200   2.533   3.201   9.715 -1.6924  1.1012 -0.7810
   71SLPC   H6Y 6201   2.380   3.114   9.696 -0.1068  2.8753  0.5263
   71SLPC   C37 6202   2.502   3.131   9.520 -0.3372  0.1620  0.4038
   71SLPC   H7X 6203   2.611   3.137   9.497  0.0112 -0.3128  1.8520
   71SLPC   H7Y 6204   2.453   3.226   9.489 -1.2409  0.4427  2.5362
   71SLPC   C38 6205   2.449   3.012   9.430 -0.3709 -0.0265 -0.2914
   71SLPC   H8X 6206   2.344   2.988   9.458  0.2310 -2.5419  0.0412
   71SLPC   H8Y 6207   2.502   2.915   9.438 -0.2835 -0.1801 -2.1612
   71SLPC   C39 6208   2.456   3.051   9.277 -0.1064  0.7170  0.0971
   71SLPC   H9X 6209   2.400   3.145   9.258  1.4328  1.7031  0.2446
   71SLPC   H9Y 6210   2.407   2.979   9.208 -1.0956  0.7419  0.7600
   71SLPC  C310 6211   2.593   3.076   9.240  0.0415  0.1285 -0.4467
   71SLPC  H10X 6212   2.663   2.993   9.260 -0.9647 -0.3648  1.2601
   71SLPC  H10Y 6213   2.640   3.161   9.295 -0.2167 -0.5735  0.8921
   71SLPC  C311 6214   2.609   3.117   9.091  0.3906  0.1769 -0.8267
   71SLPC  H11X 6215   2.553   3.209   9.063 -1.6309  0.0806  2.3677
   71SLPC  H11Y 6216   2.562   3.034   9.035 -0.3178 -1.5811  2.1546
   71SLPC  C312 6217   2.754   3.132   9.055  0.6875 -0.5803 -0.6392
   71SLPC  H12X 6218   2.808   3.047   9.102 -0.8170 -2.1472 -1.6686
   71SLPC  H12Y 6219   2.801   3.217   9.110  1.2894 -1.0123 -0.4676
   71SLPC  C313 6220   2.781   3.117   8.905 -0.0896 -0.4209  0.2805
   71SLPC  H13X 6221   2.748   3.017   8.867  1.5441 -1.5889  1.7719
   71SLPC  H13Y 6222   2.892   3.107   8.901  0.2800  2.8992 -2.5009
   71SLPC  C314 6223   2.736   3.239   8.825  0.4700  0.2362  0.3640
   71SLPC  H14X 6224   2.787   3.336   8.849 -1.0248  0.8557  1.1374
   71SLPC  H14Y 6225   2.627   3.258   8.825  0.3483 -0.4496 -0.1285
   71SLPC  C315 6226   2.789   3.208   8.682  0.7950 -0.0630 -0.1998
   71SLPC  H15X 6227   2.718   3.138   8.633 -2.4890  3.3812 -0.8250
   71SLPC  H15Y 6228   2.887   3.155   8.686  1.3280  0.9259  0.3986
   71SLPC  C316 6229   2.815   3.328   8.593  0.2918 -0.2163 -0.1061
   71SLPC  H16X 6230   2.849   3.291   8.494  0.9620  2.0796 -0.8057
   71SLPC  H16Y 6231   2.899   3.381   8.643 -0.5802  0.6177  0.4984
   71SLPC  C317 6232   2.701   3.424   8.582  0.2834 -0.4676  0.1464
   71SLPC  H17X 6233   2.710   3.476   8.680  0.5218 -0.6429  0.2205
   71SLPC  H17Y 6234   2.615   3.355   8.577 -0.6372  0.2075  3.6463
   71SLPC  C318 6235   2.708   3.518   8.458  0.6031 -0.3580  0.0915
   71SLPC  H18X 6236   2.725   3.451   8.371  1.3825 -1.1438  0.8308
   71SLPC  H18Y 6237   2.795   3.586   8.465  1.2877 -1.3484  1.9371
   71SLPC  H18Z 6238   2.614   3.571   8.430  1.0246 -0.2533 -1.2115
   72SLPC     N 6239   2.780   1.061  10.806  0.1984 -0.4698  0.9936
   72SLPC   C13 6240   2.698   1.172  10.750  0.1606  0.1826  0.3411
   72SLPC  H13A 6241   2.623   1.203  10.821 -0.9158  0.5288 -0.9087
   72SLPC  H13B 6242   2.758   1.254  10.713 -1.9344  1.3600 -0.5756
   72SLPC  H13C 6243   2.646   1.153  10.657 -1.7834  0.6202  1.2946
   72SLPC   C14 6244   2.695   0.953  10.858 -0.3476 -0.2893 -0.3441
   72SLPC  H14A 6245   2.736   0.916  10.951 -1.8151  2.0773  1.3431
   72SLPC  H14B 6246   2.597   0.987  10.889 -0.7888  0.3013 -2.2750
   72SLPC  H14C 6247   2.669   0.874  10.789 -0.5947 -0.8193  0.3399
   72SLPC   C15 6248   2.849   1.135  10.921  0.3833  0.1380 -0.2630
   72SLPC  H15A 6249   2.793   1.199  10.988 -0.4816 -1.6253  0.7747
   72SLPC  H15B 6250   2.906   1.072  10.988  2.1851  0.2406 -1.6305
   72SLPC  H15C 6251   2.923   1.201  10.878 -0.0454  0.7252 -0.1207
   72SLPC   C12 6252   2.890   1.004  10.719  0.3642  0.4181  0.1582
   72SLPC  H12A 6253   2.842   0.924  10.665 -0.4651  0.9463  0.1023
   72SLPC  H12B 6254   2.967   0.965  10.784  2.8392  1.4092 -1.9776
   72SLPC   C11 6255   2.945   1.095  10.606 -0.9257 -0.3244 -0.6320
   72SLPC  H11A 6256   2.868   1.105  10.526 -1.0819  0.6357 -0.3736
   72SLPC  H11B 6257   3.033   1.046  10.559 -0.6792 -0.1407 -0.3617
   72SLPC     P 6258   3.112   1.285  10.677 -0.1426 -0.4864  0.1428
   72SLPC   O13 6259   3.113   1.433  10.651  0.6584  0.1925  0.2275
   72SLPC   O14 6260   3.159   1.243  10.813 -0.7978 -0.3081  0.0304
   72SLPC   O12 6261   2.967   1.231  10.655  0.2249 -0.2265  0.4625
   72SLPC   O11 6262   3.213   1.210  10.575 -0.1466 -0.4938  0.2773
   72SLPC    C1 6263   3.329   1.283  10.545 -0.4072  0.2092  0.0996
   72SLPC    HA 6264   3.361   1.364  10.614 -0.3101  0.3722 -0.1393
   72SLPC    HB 6265   3.413   1.211  10.546  0.6484  1.3410  3.0042
   72SLPC    C2 6266   3.319   1.344  10.404 -0.0775 -0.4753 -0.0192
   72SLPC    HS 6267   3.283   1.449  10.403  0.5876 -0.2434 -0.8350
   72SLPC   O21 6268   3.241   1.267  10.306 -0.2339 -0.1496  0.2973
   72SLPC   C21 6269   3.114   1.305  10.309 -0.5514 -0.0118  0.4240
   72SLPC   O22 6270   3.075   1.417  10.321 -0.2882  0.2662  0.2462
   72SLPC   C22 6271   3.027   1.179  10.285  0.5000  0.2347  0.5393
   72SLPC   H2R 6272   3.092   1.092  10.310  1.1572  0.5787  0.0655
   72SLPC   H2S 6273   2.952   1.199  10.364 -0.5184  0.7703 -0.5326
   72SLPC    C3 6274   3.467   1.369  10.350 -0.5441  0.2373 -0.2564
   72SLPC    HX 6275   3.504   1.264  10.348  0.2099  0.5039 -0.5778
   72SLPC    HY 6276   3.531   1.425  10.421 -0.7993 -0.8076  0.8235
   72SLPC   O31 6277   3.470   1.441  10.226 -0.0638 -0.3437  0.5940
   72SLPC   C31 6278   3.586   1.437  10.168 -0.1998 -0.4932  0.0096
   72SLPC   O32 6279   3.683   1.377  10.206  0.1993  0.6237  0.4486
   72SLPC   C32 6280   3.578   1.532  10.046  1.0114  0.9303 -0.6712
   72SLPC   H2X 6281   3.554   1.638  10.070 -2.2417  0.5426 -1.7652
   72SLPC   H2Y 6282   3.490   1.493   9.991 -0.0253  0.1637  1.4013
   72SLPC   C23 6283   2.941   1.160  10.158  0.2701 -0.6607  0.8710
   72SLPC   H3R 6284   2.865   1.240  10.150  1.1009  0.0180 -0.6402
   72SLPC   H3S 6285   2.878   1.069  10.167 -1.1531  0.4276  2.6231
   72SLPC   C24 6286   3.024   1.161  10.027  0.2346 -0.0001  0.0832
   72SLPC   H4R 6287   3.081   1.066  10.026 -0.6280 -0.5144 -0.6501
   72SLPC   H4S 6288   3.090   1.250  10.021  1.6796 -1.0546 -0.0945
   72SLPC   C25 6289   2.930   1.178   9.914 -0.3639  0.3138  0.2023
   72SLPC   H5R 6290   2.885   1.279   9.914 -3.6340 -0.9848  0.4894
   72SLPC   H5S 6291   2.849   1.101   9.912  2.3959 -2.8151  0.4587
   72SLPC   C26 6292   3.013   1.160   9.782 -0.7176  0.3284 -0.1970
   72SLPC   H6R 6293   3.074   1.068   9.792 -0.9493 -0.2943 -3.3968
   72SLPC   H6S 6294   3.080   1.247   9.770  0.5485 -0.5162  0.5925
   72SLPC   C27 6295   2.920   1.143   9.656 -0.1347  0.1374 -1.0465
   72SLPC   H7R 6296   2.870   1.238   9.628 -0.9238  0.4548  1.1890
   72SLPC   H7S 6297   2.840   1.071   9.683 -0.3784  0.3239 -1.2736
   72SLPC   C28 6298   2.987   1.082   9.537  0.4659 -0.3736 -0.4012
   72SLPC   H8R 6299   2.908   1.036   9.474  0.9667  1.0928 -2.1799
   72SLPC   H8S 6300   3.062   1.004   9.558  0.9785 -0.0435 -0.9752
   72SLPC   C29 6301   3.068   1.183   9.459 -0.2477 -0.0025  0.5304
   72SLPC   H9R 6302   3.151   1.225   9.516 -0.0077  1.2606 -0.6850
   72SLPC  C210 6303   3.055   1.219   9.329  0.6759 -0.1346  0.3776
   72SLPC  H10R 6304   3.128   1.293   9.292 -0.9693 -0.1003 -3.2103
   72SLPC  C211 6305   2.946   1.170   9.235 -0.5335  0.5719  0.0087
   72SLPC  H11R 6306   2.917   1.066   9.261 -1.6366  1.2073  1.4743
   72SLPC  H11S 6307   2.992   1.153   9.136  0.0949 -1.5725  0.6159
   72SLPC  C212 6308   2.818   1.245   9.228 -0.3491  0.0712  0.4369
   72SLPC  H12R 6309   2.773   1.275   9.324 -0.0207  1.7003  0.0955
   72SLPC  C213 6310   2.745   1.267   9.115 -0.2295  0.4413  0.2914
   72SLPC  H13R 6311   2.647   1.318   9.116 -0.6824 -0.2105  4.0154
   72SLPC  C214 6312   2.789   1.216   8.974  0.2620 -0.2306  0.3298
   72SLPC  H14R 6313   2.703   1.193   8.908 -0.6072 -0.8693  1.6403
   72SLPC  H14S 6314   2.849   1.123   8.976  0.7800  0.0917  0.0364
   72SLPC  C215 6315   2.878   1.332   8.931 -0.3307 -0.8452 -0.0471
   72SLPC  H15R 6316   2.961   1.335   9.004 -1.0932 -0.6104  0.8273
   72SLPC  H15S 6317   2.814   1.423   8.923  1.4000  0.2869 -2.3223
   72SLPC  C216 6318   2.935   1.296   8.788 -0.2646 -0.8715 -0.2398
   72SLPC  H16R 6319   3.012   1.218   8.805  0.1647 -0.2319  0.9040
   72SLPC  H16S 6320   2.995   1.388   8.772  1.7460 -2.0777 -0.0057
   72SLPC  C217 6321   2.844   1.269   8.671 -0.2330  0.1885 -0.0623
   72SLPC  H17R 6322   2.772   1.188   8.694 -0.1490 -0.2072 -1.1093
   72SLPC  H17S 6323   2.909   1.230   8.590 -1.3427 -2.1084  0.0752
   72SLPC  C218 6324   2.759   1.390   8.627 -0.8600 -0.1886 -0.4437
   72SLPC  H18R 6325   2.723   1.443   8.718  1.3335 -2.2841  1.8347
   72SLPC  H18S 6326   2.675   1.353   8.565 -1.4307 -1.2804  0.9211
   72SLPC  H18T 6327   2.822   1.457   8.564 -0.1045 -1.3729 -0.9838
   72SLPC   C33 6328   3.696   1.529   9.959  0.2062 -0.2054  0.4995
   72SLPC   H3X 6329   3.737   1.427   9.943  1.8971  0.8196 -2.6028
   72SLPC   H3Y 6330   3.782   1.582  10.006 -0.1198 -0.4291  1.3640
   72SLPC   C34 6331   3.659   1.593   9.823  0.1091 -0.5994 -0.1887
   72SLPC   H4X 6332   3.755   1.615   9.773  0.2062  0.6851  0.5047
   72SLPC   H4Y 6333   3.605   1.689   9.843  0.0175 -1.0410  1.9880
   72SLPC   C35 6334   3.566   1.511   9.728  0.0656 -0.7382  0.6237
   72SLPC   H5X 6335   3.463   1.512   9.769 -0.4501  0.0171 -0.6297
   72SLPC   H5Y 6336   3.597   1.405   9.727  1.4522 -0.3619  0.4417
   72SLPC   C36 6337   3.564   1.574   9.592 -0.9203 -0.0753 -0.1754
   72SLPC   H6X 6338   3.665   1.592   9.549 -0.8082 -2.1804 -0.9043
   72SLPC   H6Y 6339   3.536   1.679   9.618  3.8647  1.4361 -0.1351
   72SLPC   C37 6340   3.475   1.502   9.495  0.4094 -0.1049 -0.0437
   72SLPC   H7X 6341   3.379   1.465   9.535 -0.2684  0.0494 -1.4722
   72SLPC   H7Y 6342   3.528   1.413   9.454  0.3720 -0.1373 -0.0209
   72SLPC   C38 6343   3.445   1.586   9.364 -0.5147 -0.4412 -0.5368
   72SLPC   H8X 6344   3.532   1.598   9.296 -0.2487  1.4529  0.0744
   72SLPC   H8Y 6345   3.410   1.690   9.385 -0.6766 -0.5935 -0.0442
   72SLPC   C39 6346   3.325   1.528   9.294  0.0708  0.1163  0.7427
   72SLPC   H9X 6347   3.244   1.501   9.364  0.0560 -1.8336  0.0352
   72SLPC   H9Y 6348   3.359   1.431   9.253 -0.4908  0.0795  0.3499
   72SLPC  C310 6349   3.264   1.604   9.176 -0.8451 -0.9056  0.1221
   72SLPC  H10X 6350   3.337   1.659   9.112 -1.5787  1.2828  1.0881
   72SLPC  H10Y 6351   3.206   1.686   9.224 -1.9072 -0.3187 -2.0286
   72SLPC  C311 6352   3.164   1.524   9.084  0.1996 -0.4385  0.1032
   72SLPC  H11X 6353   3.080   1.488   9.148  0.1625 -0.7829 -0.1319
   72SLPC  H11Y 6354   3.217   1.437   9.039  2.4098 -0.0348  1.7572
   72SLPC  C312 6355   3.124   1.606   8.962 -0.2711  0.7755  0.4603
   72SLPC  H12X 6356   3.075   1.537   8.891  1.5202 -0.2680  0.1882
   72SLPC  H12Y 6357   3.209   1.650   8.907  0.6790 -1.0449  0.4258
   72SLPC  C313 6358   3.023   1.716   9.007  0.1152 -0.6703 -0.0399
   72SLPC  H13X 6359   3.063   1.782   9.087 -0.2901  0.2495 -0.5750
   72SLPC  H13Y 6360   2.935   1.665   9.052 -0.2368  0.8386  1.0627
   72SLPC  C314 6361   2.968   1.800   8.891  0.0058  0.6582 -0.5185
   72SLPC  H14X 6362   2.859   1.808   8.908  0.0785  0.0071  0.3654
   72SLPC  H14Y 6363   2.970   1.721   8.813 -0.0325  1.8923 -1.7872
   72SLPC  C315 6364   3.044   1.925   8.850  0.3899 -0.0939 -0.7579
   72SLPC  H15X 6365   3.012   1.956   8.748  0.6713 -2.3080 -1.5639
   72SLPC  H15Y 6366   3.152   1.901   8.846  1.3731  3.1358  1.8059
   72SLPC  C316 6367   3.018   2.046   8.945 -0.8043 -0.1481 -0.2522
   72SLPC  H16X 6368   3.079   2.130   8.905 -0.7181  0.7391  1.6060
   72SLPC  H16Y 6369   3.041   2.031   9.053 -1.1278 -0.0158 -0.1623
   72SLPC  C317 6370   2.869   2.077   8.958 -0.6023 -0.2701 -0.3172
   72SLPC  H17X 6371   2.860   2.168   9.021  1.1428 -0.8019  0.7578
   72SLPC  H17Y 6372   2.823   1.991   9.010 -0.7358  0.1564  0.2780
   72SLPC  C318 6373   2.801   2.110   8.827  0.1806  0.3399  0.0027
   72SLPC  H18X 6374   2.857   2.190   8.773  1.7853 -0.6937  0.0817
   72SLPC  H18Y 6375   2.697   2.142   8.849 -0.5521 -1.5737 -0.4801
   72SLPC  H18Z 6376   2.800   2.014   8.771  0.8674  0.6756 -0.6197
   73SLPC     N 6377   4.512   5.030  10.694  0.2378  0.4625 -0.0800
   73SLPC   C13 6378   4.657   4.994  10.688 -0.1107 -1.1943  0.0926
   73SLPC  H13A 6379   4.693   4.984  10.587 -0.7888  0.3181 -0.3134
   73SLPC  H13B 6380   4.718   5.060  10.748 -1.8087  0.2864  0.2539
   73SLPC  H13C 6381   4.672   4.903  10.745  1.2855  0.0967  1.9039
   73SLPC   C14 6382   4.430   4.916  10.635 -0.5055  0.2531 -0.3002
   73SLPC  H14A 6383   4.444   4.819  10.680  0.9670  0.2431 -0.7355
   73SLPC  H14B 6384   4.330   4.954  10.647 -0.8883 -0.3476 -1.4102
   73SLPC  H14C 6385   4.446   4.903  10.529 -0.2976 -1.3061 -0.1044
   73SLPC   C15 6386   4.495   5.158  10.615  0.2874 -0.4472  0.2755
   73SLPC  H15A 6387   4.502   5.143  10.509 -2.6510  0.1275 -0.0859
   73SLPC  H15B 6388   4.400   5.209  10.624  1.6057  2.1579  0.1295
   73SLPC  H15C 6389   4.564   5.234  10.648 -1.8985  0.4714  3.2361
   73SLPC   C12 6390   4.463   5.050  10.835 -0.4046  0.1342 -0.5954
   73SLPC  H12A 6391   4.530   5.122  10.880  0.9111 -2.4195  1.7602
   73SLPC  H12B 6392   4.469   4.956  10.887 -2.0727 -0.8402 -2.0452
   73SLPC   C11 6393   4.320   5.098  10.853 -0.0859 -0.6190 -0.2229
   73SLPC  H11A 6394   4.292   5.169  10.772  0.2250 -1.8336 -1.4368
   73SLPC  H11B 6395   4.313   5.154  10.949 -1.6174 -1.3495  0.1184
   73SLPC     P 6396   4.082   5.006  10.886  0.2403 -0.0645  0.1032
   73SLPC   O13 6397   4.034   4.866  10.893  0.3924 -0.3105  0.0377
   73SLPC   O14 6398   4.086   5.084  11.010 -0.0512 -0.2650 -0.2115
   73SLPC   O12 6399   4.231   4.989  10.845  0.1331  0.4079  0.0136
   73SLPC   O11 6400   4.012   5.092  10.772 -0.4448  0.1016 -0.1859
   73SLPC    C1 6401   4.041   5.063  10.631 -0.2786 -0.2023  0.1676
   73SLPC    HA 6402   4.150   5.048  10.613 -0.1346 -0.1372  0.9491
   73SLPC    HB 6403   3.991   4.969  10.599  2.3048 -2.0999  1.3375
   73SLPC    C2 6404   4.008   5.180  10.532  0.9646 -0.4704  1.3662
   73SLPC    HS 6405   3.902   5.178  10.499  1.4969  1.8691 -0.8700
   73SLPC   O21 6406   4.101   5.161  10.420  0.1334 -0.8575 -0.1277
   73SLPC   C21 6407   4.055   5.075  10.326  0.4597 -0.6379 -0.1302
   73SLPC   O22 6408   3.952   5.008  10.339  0.2357 -0.8199  0.2297
   73SLPC   C22 6409   4.151   5.066  10.212 -0.1378 -0.2577 -0.8486
   73SLPC   H2R 6410   4.251   5.098  10.249 -0.6176 -1.9790  2.2485
   73SLPC   H2S 6411   4.157   4.956  10.194  0.9890 -0.0266 -2.0914
   73SLPC    C3 6412   4.026   5.322  10.588 -0.1653 -0.4653 -0.2585
   73SLPC    HX 6413   4.130   5.316  10.627 -0.7861 -1.7808  1.3217
   73SLPC    HY 6414   3.962   5.330  10.678  0.1272  1.7230 -0.2004
   73SLPC   O31 6415   3.991   5.419  10.493  0.2165 -0.1676 -0.2625
   73SLPC   C31 6416   3.870   5.456  10.482  0.6177 -0.1521 -0.8070
   73SLPC   O32 6417   3.775   5.411  10.550 -0.1940 -0.5947  0.0727
   73SLPC   C32 6418   3.872   5.571  10.386  0.6113 -0.3833 -0.1125
   73SLPC   H2X 6419   3.950   5.558  10.308 -0.8090  0.0883 -1.6749
   73SLPC   H2Y 6420   3.887   5.671  10.432 -0.6527  1.6473 -3.7354
   73SLPC   C23 6421   4.102   5.147  10.093  0.9281  0.0774  0.2720
   73SLPC   H3R 6422   4.142   5.250  10.095 -0.0769  0.5364 -1.2582
   73SLPC   H3S 6423   3.993   5.163  10.078  1.2492  2.0436 -0.1699
   73SLPC   C24 6424   4.156   5.094   9.960 -0.4370 -0.1048 -1.2200
   73SLPC   H4R 6425   4.132   4.985   9.960  2.6564 -0.8897  0.2041
   73SLPC   H4S 6426   4.267   5.097   9.950 -0.2397  0.0210  0.5523
   73SLPC   C25 6427   4.088   5.172   9.839 -0.2274  0.0895 -0.4136
   73SLPC   H5R 6428   4.089   5.281   9.862  0.3535  0.6924 -2.9051
   73SLPC   H5S 6429   3.983   5.136   9.834  0.7145 -3.0615  0.3032
   73SLPC   C26 6430   4.163   5.156   9.712 -0.5776 -0.1787  0.3827
   73SLPC   H6R 6431   4.270   5.127   9.722  0.2823  2.3489 -0.8107
   73SLPC   H6S 6432   4.165   5.243   9.644  1.8874 -2.3191 -2.5332
   73SLPC   C27 6433   4.105   5.049   9.613  0.2236  0.3120  0.0388
   73SLPC   H7R 6434   4.087   4.958   9.675  2.0743 -0.3139 -0.2853
   73SLPC   H7S 6435   4.190   5.020   9.547 -0.1719  0.8776 -0.7390
   73SLPC   C28 6436   3.992   5.080   9.519  0.7419 -0.4351 -0.2066
   73SLPC   H8R 6437   3.916   5.133   9.581  0.0237  0.2773 -1.6495
   73SLPC   H8S 6438   3.942   4.986   9.486  0.7386 -0.8359  0.8809
   73SLPC   C29 6439   4.040   5.163   9.405 -0.5232  0.5242  0.5624
   73SLPC   H9R 6440   4.060   5.270   9.421 -0.3802  0.4454  0.9285
   73SLPC  C210 6441   4.036   5.127   9.273 -0.2382 -0.0926 -0.7768
   73SLPC  H10R 6442   4.073   5.196   9.195  0.4024  0.5370  0.0613
   73SLPC  C211 6443   3.990   4.989   9.231 -0.0180 -0.8022 -0.3092
   73SLPC  H11R 6444   4.005   4.913   9.310 -2.0621  0.2216  1.1498
   73SLPC  H11S 6445   4.071   4.962   9.159 -0.4295  1.5054 -1.7507
   73SLPC  C212 6446   3.856   4.979   9.159 -1.2099  0.3295  0.3103
   73SLPC  H12R 6447   3.774   4.946   9.224 -0.6451 -0.2848  0.7203
   73SLPC  C213 6448   3.822   5.015   9.034 -0.1106 -0.1417 -0.1028
   73SLPC  H13R 6449   3.737   4.968   8.984 -0.0006 -2.8838  2.0187
   73SLPC  C214 6450   3.910   5.083   8.928  0.4963  0.7421  0.6294
   73SLPC  H14R 6451   3.966   5.170   8.968  0.5194  0.0395  2.1638
   73SLPC  H14S 6452   3.845   5.127   8.848  0.9286 -0.5603 -0.4812
   73SLPC  C215 6453   4.008   4.986   8.858  0.2415  0.2605  0.2564
   73SLPC  H15R 6454   3.946   4.897   8.836  1.2243 -0.0919 -1.2220
   73SLPC  H15S 6455   4.099   4.958   8.915  0.2521 -1.8418 -0.7001
   73SLPC  C216 6456   4.062   5.049   8.725  0.0563 -0.7888 -0.1322
   73SLPC  H16R 6457   4.080   5.155   8.754  1.1859 -0.7074 -1.0728
   73SLPC  H16S 6458   3.973   5.057   8.658 -1.1195 -1.6970  1.2560
   73SLPC  C217 6459   4.182   4.980   8.666 -0.5897 -0.3624 -0.4664
   73SLPC  H17R 6460   4.238   4.923   8.744  0.2485  0.7966 -0.1887
   73SLPC  H17S 6461   4.251   5.063   8.639 -1.0679  0.4827  0.8231
   73SLPC  C218 6462   4.156   4.889   8.547  0.4006  0.4792  0.2307
   73SLPC  H18R 6463   4.091   4.939   8.472  0.5082 -0.8741 -0.8063
   73SLPC  H18S 6464   4.107   4.795   8.580 -1.3299 -0.1165 -3.4329
   73SLPC  H18T 6465   4.255   4.865   8.503  0.4860 -1.5024  1.4078
   73SLPC   C33 6466   3.738   5.569  10.302 -0.0811  0.0310 -0.3155
   73SLPC   H3X 6467   3.659   5.627  10.354  1.6678  0.8057  1.6160
   73SLPC   H3Y 6468   3.693   5.470  10.281  0.6397 -0.9800  2.4938
   73SLPC   C34 6469   3.752   5.647  10.173  0.0854 -0.0972  0.4917
   73SLPC   H4X 6470   3.851   5.625  10.127 -0.4959 -1.4423 -0.1760
   73SLPC   H4Y 6471   3.764   5.752  10.205  0.6976  0.4066 -1.2638
   73SLPC   C35 6472   3.633   5.638  10.083  0.3165 -0.3173  0.3275
   73SLPC   H5X 6473   3.604   5.732  10.030 -2.0183  0.0311  2.0648
   73SLPC   H5Y 6474   3.541   5.607  10.137 -0.1431 -0.9996 -0.8062
   73SLPC   C36 6475   3.660   5.535   9.966  0.3748  0.6441  0.2729
   73SLPC   H6X 6476   3.704   5.443  10.011  1.2995  1.0466  0.2279
   73SLPC   H6Y 6477   3.743   5.579   9.906  1.8589 -1.6114  0.5404
   73SLPC   C37 6478   3.542   5.525   9.871  0.8428 -0.4658  0.3126
   73SLPC   H7X 6479   3.508   5.630   9.853 -0.0343 -1.0457 -1.6668
   73SLPC   H7Y 6480   3.467   5.465   9.926 -0.2540 -0.3389 -0.9775
   73SLPC   C38 6481   3.563   5.444   9.745 -0.1972  0.0746  0.1939
   73SLPC   H8X 6482   3.466   5.423   9.695 -0.8353  1.1502  0.9422
   73SLPC   H8Y 6483   3.599   5.346   9.782 -0.3011 -0.2664 -0.5726
   73SLPC   C39 6484   3.668   5.496   9.651  0.6672 -0.5269 -0.2880
   73SLPC   H9X 6485   3.762   5.504   9.711  1.5220  2.9983 -1.8576
   73SLPC   H9Y 6486   3.647   5.602   9.625  2.3994 -0.7509 -2.9842
   73SLPC  C310 6487   3.702   5.431   9.515 -0.6928 -0.4499  0.3421
   73SLPC  H10X 6488   3.610   5.439   9.454 -1.1684  1.8527  1.2662
   73SLPC  H10Y 6489   3.723   5.329   9.554 -1.1060 -0.5638  0.2668
   73SLPC  C311 6490   3.826   5.491   9.440  0.6556  0.6069  0.0161
   73SLPC  H11X 6491   3.917   5.450   9.489 -0.7674  0.2773  2.5248
   73SLPC  H11Y 6492   3.819   5.601   9.450 -1.9861  0.6038 -0.9793
   73SLPC  C312 6493   3.839   5.439   9.297  0.0223  0.4110  0.2138
   73SLPC  H12X 6494   3.823   5.329   9.296 -1.1143  0.5398  1.7695
   73SLPC  H12Y 6495   3.944   5.470   9.276  0.1600  1.0306  1.6713
   73SLPC  C313 6496   3.741   5.509   9.210 -0.6941  0.2528 -0.2019
   73SLPC  H13X 6497   3.745   5.616   9.239 -1.3982  0.0077  0.8390
   73SLPC  H13Y 6498   3.643   5.467   9.240  0.1134 -1.1731  0.5462
   73SLPC  C314 6499   3.761   5.490   9.057 -0.4748 -1.0316 -0.9458
   73SLPC  H14X 6500   3.755   5.382   9.030 -1.5585 -1.2350  0.0428
   73SLPC  H14Y 6501   3.862   5.526   9.027 -1.0065  0.5985 -0.8609
   73SLPC  C315 6502   3.647   5.557   8.968 -0.7067  0.4541 -0.2963
   73SLPC  H15X 6503   3.636   5.663   9.000 -1.0977  0.2833  0.1342
   73SLPC  H15Y 6504   3.550   5.511   8.995 -1.3808  1.8275 -0.2621
   73SLPC  C316 6505   3.682   5.555   8.820 -0.6093 -0.1490 -0.0366
   73SLPC  H16X 6506   3.705   5.449   8.795 -1.2489 -0.2281 -0.3388
   73SLPC  H16Y 6507   3.776   5.607   8.792  0.8745 -2.7386 -0.1422
   73SLPC  C317 6508   3.565   5.614   8.736 -0.5777 -0.2450 -0.2528
   73SLPC  H17X 6509   3.545   5.720   8.762  1.4008  0.3360 -0.9066
   73SLPC  H17Y 6510   3.476   5.555   8.765 -0.1257 -1.1998 -0.7596
   73SLPC  C318 6511   3.588   5.602   8.585  0.3046  0.6031 -0.1128
   73SLPC  H18X 6512   3.575   5.497   8.551  2.0395  0.7642 -1.4334
   73SLPC  H18Y 6513   3.688   5.639   8.553  1.5479 -2.7060 -0.4943
   73SLPC  H18Z 6514   3.507   5.660   8.535 -1.3540 -0.3571  1.3528
   74SLPC     N 6515   4.103   0.741  10.543 -0.6693  0.1284 -0.3554
   74SLPC   C13 6516   4.023   0.787  10.662 -0.9231 -0.0282 -0.3804
   74SLPC  H13A 6517   4.096   0.830  10.729  1.2912 -0.1068 -2.5821
   74SLPC  H13B 6518   3.935   0.841  10.632 -0.9389  0.4410  0.5112
   74SLPC  H13C 6519   3.981   0.704  10.716  2.2674 -2.1338 -0.8106
   74SLPC   C14 6520   4.149   0.857  10.463  0.4594 -0.4028 -0.0050
   74SLPC  H14A 6521   4.203   0.927  10.526  0.3724 -0.3713  0.0347
   74SLPC  H14B 6522   4.208   0.834  10.376 -1.4021 -0.1280 -1.4103
   74SLPC  H14C 6523   4.058   0.909  10.440  1.3067  0.3202 -1.8769
   74SLPC   C15 6524   4.028   0.653  10.457  0.6596  0.9716  0.2876
   74SLPC  H15A 6525   3.928   0.689  10.435  0.0898 -0.5928  0.1208
   74SLPC  H15B 6526   4.079   0.632  10.364  0.5122  0.8830  0.2256
   74SLPC  H15C 6527   4.012   0.552  10.493  0.9001 -0.1746 -2.5865
   74SLPC   C12 6528   4.228   0.674  10.598 -0.2312 -0.3324  0.6403
   74SLPC  H12A 6529   4.291   0.741  10.656  2.5146 -1.6884 -0.6012
   74SLPC  H12B 6530   4.294   0.655  10.514  0.6103 -0.0494  1.2248
   74SLPC   C11 6531   4.220   0.541  10.667  0.2696  0.1215  0.3360
   74SLPC  H11A 6532   4.151   0.550  10.754 -0.5318  0.4776 -0.3260
   74SLPC  H11B 6533   4.317   0.521  10.718  0.9448 -2.2041 -1.6849
   74SLPC     P 6534   4.275   0.340  10.505  0.2499 -0.1506 -0.0149
   74SLPC   O13 6535   4.350   0.411  10.401 -0.4800  0.2602 -0.2313
   74SLPC   O14 6536   4.352   0.285  10.619  0.2265  0.2347  0.4019
   74SLPC   O12 6537   4.174   0.440  10.576  0.0084 -0.3132 -0.1139
   74SLPC   O11 6538   4.184   0.224  10.447  0.0931 -0.6373  0.1395
   74SLPC    C1 6539   4.046   0.251  10.414  1.3846 -0.4826 -0.4487
   74SLPC    HA 6540   3.975   0.182  10.464  2.4714 -1.8042 -0.6608
   74SLPC    HB 6541   4.008   0.352  10.437 -0.8761 -0.9301 -1.9020
   74SLPC    C2 6542   4.034   0.231  10.257 -0.4711  0.8191  0.2289
   74SLPC    HS 6543   4.051   0.123  10.239  0.8355  1.3889 -2.4918
   74SLPC   O21 6544   4.127   0.309  10.187 -0.2166  0.0195  0.0871
   74SLPC   C21 6545   4.250   0.262  10.149  0.1000  0.4105  0.3814
   74SLPC   O22 6546   4.292   0.150  10.177 -0.1789 -0.4721 -0.1331
   74SLPC   C22 6547   4.331   0.367  10.083  0.3330  0.2539 -0.5366
   74SLPC   H2R 6548   4.328   0.457  10.149 -1.1591 -0.9631  1.1728
   74SLPC   H2S 6549   4.428   0.313  10.085 -0.2315 -0.7960 -0.7345
   74SLPC    C3 6550   3.896   0.259  10.201  0.0096  0.2943  0.0549
   74SLPC    HX 6551   3.890   0.369  10.188  1.1207  0.2804 -0.7585
   74SLPC    HY 6552   3.817   0.233  10.274  0.2154  0.3897  0.3144
   74SLPC   O31 6553   3.873   0.182  10.078  0.3412 -0.0017  0.0522
   74SLPC   C31 6554   3.757   0.206  10.020 -0.3993 -0.1283 -0.7819
   74SLPC   O32 6555   3.663   0.266  10.067  0.2356  0.4552  0.4439
   74SLPC   C32 6556   3.766   0.136   9.881  1.1052 -0.0821  0.0206
   74SLPC   H2X 6557   3.674   0.075   9.872  0.2804  0.7854  1.9856
   74SLPC   H2Y 6558   3.851   0.065   9.878  1.0505 -0.1649  0.4842
   74SLPC   C23 6559   4.290   0.391   9.935  0.5303  0.5775 -0.0528
   74SLPC   H3R 6560   4.341   0.483   9.899  1.3170 -1.0805 -3.6188
   74SLPC   H3S 6561   4.183   0.419   9.923  0.2184 -0.0735  1.0780
   74SLPC   C24 6562   4.347   0.296   9.829 -1.3305  0.2208  0.5197
   74SLPC   H4R 6563   4.282   0.205   9.826 -0.4771 -0.3842  0.2442
   74SLPC   H4S 6564   4.448   0.266   9.863 -1.4042 -0.0345  0.5182
   74SLPC   C25 6565   4.357   0.355   9.690  0.1105 -0.4291  0.5008
   74SLPC   H5R 6566   4.401   0.275   9.626 -1.3568 -1.5062  0.8004
   74SLPC   H5S 6567   4.444   0.423   9.701  0.9607 -1.5654  0.9404
   74SLPC   C26 6568   4.228   0.405   9.619 -0.4537  0.7515  0.0931
   74SLPC   H6R 6569   4.188   0.485   9.685 -3.4835 -0.3797 -0.2304
   74SLPC   H6S 6570   4.159   0.318   9.623  1.7849 -1.1408 -0.0827
   74SLPC   C27 6571   4.261   0.449   9.469 -0.7589  0.1451  0.0610
   74SLPC   H7R 6572   4.358   0.504   9.468 -0.9555  0.4889 -0.4755
   74SLPC   H7S 6573   4.185   0.518   9.426 -0.7652 -0.4207 -0.8444
   74SLPC   C28 6574   4.277   0.334   9.361 -0.2865  0.0079  0.8378
   74SLPC   H8R 6575   4.181   0.277   9.363 -0.2676 -0.0397  0.3778
   74SLPC   H8S 6576   4.360   0.262   9.377  0.4011  0.7869  0.8508
   74SLPC   C29 6577   4.302   0.396   9.222  0.4605  0.1733 -0.5222
   74SLPC   H9R 6578   4.328   0.502   9.218 -0.6072  0.4138 -1.5489
   74SLPC  C210 6579   4.297   0.332   9.107 -0.4054  0.3281  0.9173
   74SLPC  H10R 6580   4.325   0.385   9.015  2.0843 -0.5803  1.0760
   74SLPC  C211 6581   4.264   0.187   9.091 -0.1987  1.2134  0.5257
   74SLPC  H11R 6582   4.193   0.179   9.007  0.0290 -0.4599  0.4650
   74SLPC  H11S 6583   4.221   0.143   9.184  0.8569  1.0999  0.9775
   74SLPC  C212 6584   4.386   0.105   9.051 -0.0912 -0.1823 -0.4732
   74SLPC  H12R 6585   4.467   0.127   9.123 -2.0916  4.2971  0.7315
   74SLPC  C213 6586   4.407   0.019   8.946 -0.6301 -0.0871  0.4036
   74SLPC  H13R 6587   4.493  -0.050   8.942 -0.0561  0.5365  1.6119
   74SLPC  C214 6588   4.296  -0.012   8.847  0.3891 -0.1926  0.2890
   74SLPC  H14R 6589   4.196   0.024   8.878  0.3266 -0.1762  0.0641
   74SLPC  H14S 6590   4.289  -0.122   8.838  2.7542 -0.3530 -0.3834
   74SLPC  C215 6591   4.332   0.032   8.706 -0.5023 -0.9399  1.0596
   74SLPC  H15R 6592   4.263  -0.017   8.635  0.8877 -1.5937  0.1205
   74SLPC  H15S 6593   4.432  -0.008   8.678 -0.0727  0.0022  1.2169
   74SLPC  C216 6594   4.330   0.181   8.690  0.4568 -0.5872  0.3539
   74SLPC  H16R 6595   4.381   0.226   8.778  0.9611  0.6079 -0.5083
   74SLPC  H16S 6596   4.227   0.224   8.689  0.9056  0.5421  0.5182
   74SLPC  C217 6597   4.410   0.225   8.568 -0.6383  0.3486  0.1296
   74SLPC  H17R 6598   4.374   0.178   8.475  0.7239 -2.3100  0.8279
   74SLPC  H17S 6599   4.516   0.193   8.579 -1.2915 -1.6033  1.4011
   74SLPC  C218 6600   4.413   0.373   8.554 -0.2383  0.1938 -0.9806
   74SLPC  H18R 6601   4.309   0.411   8.561 -0.1462  0.1256  2.6113
   74SLPC  H18S 6602   4.463   0.408   8.461  0.2453  2.0596 -0.0615
   74SLPC  H18T 6603   4.473   0.417   8.637  0.4461 -4.5644  1.4362
   74SLPC   C33 6604   3.784   0.237   9.761 -0.0122 -0.4637 -0.1825
   74SLPC   H3X 6605   3.872   0.302   9.776 -0.2499 -0.1814  0.0097
   74SLPC   H3Y 6606   3.704   0.314   9.758  1.1474  0.7662 -0.4947
   74SLPC   C34 6607   3.799   0.153   9.626  0.2648 -0.5852  0.4331
   74SLPC   H4X 6608   3.709   0.089   9.614  0.4382 -1.4076  2.8989
   74SLPC   H4Y 6609   3.898   0.103   9.623 -0.3224 -1.7309 -2.5407
   74SLPC   C35 6610   3.795   0.241   9.498  0.1442  0.8859 -0.0120
   74SLPC   H5X 6611   3.888   0.302   9.500  0.9688 -0.3128 -0.2863
   74SLPC   H5Y 6612   3.705   0.304   9.515 -0.1130 -0.3194  3.9158
   74SLPC   C36 6613   3.791   0.164   9.366  0.1060 -0.0390 -0.1731
   74SLPC   H6X 6614   3.689   0.131   9.340  0.1004 -0.8232  0.7879
   74SLPC   H6Y 6615   3.846   0.068   9.379 -1.6111 -1.0596 -0.1971
   74SLPC   C37 6616   3.830   0.254   9.252 -0.1549  0.0439 -0.3773
   74SLPC   H7X 6617   3.927   0.300   9.282  0.7212 -2.3646  0.7768
   74SLPC   H7Y 6618   3.755   0.330   9.226 -0.0123  0.3766  0.1648
   74SLPC   C38 6619   3.853   0.172   9.120 -0.9588  0.4590 -0.7819
   74SLPC   H8X 6620   3.752   0.129   9.100 -1.3418  1.1101 -0.3132
   74SLPC   H8Y 6621   3.930   0.093   9.133  0.7094  1.7363 -2.4401
   74SLPC   C39 6622   3.889   0.267   9.013  0.0769 -0.1428 -0.4282
   74SLPC   H9X 6623   3.982   0.316   9.049 -0.8863  1.3202  0.1243
   74SLPC   H9Y 6624   3.810   0.343   8.999  0.4588  0.4963  0.7801
   74SLPC  C310 6625   3.908   0.204   8.873 -0.2239 -0.5521  0.1907
   74SLPC  H10X 6626   3.989   0.129   8.882  0.0270 -0.3892 -0.6223
   74SLPC  H10Y 6627   3.944   0.286   8.807  1.4245 -2.3130 -1.1832
   74SLPC  C311 6628   3.784   0.138   8.813  0.2412  0.1362 -0.3884
   74SLPC  H11X 6629   3.697   0.195   8.853 -0.9937 -2.0882  0.2699
   74SLPC  H11Y 6630   3.785   0.033   8.850  4.6857 -1.2902 -3.7715
   74SLPC  C312 6631   3.800   0.130   8.663  0.1179 -0.1612  0.1147
   74SLPC  H12X 6632   3.801   0.233   8.623 -0.4411  0.7602  2.3142
   74SLPC  H12Y 6633   3.703   0.088   8.630  0.4471 -0.4771 -0.4829
   74SLPC  C313 6634   3.920   0.044   8.617 -0.6028 -0.3490  0.1611
   74SLPC  H13X 6635   3.942  -0.047   8.677 -0.2068 -1.4664 -1.5887
   74SLPC  H13Y 6636   4.011   0.108   8.614  0.0337 -1.2504 -0.2489
   74SLPC  C314 6637   3.901  -0.019   8.474  0.4844  0.1001  0.2327
   74SLPC  H14X 6638   4.001  -0.017   8.424  1.8442  0.9540  2.7933
   74SLPC  H14Y 6639   3.832   0.043   8.413  1.4525  1.3306  0.3412
   74SLPC  C315 6640   3.839  -0.157   8.488 -0.5926  0.9424  0.0771
   74SLPC  H15X 6641   3.800  -0.182   8.387  0.6202 -0.5410 -0.0596
   74SLPC  H15Y 6642   3.753  -0.145   8.557 -0.1193  1.4550  0.5913
   74SLPC  C316 6643   3.942  -0.267   8.527  0.3383 -0.0092 -0.4015
   74SLPC  H16X 6644   3.912  -0.306   8.626  0.0330  1.3547  0.0684
   74SLPC  H16Y 6645   4.049  -0.236   8.526  0.8392 -1.6058 -1.5911
   74SLPC  C317 6646   3.941  -0.386   8.417  0.3493 -0.2183  0.9395
   74SLPC  H17X 6647   4.016  -0.461   8.452  0.2153 -0.3283  0.9907
   74SLPC  H17Y 6648   3.987  -0.345   8.325 -0.7829 -0.7505  0.1141
   74SLPC  C318 6649   3.802  -0.451   8.384  0.2659  0.6706 -0.1587
   74SLPC  H18X 6650   3.777  -0.436   8.277  1.9111 -0.9778 -0.8321
   74SLPC  H18Y 6651   3.722  -0.411   8.450  0.6440  1.7176 -0.3178
   74SLPC  H18Z 6652   3.797  -0.560   8.408 -1.6938 -0.0218 -3.1412
   75SLPC     N 6653   0.749   2.645   6.300 -0.0354  0.3913 -0.6896
   75SLPC   C13 6654   0.821   2.653   6.168  0.0311  0.9672  0.3076
   75SLPC  H13A 6655   0.815   2.558   6.117 -0.9641  0.9124  0.5117
   75SLPC  H13B 6656   0.779   2.728   6.103 -1.1843 -0.9084 -1.1758
   75SLPC  H13C 6657   0.928   2.662   6.180  0.0945  0.1863  0.3984
   75SLPC   C14 6658   0.784   2.517   6.370  0.1418 -0.3698  0.6256
   75SLPC  H14A 6659   0.706   2.498   6.442  1.7262 -0.9377  2.2735
   75SLPC  H14B 6660   0.783   2.435   6.300  0.5521 -0.2812  0.5118
   75SLPC  H14C 6661   0.883   2.507   6.414 -0.2833  0.2951  1.7679
   75SLPC   C15 6662   0.604   2.627   6.271 -0.2840 -0.5183  0.1221
   75SLPC  H15A 6663   0.548   2.655   6.358 -0.2356 -0.0241 -0.0056
   75SLPC  H15B 6664   0.570   2.692   6.192 -0.5476  0.8085  1.3027
   75SLPC  H15C 6665   0.584   2.524   6.244 -0.3022 -0.4142 -0.2737
   75SLPC   C12 6666   0.789   2.765   6.393 -0.1072 -0.0323 -1.3158
   75SLPC  H12A 6667   0.782   2.859   6.340 -1.2277  1.8265  1.8807
   75SLPC  H12B 6668   0.893   2.748   6.417 -0.0702 -0.3491 -1.6801
   75SLPC   C11 6669   0.703   2.774   6.526 -0.2483 -0.4225  0.3370
   75SLPC  H11A 6670   0.742   2.857   6.590 -1.1994 -1.3815  2.2277
   75SLPC  H11B 6671   0.713   2.680   6.583  0.2494 -0.1497  0.7093
   75SLPC     P 6672   0.495   2.918   6.436  0.1554 -0.1667 -0.0561
   75SLPC   O13 6673   0.597   3.004   6.376 -0.0715 -0.2086  0.2711
   75SLPC   O14 6674   0.380   2.874   6.351  0.5321 -0.0362 -0.3329
   75SLPC   O12 6675   0.557   2.787   6.498  0.2853 -0.6355  0.0442
   75SLPC   O11 6676   0.433   3.004   6.555 -0.1073  0.1662  0.6152
   75SLPC    C1 6677   0.319   2.959   6.630 -0.0431 -0.8918 -0.5594
   75SLPC    HA 6678   0.230   3.011   6.590  1.3315 -0.4081 -3.1923
   75SLPC    HB 6679   0.303   2.851   6.612 -2.4241 -0.3583 -1.9954
   75SLPC    C2 6680   0.333   2.986   6.787  0.3267 -0.1236  0.2257
   75SLPC    HS 6681   0.288   2.899   6.840  1.3499  0.3395  1.9538
   75SLPC   O21 6682   0.271   3.118   6.822 -0.6876 -0.7124  0.2752
   75SLPC   C21 6683   0.146   3.106   6.846  0.9022 -0.5344 -0.2039
   75SLPC   O22 6684   0.081   3.001   6.832 -0.3268 -0.4343 -0.0833
   75SLPC   C22 6685   0.105   3.240   6.901  0.4638  0.1359 -0.1619
   75SLPC   H2R 6686   0.102   3.312   6.815 -1.0037  1.8091  1.2044
   75SLPC   H2S 6687   0.004   3.229   6.946  1.0692  1.4284  1.6581
   75SLPC    C3 6688   0.489   2.986   6.826  0.7515 -0.7768 -0.1932
   75SLPC    HX 6689   0.539   3.067   6.770  0.7822 -0.0636  0.8392
   75SLPC    HY 6690   0.522   2.883   6.801  0.0757 -1.9402  3.1141
   75SLPC   O31 6691   0.506   3.014   6.971  0.0907 -0.2012  0.8285
   75SLPC   C31 6692   0.490   2.910   7.048 -0.1883  0.2385 -0.1512
   75SLPC   O32 6693   0.457   2.799   7.011 -0.0216 -0.0972  0.5457
   75SLPC   C32 6694   0.513   2.960   7.188 -0.3037 -0.2334 -0.1184
   75SLPC   H2X 6695   0.441   3.037   7.222  1.4901  1.4383  0.0673
   75SLPC   H2Y 6696   0.615   3.005   7.188 -1.1691  1.8636 -0.6302
   75SLPC   C23 6697   0.203   3.277   7.015 -0.3544 -0.5484 -0.1714
   75SLPC   H3R 6698   0.307   3.293   6.980 -0.4006 -2.8696 -1.5906
   75SLPC   H3S 6699   0.215   3.194   7.087  0.8757  0.2419  0.5698
   75SLPC   C24 6700   0.149   3.398   7.090 -0.8043  0.5875 -0.3329
   75SLPC   H4R 6701   0.097   3.468   7.021 -2.8004  0.9176  1.3877
   75SLPC   H4S 6702   0.229   3.457   7.139 -1.0839  0.4804  0.2669
   75SLPC   C25 6703   0.053   3.357   7.206 -0.0862  0.3669  0.0796
   75SLPC   H5R 6704   0.110   3.284   7.267 -0.3246  0.3959  0.3373
   75SLPC   H5S 6705  -0.044   3.320   7.165 -1.8542  3.5669  1.0766
   75SLPC   C26 6706   0.030   3.473   7.301  0.1485 -0.3712  0.1316
   75SLPC   H6R 6707  -0.011   3.548   7.229  1.4843 -0.3927 -0.6870
   75SLPC   H6S 6708   0.126   3.509   7.344  1.5438 -4.1233  0.5156
   75SLPC   C27 6709  -0.077   3.443   7.396  0.1447  0.1327  0.0893
   75SLPC   H7R 6710  -0.054   3.346   7.446 -1.6953  0.2785  1.3043
   75SLPC   H7S 6711  -0.178   3.430   7.353  0.7429  1.4771 -1.8601
   75SLPC   C28 6712  -0.096   3.554   7.501 -0.0510 -0.0436  0.2807
   75SLPC   H8R 6713  -0.194   3.549   7.554  0.1870  1.5638  0.9379
   75SLPC   H8S 6714  -0.097   3.653   7.451 -0.4023  0.5304  1.3711
   75SLPC   C29 6715   0.007   3.554   7.610 -0.8189  0.1303  0.4519
   75SLPC   H9R 6716   0.094   3.612   7.576  0.6399 -2.1808  0.0560
   75SLPC  C210 6717   0.002   3.497   7.734 -0.4959  0.0477 -0.2141
   75SLPC  H10R 6718   0.084   3.516   7.804  1.0726  1.0847 -2.2047
   75SLPC  C211 6719  -0.111   3.406   7.778  0.5833 -0.2800  0.6614
   75SLPC  H11R 6720  -0.182   3.376   7.698 -0.2074 -0.3942  1.3948
   75SLPC  H11S 6721  -0.188   3.456   7.840 -0.8873 -2.7115  0.9087
   75SLPC  C212 6722  -0.059   3.281   7.853  0.2745 -1.1968  0.8141
   75SLPC  H12R 6723  -0.024   3.318   7.951 -1.0704  1.3564  0.4239
   75SLPC  C213 6724  -0.057   3.151   7.812 -0.3334 -0.1122  0.6067
   75SLPC  H13R 6725  -0.039   3.078   7.892  0.8434  2.1346  2.5261
   75SLPC  C214 6726  -0.102   3.087   7.682  0.4281 -0.5317 -0.3587
   75SLPC  H14R 6727  -0.136   3.172   7.620  1.7867  1.2249  1.1862
   75SLPC  H14S 6728  -0.188   3.026   7.718  0.5070 -0.7741 -0.5755
   75SLPC  C215 6729   0.006   3.003   7.608  0.6797 -0.0030 -0.7913
   75SLPC  H15R 6730  -0.045   2.919   7.555 -1.9365  0.4860  0.7525
   75SLPC  H15S 6731   0.071   2.953   7.682  0.5122  0.6571 -0.1882
   75SLPC  C216 6732   0.099   3.078   7.509  0.3818 -0.4832 -0.5840
   75SLPC  H16R 6733   0.167   3.134   7.577  0.8137 -0.3088 -1.1498
   75SLPC  H16S 6734   0.026   3.142   7.455 -1.0570 -1.8576 -0.3199
   75SLPC  C217 6735   0.197   3.001   7.420 -0.2698 -0.0354 -0.1446
   75SLPC  H17R 6736   0.258   2.925   7.473  0.7883 -1.0327 -2.6313
   75SLPC  H17S 6737   0.269   3.074   7.377  1.9981 -1.0370  1.7376
   75SLPC  C218 6738   0.122   2.929   7.303  0.2236  0.2064 -0.5097
   75SLPC  H18R 6739   0.059   2.846   7.341 -0.1597  0.4032 -0.7130
   75SLPC  H18S 6740   0.190   2.881   7.229 -0.0077 -2.1416  0.6691
   75SLPC  H18T 6741   0.053   3.001   7.255  1.1489  0.9652 -0.7248
   75SLPC   C33 6742   0.505   2.849   7.296  0.0448  0.0094  0.4698
   75SLPC   H3X 6743   0.399   2.818   7.288  0.3761 -0.7308 -1.6578
   75SLPC   H3Y 6744   0.570   2.763   7.271 -0.9081 -0.4099 -0.6828
   75SLPC   C34 6745   0.547   2.890   7.438  0.1161  0.4313 -0.9506
   75SLPC   H4X 6746   0.490   2.979   7.472  1.0322  0.3998  0.7989
   75SLPC   H4Y 6747   0.649   2.931   7.450  0.7699 -1.3043 -0.2563
   75SLPC   C35 6748   0.524   2.780   7.539 -0.0684 -0.2914  0.1719
   75SLPC   H5X 6749   0.598   2.700   7.520  1.4903  0.4093  2.7590
   75SLPC   H5Y 6750   0.418   2.756   7.516  0.4163 -1.4165 -0.9992
   75SLPC   C36 6751   0.530   2.827   7.677 -0.4088 -0.8101  0.3144
   75SLPC   H6X 6752   0.462   2.914   7.689  2.0703  1.7232 -2.4774
   75SLPC   H6Y 6753   0.631   2.859   7.708 -0.3062  0.1240 -0.9281
   75SLPC   C37 6754   0.473   2.732   7.781 -0.1759  0.2373  0.4647
   75SLPC   H7X 6755   0.523   2.634   7.771  0.0612  0.4049 -0.0048
   75SLPC   H7Y 6756   0.366   2.705   7.769 -0.7137  2.1392  0.5670
   75SLPC   C38 6757   0.481   2.785   7.929 -0.2046  0.1615 -0.3391
   75SLPC   H8X 6758   0.431   2.884   7.936  0.1356  0.2244  1.9790
   75SLPC   H8Y 6759   0.586   2.814   7.948 -0.2618  0.4332 -0.4323
   75SLPC   C39 6760   0.444   2.687   8.043 -0.7386  0.5466  0.7023
   75SLPC   H9X 6761   0.513   2.600   8.036  1.9431  2.2316  3.3034
   75SLPC   H9Y 6762   0.336   2.664   8.038 -0.8123  0.1434  2.8776
   75SLPC  C310 6763   0.467   2.740   8.188 -0.2723 -0.1983  0.1060
   75SLPC  H10X 6764   0.433   2.846   8.186  2.0092  0.6096 -2.5774
   75SLPC  H10Y 6765   0.576   2.744   8.207 -0.4303  1.2498  0.8357
   75SLPC  C311 6766   0.402   2.647   8.293 -0.5106 -0.1058 -0.4125
   75SLPC  H11X 6767   0.421   2.542   8.263  1.2113 -0.1967  0.8424
   75SLPC  H11Y 6768   0.295   2.675   8.299 -0.3779  0.1321  2.4297
   75SLPC  C312 6769   0.465   2.660   8.436  0.5569  0.2505  0.3048
   75SLPC  H12X 6770   0.445   2.762   8.475 -0.0670  0.4178 -0.4442
   75SLPC  H12Y 6771   0.575   2.665   8.419  0.7358 -1.0179  1.0222
   75SLPC  C313 6772   0.439   2.544   8.527  0.7203  0.2827  0.8276
   75SLPC  H13X 6773   0.462   2.450   8.471 -0.0411  1.3941 -1.4688
   75SLPC  H13Y 6774   0.330   2.539   8.543  0.6135  0.6843  0.2649
   75SLPC  C314 6775   0.514   2.541   8.658  0.1431 -0.1439  0.3406
   75SLPC  H14X 6776   0.457   2.607   8.727  3.0587  1.9724  0.9330
   75SLPC  H14Y 6777   0.619   2.574   8.645  0.2536 -0.5552  0.1606
   75SLPC  C315 6778   0.500   2.404   8.715  0.5962  0.2398  0.3650
   75SLPC  H15X 6779   0.562   2.334   8.655  1.8394  0.6096  1.1761
   75SLPC  H15Y 6780   0.394   2.377   8.696  0.9558 -0.7973 -0.2456
   75SLPC  C316 6781   0.550   2.389   8.855  0.2095  1.0493  0.5761
   75SLPC  H16X 6782   0.469   2.429   8.920 -0.6995  0.7247 -0.3332
   75SLPC  H16Y 6783   0.641   2.452   8.853  1.1371 -0.2240 -2.0674
   75SLPC  C317 6784   0.581   2.246   8.909 -0.3792 -0.5207 -0.4025
   75SLPC  H17X 6785   0.674   2.211   8.859  2.1120  1.8385  2.2229
   75SLPC  H17Y 6786   0.498   2.179   8.877 -0.2776 -1.0983  0.5104
   75SLPC  C318 6787   0.593   2.230   9.057  0.6354  0.0277 -0.4336
   75SLPC  H18X 6788   0.496   2.247   9.106 -0.1334 -2.6962 -0.8464
   75SLPC  H18Y 6789   0.667   2.293   9.111 -0.7436 -0.9473  2.8548
   75SLPC  H18Z 6790   0.612   2.125   9.088 -0.0567 -0.1176 -0.4859
   76SLPC     N 6791   1.345   2.202   6.191  0.3107  0.5228  0.1327
   76SLPC   C13 6792   1.324   2.343   6.230  0.2810 -0.1190 -0.0899
   76SLPC  H13A 6793   1.417   2.397   6.217 -1.2311  2.4530 -0.7358
   76SLPC  H13B 6794   1.234   2.386   6.191 -0.2713  0.6847  1.9424
   76SLPC  H13C 6795   1.317   2.349   6.338  0.1077  0.3495 -0.1260
   76SLPC   C14 6796   1.332   2.211   6.041  0.0929  0.4966 -0.4688
   76SLPC  H14A 6797   1.363   2.118   5.995  0.1627  0.7137 -0.8586
   76SLPC  H14B 6798   1.226   2.216   6.019  0.2392 -0.6129 -1.5486
   76SLPC  H14C 6799   1.396   2.291   6.009 -0.4681  1.3175  0.3905
   76SLPC   C15 6800   1.235   2.108   6.243 -0.5174 -0.7702 -0.1156
   76SLPC  H15A 6801   1.249   2.092   6.349 -2.2060  3.3017  0.8957
   76SLPC  H15B 6802   1.135   2.148   6.238 -0.4049  0.4621  4.2185
   76SLPC  H15C 6803   1.241   2.010   6.197 -0.5184 -0.6382 -0.3959
   76SLPC   C12 6804   1.482   2.156   6.233 -0.2650 -0.1118  0.3521
   76SLPC  H12A 6805   1.562   2.224   6.208  0.0284  0.3705  2.4659
   76SLPC  H12B 6806   1.503   2.066   6.178  2.9697  0.4759  0.4414
   76SLPC   C11 6807   1.508   2.101   6.375 -0.1449 -0.3351 -0.0297
   76SLPC  H11A 6808   1.474   2.181   6.444  0.3185  0.4538 -0.7066
   76SLPC  H11B 6809   1.619   2.091   6.380 -0.1549 -1.6438 -1.7249
   76SLPC     P 6810   1.487   1.852   6.308 -0.1555 -0.1032  0.0453
   76SLPC   O13 6811   1.364   1.802   6.255  0.2264 -0.7570 -0.0192
   76SLPC   O14 6812   1.592   1.881   6.211  0.8907  0.0509  0.5136
   76SLPC   O12 6813   1.446   1.976   6.391  0.0477  0.3166  0.1769
   76SLPC   O11 6814   1.522   1.749   6.413  0.5290 -0.5376 -0.2568
   76SLPC    C1 6815   1.600   1.791   6.524  0.2295 -0.0110  0.6185
   76SLPC    HA 6816   1.669   1.708   6.548 -0.9302 -1.3662 -0.5819
   76SLPC    HB 6817   1.672   1.873   6.505 -1.0939  1.2121  0.6889
   76SLPC    C2 6818   1.516   1.811   6.657  0.0885 -0.0379 -0.3994
   76SLPC    HS 6819   1.475   1.914   6.670 -0.5835 -0.4394  0.8156
   76SLPC   O21 6820   1.609   1.785   6.767  1.0985 -0.1877  0.1839
   76SLPC   C21 6821   1.684   1.884   6.808 -0.7163  0.4074 -0.3268
   76SLPC   O22 6822   1.660   2.001   6.797  0.4312 -0.6650  0.7033
   76SLPC   C22 6823   1.808   1.821   6.878  0.0198 -0.4392  0.3485
   76SLPC   H2R 6824   1.804   1.714   6.847 -0.4214 -0.8688  1.8033
   76SLPC   H2S 6825   1.897   1.873   6.838 -1.9475  1.3084 -2.0179
   76SLPC    C3 6826   1.389   1.718   6.669 -0.1104 -0.6577 -0.1901
   76SLPC    HX 6827   1.416   1.620   6.624  0.7815 -2.2968  3.5817
   76SLPC    HY 6828   1.315   1.759   6.598  0.8956 -0.1818 -1.0042
   76SLPC   O31 6829   1.343   1.712   6.810 -0.1003 -0.0226  0.3251
   76SLPC   C31 6830   1.379   1.611   6.879 -0.3988 -0.3268  0.3647
   76SLPC   O32 6831   1.434   1.508   6.839 -0.3043 -0.4669 -0.1007
   76SLPC   C32 6832   1.351   1.636   7.028  0.1197 -0.8082  0.0104
   76SLPC   H2X 6833   1.244   1.613   7.047  0.1385 -1.0309 -0.1527
   76SLPC   H2Y 6834   1.372   1.740   7.059 -0.8076 -0.5194 -0.3190
   76SLPC   C23 6835   1.822   1.853   7.028  0.5841  0.1473  0.9958
   76SLPC   H3R 6836   1.807   1.961   7.050 -0.3690 -0.1741  2.0172
   76SLPC   H3S 6837   1.927   1.827   7.052  0.9172 -0.2188 -0.7546
   76SLPC   C24 6838   1.736   1.758   7.109  0.6357  0.4057  0.4951
   76SLPC   H4R 6839   1.765   1.652   7.093 -2.3453 -0.1531 -2.2408
   76SLPC   H4S 6840   1.639   1.771   7.057  1.0457  1.2541 -0.0653
   76SLPC   C25 6841   1.721   1.791   7.253 -0.2495 -0.8066 -0.0922
   76SLPC   H5R 6842   1.639   1.731   7.297  1.7084 -1.4727  2.8971
   76SLPC   H5S 6843   1.688   1.897   7.247 -1.8551 -1.3267 -1.5450
   76SLPC   C26 6844   1.848   1.771   7.336 -0.0946  0.4397  0.3697
   76SLPC   H6R 6845   1.927   1.832   7.287  0.8916 -0.0990  1.2439
   76SLPC   H6S 6846   1.890   1.669   7.326 -2.9267 -1.2077  3.4493
   76SLPC   C27 6847   1.857   1.817   7.481  0.6777  0.3216 -0.5937
   76SLPC   H7R 6848   1.822   1.923   7.485  1.2980  0.5208 -0.2672
   76SLPC   H7S 6849   1.964   1.812   7.510  0.3517 -0.7938  0.4891
   76SLPC   C28 6850   1.777   1.725   7.571  0.3720  0.0561  0.4095
   76SLPC   H8R 6851   1.693   1.697   7.504  2.0150  1.5033 -2.4078
   76SLPC   H8S 6852   1.837   1.634   7.591  0.8735  0.7345  2.2563
   76SLPC   C29 6853   1.729   1.788   7.702  0.0515  0.5567 -0.1541
   76SLPC   H9R 6854   1.645   1.857   7.684 -1.6985 -0.3539  3.6314
   76SLPC  C210 6855   1.776   1.764   7.826  0.1607 -0.2161 -0.2058
   76SLPC  H10R 6856   1.733   1.822   7.910 -0.3728 -1.6005  0.4981
   76SLPC  C211 6857   1.888   1.668   7.868  0.2929  0.2240  0.1784
   76SLPC  H11R 6858   1.966   1.719   7.927  1.0233 -0.0939 -0.5022
   76SLPC  H11S 6859   1.958   1.641   7.787  1.7141  1.0686  1.0955
   76SLPC  C212 6860   1.835   1.540   7.934  0.0685 -0.4438  0.4140
   76SLPC  H12R 6861   1.798   1.470   7.858  0.1081 -1.5247  1.3592
   76SLPC  C213 6862   1.803   1.527   8.062  0.5401  0.0385  0.1290
   76SLPC  H13R 6863   1.769   1.429   8.101  0.2552  0.7097  1.6262
   76SLPC  C214 6864   1.831   1.626   8.172 -0.4203 -0.2838 -0.3960
   76SLPC  H14R 6865   1.747   1.653   8.239 -0.1464 -0.9629  0.2176
   76SLPC  H14S 6866   1.855   1.723   8.123 -0.9241 -0.3429 -0.7763
   76SLPC  C215 6867   1.943   1.596   8.267  0.4632  0.7390  0.1323
   76SLPC  H15R 6868   2.033   1.556   8.215  0.2783  3.4899 -2.6308
   76SLPC  H15S 6869   1.908   1.518   8.337 -1.9586  1.9623  0.3982
   76SLPC  C216 6870   1.991   1.724   8.339  0.8564  0.7371  0.2023
   76SLPC  H16R 6871   1.915   1.742   8.418 -1.2189  0.2535 -1.5902
   76SLPC  H16S 6872   1.990   1.809   8.268 -1.6114  0.2496 -0.4366
   76SLPC  C217 6873   2.130   1.717   8.390  0.1318  0.1667  0.4617
   76SLPC  H17R 6874   2.202   1.670   8.320 -0.4410  0.8648 -0.6254
   76SLPC  H17S 6875   2.124   1.639   8.469  1.4053 -0.5191 -0.0735
   76SLPC  C218 6876   2.170   1.846   8.463 -0.1807  0.0386  0.1990
   76SLPC  H18R 6877   2.082   1.880   8.522 -0.3095 -1.5921  1.0255
   76SLPC  H18S 6878   2.198   1.916   8.382  0.6019  0.2290  0.6231
   76SLPC  H18T 6879   2.250   1.835   8.540 -0.8732  0.2207  0.9606
   76SLPC   C33 6880   1.419   1.529   7.118 -0.2259 -0.0132 -0.7168
   76SLPC   H3X 6881   1.521   1.567   7.140 -1.2176  1.9536  0.7471
   76SLPC   H3Y 6882   1.408   1.425   7.080  0.5455 -0.7783  1.0708
   76SLPC   C34 6883   1.349   1.518   7.256  0.1016 -0.2982  0.0463
   76SLPC   H4X 6884   1.243   1.493   7.237  0.1476  0.6870 -1.6205
   76SLPC   H4Y 6885   1.355   1.616   7.308  0.3602 -0.8085  1.0086
   76SLPC   C35 6886   1.434   1.436   7.356 -0.3021 -0.2071 -0.0226
   76SLPC   H5X 6887   1.530   1.492   7.362  0.7321 -1.5235 -2.5748
   76SLPC   H5Y 6888   1.446   1.329   7.327 -0.0261 -0.8378  2.2480
   76SLPC   C36 6889   1.371   1.424   7.493  0.1360  0.1957 -0.3406
   76SLPC   H6X 6890   1.416   1.330   7.532  0.8991 -0.0264 -1.7080
   76SLPC   H6Y 6891   1.260   1.415   7.494  0.1490  0.0148 -0.5898
   76SLPC   C37 6892   1.407   1.545   7.586 -0.0565  0.0099  0.1498
   76SLPC   H7X 6893   1.378   1.640   7.535 -1.6407 -0.3344  0.3613
   76SLPC   H7Y 6894   1.517   1.542   7.602  0.0968  0.4737 -0.7318
   76SLPC   C38 6895   1.347   1.523   7.723  0.2454  0.1318 -0.6537
   76SLPC   H8X 6896   1.313   1.418   7.736  1.9070 -0.7267 -2.7534
   76SLPC   H8Y 6897   1.256   1.586   7.733  0.4426  0.2877  0.2314
   76SLPC   C39 6898   1.433   1.545   7.845  0.6552 -0.5777 -0.4391
   76SLPC   H9X 6899   1.471   1.650   7.848  1.6823 -0.9604  0.8775
   76SLPC   H9Y 6900   1.529   1.490   7.833  0.0767 -1.7002 -0.0018
   76SLPC  C310 6901   1.366   1.520   7.982  0.0100 -0.8206  1.0098
   76SLPC  H10X 6902   1.356   1.411   7.996 -0.2159 -0.7782  1.1830
   76SLPC  H10Y 6903   1.267   1.570   7.984  0.3289  0.0301 -1.0116
   76SLPC  C311 6904   1.446   1.584   8.101  0.1139  0.3352  0.1455
   76SLPC  H11X 6905   1.499   1.677   8.072  1.7860 -0.2842  1.0539
   76SLPC  H11Y 6906   1.528   1.511   8.119 -0.4003 -0.6236 -1.2107
   76SLPC  C312 6907   1.359   1.605   8.217 -0.0329  0.7849 -0.2535
   76SLPC  H12X 6908   1.324   1.501   8.236  1.6919 -0.0623 -1.4358
   76SLPC  H12Y 6909   1.277   1.676   8.193 -0.9308 -0.1139  0.0392
   76SLPC  C313 6910   1.428   1.643   8.340  0.0831 -0.4608 -0.5281
   76SLPC  H13X 6911   1.508   1.566   8.347  0.0557 -0.3757  0.9841
   76SLPC  H13Y 6912   1.364   1.630   8.430 -1.6295 -3.3011 -2.0350
   76SLPC  C314 6913   1.491   1.788   8.350  0.1465  0.0591 -0.8328
   76SLPC  H14X 6914   1.530   1.806   8.247  1.5875 -3.1727 -0.9550
   76SLPC  H14Y 6915   1.565   1.800   8.432 -2.1283 -2.4123  1.7883
   76SLPC  C315 6916   1.396   1.901   8.387  0.5660 -0.1255  0.4832
   76SLPC  H15X 6917   1.352   1.878   8.487 -0.0540 -0.7154  0.0867
   76SLPC  H15Y 6918   1.324   1.905   8.303  1.0503 -3.2070 -0.2289
   76SLPC  C316 6919   1.481   2.034   8.400  0.1577  0.0324  0.0404
   76SLPC  H16X 6920   1.525   2.049   8.299 -1.8206 -2.5510 -1.3375
   76SLPC  H16Y 6921   1.564   2.013   8.470 -0.6907  0.1042  1.0868
   76SLPC  C317 6922   1.408   2.158   8.454  0.2371 -0.4634 -0.2985
   76SLPC  H17X 6923   1.377   2.153   8.561 -1.6361 -2.7140 -0.8425
   76SLPC  H17Y 6924   1.312   2.172   8.398 -0.2071 -2.1271 -0.0132
   76SLPC  C318 6925   1.499   2.277   8.440 -0.7590 -0.4846 -0.4090
   76SLPC  H18X 6926   1.548   2.273   8.341 -0.4323 -2.6139 -0.2032
   76SLPC  H18Y 6927   1.581   2.288   8.514  0.1967  0.1102 -1.5242
   76SLPC  H18Z 6928   1.429   2.364   8.442 -0.2394 -0.0660  0.4002
   77SLPC     N 6929   5.299   1.325   6.201 -0.2528  0.0443 -0.1544
   77SLPC   C13 6930   5.429   1.361   6.154 -0.0956  0.2506  0.2397
   77SLPC  H13A 6931   5.503   1.323   6.223  2.6258 -0.0071 -2.5822
   77SLPC  H13B 6932   5.460   1.320   6.059  0.2042 -0.5827  0.6898
   77SLPC  H13C 6933   5.434   1.469   6.154  0.7850  0.2370  1.4982
   77SLPC   C14 6934   5.287   1.359   6.344 -1.0906 -0.0132  0.0582
   77SLPC  H14A 6935   5.204   1.313   6.396 -1.1047  1.2610  1.2323
   77SLPC  H14B 6936   5.372   1.329   6.404 -0.6976  0.8428 -0.0508
   77SLPC  H14C 6937   5.281   1.466   6.355  2.1101  0.6654 -3.1669
   77SLPC   C15 6938   5.270   1.181   6.177  0.4955  0.5382 -0.0321
   77SLPC  H15A 6939   5.337   1.128   6.243  0.8129  0.1326 -0.6680
   77SLPC  H15B 6940   5.166   1.156   6.196  0.2956  0.4977 -1.0991
   77SLPC  H15C 6941   5.289   1.158   6.073 -2.6188  0.9244 -0.8062
   77SLPC   C12 6942   5.184   1.394   6.132 -0.2763 -0.9770  0.1200
   77SLPC  H12A 6943   5.177   1.360   6.030 -1.9431  1.3263 -0.6027
   77SLPC  H12B 6944   5.214   1.498   6.125  3.1487 -1.6272  2.6565
   77SLPC   C11 6945   5.040   1.401   6.193 -0.1943  0.2247 -0.1026
   77SLPC  H11A 6946   4.968   1.428   6.113 -1.8987 -1.3935  0.8194
   77SLPC  H11B 6947   5.052   1.473   6.277  0.4495  0.7894 -0.6643
   77SLPC     P 6948   4.941   1.236   6.374  0.1360  0.0310 -0.1252
   77SLPC   O13 6949   4.905   1.094   6.369  0.1032  0.2241  0.1490
   77SLPC   O14 6950   5.034   1.274   6.482  0.2881 -0.7341  0.0328
   77SLPC   O12 6951   4.995   1.275   6.233 -0.3502  0.3843 -0.6904
   77SLPC   O11 6952   4.813   1.334   6.363  0.2782 -0.1241 -0.0225
   77SLPC    C1 6953   4.807   1.455   6.443  0.1628  0.0018 -0.4663
   77SLPC    HA 6954   4.906   1.496   6.473  0.4218 -1.3075  0.5402
   77SLPC    HB 6955   4.761   1.535   6.381 -0.0406  0.2873  0.0450
   77SLPC    C2 6956   4.725   1.454   6.579  0.0448  0.1757  0.4647
   77SLPC    HS 6957   4.728   1.557   6.622 -1.6331  1.0381 -1.2704
   77SLPC   O21 6958   4.783   1.351   6.659 -0.2521  0.3377 -0.2678
   77SLPC   C21 6959   4.881   1.392   6.736 -0.1435 -0.7319  0.1661
   77SLPC   O22 6960   4.919   1.505   6.752  1.0318 -0.2461 -0.2317
   77SLPC   C22 6961   4.936   1.276   6.806 -0.1069  0.4814 -0.5276
   77SLPC   H2R 6962   4.847   1.224   6.848  0.2360  1.0259  0.9342
   77SLPC   H2S 6963   4.990   1.211   6.734  0.6308 -0.4768  0.8343
   77SLPC    C3 6964   4.578   1.418   6.555  0.5102 -0.2684 -0.3192
   77SLPC    HX 6965   4.577   1.324   6.496  1.0261 -0.4804  0.0082
   77SLPC    HY 6966   4.544   1.507   6.498 -0.8070 -1.2049 -1.0596
   77SLPC   O31 6967   4.509   1.403   6.680  0.5604 -0.4317  0.1321
   77SLPC   C31 6968   4.391   1.351   6.675  0.6166 -0.1382 -0.2402
   77SLPC   O32 6969   4.337   1.295   6.581  0.1327  0.1314 -0.7582
   77SLPC   C32 6970   4.334   1.381   6.809 -1.0174  0.6412  0.2510
   77SLPC   H2X 6971   4.313   1.490   6.807 -3.5476  0.2220 -1.4029
   77SLPC   H2Y 6972   4.414   1.349   6.879  0.1456  0.5011 -1.0954
   77SLPC   C23 6973   5.037   1.308   6.916 -0.7497 -0.3250 -0.2036
   77SLPC   H3R 6974   5.130   1.351   6.872 -0.4158  0.6796  1.3962
   77SLPC   H3S 6975   5.063   1.218   6.977  3.2074  2.3668  2.6228
   77SLPC   C24 6976   4.988   1.408   7.025  0.5674  0.0052 -0.4746
   77SLPC   H4R 6977   4.899   1.470   7.003 -0.5460 -1.2930  0.1582
   77SLPC   H4S 6978   5.082   1.464   7.045  0.9969  0.3404 -3.1625
   77SLPC   C25 6979   4.929   1.329   7.144  0.2607  0.5159 -0.7080
   77SLPC   H5R 6980   5.006   1.254   7.174 -2.7593 -1.8293  1.8945
   77SLPC   H5S 6981   4.844   1.265   7.113  1.4735 -0.6646 -1.7385
   77SLPC   C26 6982   4.890   1.421   7.256 -0.1500 -0.0860 -0.4333
   77SLPC   H6R 6983   4.806   1.483   7.219  0.2009  0.9778  0.5205
   77SLPC   H6S 6984   4.970   1.491   7.288  0.7153 -0.4944 -1.6196
   77SLPC   C27 6985   4.838   1.346   7.381 -0.6334  0.1839 -0.0230
   77SLPC   H7R 6986   4.918   1.276   7.413 -1.3502 -0.0961  1.2244
   77SLPC   H7S 6987   4.753   1.280   7.353 -0.0652 -1.1461  1.2320
   77SLPC   C28 6988   4.782   1.441   7.489 -0.2170  0.4771 -0.3701
   77SLPC   H8R 6989   4.699   1.498   7.441 -0.2861  0.5551 -0.1591
   77SLPC   H8S 6990   4.861   1.512   7.521  0.8913 -1.0433  0.3706
   77SLPC   C29 6991   4.724   1.384   7.604  0.5681  0.5997  0.1781
   77SLPC   H9R 6992   4.648   1.308   7.585  1.0982  0.2599 -0.6480
   77SLPC  C210 6993   4.760   1.399   7.732 -0.7135  0.3054  0.1068
   77SLPC  H10R 6994   4.704   1.327   7.795 -1.8496  1.1848  0.1405
   77SLPC  C211 6995   4.868   1.481   7.803  0.0827 -0.5327  0.3959
   77SLPC  H11R 6996   4.947   1.513   7.732  0.0925  0.8158  0.9831
   77SLPC  H11S 6997   4.919   1.411   7.873 -0.1973 -0.2100  0.9288
   77SLPC  C212 6998   4.819   1.598   7.879  0.4603 -0.0312 -0.0623
   77SLPC  H12R 6999   4.793   1.676   7.806 -2.2164 -0.8806 -0.1477
   77SLPC  C213 7000   4.799   1.609   8.014  0.7094 -0.9828  0.2126
   77SLPC  H13R 7001   4.769   1.709   8.048  1.3796 -0.3995 -0.8515
   77SLPC  C214 7002   4.837   1.513   8.126 -0.1835  0.2888 -0.4170
   77SLPC  H14R 7003   4.858   1.412   8.084  0.0614 -0.7323  1.9866
   77SLPC  H14S 7004   4.755   1.505   8.201 -0.2116  1.1564 -0.3465
   77SLPC  C215 7005   4.969   1.548   8.200 -0.2722 -0.0752 -0.6664
   77SLPC  H15R 7006   5.050   1.569   8.127  1.2949 -2.1667  0.3854
   77SLPC  H15S 7007   4.996   1.462   8.265 -0.6857 -0.2719 -0.7536
   77SLPC  C216 7008   4.957   1.664   8.299  0.1872  0.1502  0.2166
   77SLPC  H16R 7009   4.874   1.657   8.373 -1.3877 -0.3872 -1.5261
   77SLPC  H16S 7010   4.930   1.749   8.233 -3.3822 -1.4101 -0.5788
   77SLPC  C217 7011   5.088   1.692   8.367  0.8421 -0.1625 -1.0369
   77SLPC  H17R 7012   5.065   1.782   8.429 -2.6863 -2.2768  1.0783
   77SLPC  H17S 7013   5.165   1.731   8.297  1.4111  0.5262 -0.0611
   77SLPC  C218 7014   5.133   1.582   8.458 -0.2034  1.1436 -0.2042
   77SLPC  H18R 7015   5.051   1.548   8.524  2.8233  0.3575  3.5590
   77SLPC  H18S 7016   5.207   1.624   8.530 -0.7324  0.4935  0.7575
   77SLPC  H18T 7017   5.169   1.487   8.412  0.4511  1.1907  0.1845
   77SLPC   C33 7018   4.203   1.305   6.842 -0.4099 -0.6832  0.4459
   77SLPC   H3X 7019   4.206   1.197   6.815 -0.3667 -0.5542 -0.0945
   77SLPC   H3Y 7020   4.122   1.356   6.787  0.9145  0.7310 -0.2832
   77SLPC   C34 7021   4.166   1.317   6.989  0.0592  0.3754  0.6712
   77SLPC   H4X 7022   4.246   1.312   7.066 -2.1462  1.4941  3.1989
   77SLPC   H4Y 7023   4.092   1.236   7.006  1.4664 -1.0046  0.5272
   77SLPC   C35 7024   4.111   1.456   7.015  0.6338 -0.0558 -0.1845
   77SLPC   H5X 7025   4.023   1.468   6.947  0.6137 -1.9255 -0.5404
   77SLPC   H5Y 7026   4.180   1.538   6.986 -0.7159  2.0004  2.0365
   77SLPC   C36 7027   4.075   1.467   7.167  0.8938  0.2890  0.3912
   77SLPC   H6X 7028   3.991   1.398   7.191 -0.1163  1.3047 -0.0776
   77SLPC   H6Y 7029   4.031   1.567   7.190 -0.7925 -0.6963  1.7080
   77SLPC   C37 7030   4.183   1.462   7.270 -0.0788 -0.5419  0.2715
   77SLPC   H7X 7031   4.254   1.548   7.267 -2.6470  1.9322  3.4267
   77SLPC   H7Y 7032   4.240   1.367   7.273  2.0779  0.7106  1.5060
   77SLPC   C38 7033   4.127   1.483   7.407 -0.4208 -0.1487 -0.4949
   77SLPC   H8X 7034   4.061   1.395   7.424  1.6215 -1.4066  1.5693
   77SLPC   H8Y 7035   4.083   1.585   7.405  1.7631  0.8353 -0.4544
   77SLPC   C39 7036   4.235   1.480   7.518 -0.4240 -0.3654 -0.3286
   77SLPC   H9X 7037   4.280   1.581   7.510 -1.9622  0.2203 -2.2353
   77SLPC   H9Y 7038   4.319   1.412   7.490 -0.2305 -0.2051 -0.1436
   77SLPC  C310 7039   4.186   1.434   7.655  0.0613  0.1300 -0.2081
   77SLPC  H10X 7040   4.149   1.330   7.647 -1.3463  0.5691  0.3042
   77SLPC  H10Y 7041   4.096   1.492   7.685 -0.4027 -0.4977 -0.3756
   77SLPC  C311 7042   4.301   1.440   7.762 -1.1167 -0.4051  0.5043
   77SLPC  H11X 7043   4.296   1.548   7.787  0.2916 -0.0761 -0.5547
   77SLPC  H11Y 7044   4.400   1.418   7.717 -1.6714  0.0066 -0.9747
   77SLPC  C312 7045   4.266   1.347   7.876  0.1275  0.2669 -0.3399
   77SLPC  H12X 7046   4.277   1.239   7.853  0.0688  0.5912 -2.0936
   77SLPC  H12Y 7047   4.160   1.358   7.904 -0.4740 -1.7783 -1.6059
   77SLPC  C313 7048   4.349   1.384   8.005  0.2922  0.3281 -0.4047
   77SLPC  H13X 7049   4.337   1.492   8.029  0.4194  0.8231 -2.3810
   77SLPC  H13Y 7050   4.451   1.353   7.976 -0.3575 -1.8106 -0.5368
   77SLPC  C314 7051   4.299   1.308   8.128 -0.3299  0.6354 -0.0020
   77SLPC  H14X 7052   4.317   1.201   8.101 -1.7761 -0.2949  2.4101
   77SLPC  H14Y 7053   4.191   1.317   8.152 -0.2978 -2.3686  1.8078
   77SLPC  C315 7054   4.392   1.342   8.247 -0.0923 -0.2263 -0.3648
   77SLPC  H15X 7055   4.342   1.432   8.288  0.5873  0.7870 -1.6997
   77SLPC  H15Y 7056   4.495   1.366   8.213 -0.7954 -0.8247 -3.1546
   77SLPC  C316 7057   4.406   1.228   8.350  0.0938 -0.1709 -0.3326
   77SLPC  H16X 7058   4.461   1.147   8.297 -2.0056 -2.5795  1.0202
   77SLPC  H16Y 7059   4.308   1.183   8.375 -0.5845  2.5540  2.6130
   77SLPC  C317 7060   4.481   1.260   8.487 -0.3917  0.4006 -0.6895
   77SLPC  H17X 7061   4.564   1.331   8.471 -2.0196  2.6375  0.3409
   77SLPC  H17Y 7062   4.518   1.163   8.526  0.2086  1.5964  1.9363
   77SLPC  C318 7063   4.380   1.320   8.584 -0.1670 -0.0267 -0.1130
   77SLPC  H18X 7064   4.314   1.388   8.525 -0.7797 -0.9181 -0.4860
   77SLPC  H18Y 7065   4.430   1.383   8.660 -0.3139  0.6487 -0.5651
   77SLPC  H18Z 7066   4.316   1.237   8.622 -1.9854  1.0595 -0.6728
   78SLPC     N 7067   0.676   1.655   6.328 -0.0529 -0.8010 -0.1474
   78SLPC   C13 7068   0.702   1.620   6.191 -0.1573  1.0765  0.2694
   78SLPC  H13A 7069   0.611   1.587   6.143 -1.3181  3.2136  0.8601
   78SLPC  H13B 7070   0.717   1.713   6.138 -1.2149  2.0614  1.6135
   78SLPC  H13C 7071   0.791   1.561   6.176  0.8180  2.6244 -0.2866
   78SLPC   C14 7072   0.798   1.667   6.415  0.1273  0.9536  0.1688
   78SLPC  H14A 7073   0.766   1.666   6.518  1.4170  1.1874  0.5873
   78SLPC  H14B 7074   0.867   1.584   6.412  0.9216  1.5245  1.6736
   78SLPC  H14C 7075   0.845   1.760   6.387 -0.5978  1.2271 -0.1743
   78SLPC   C15 7076   0.592   1.545   6.387  0.0834 -0.2906  0.2883
   78SLPC  H15A 7077   0.657   1.459   6.394  2.3276  1.3789  1.8184
   78SLPC  H15B 7078   0.545   1.573   6.480 -3.8112 -0.3040 -1.5136
   78SLPC  H15C 7079   0.511   1.516   6.322 -1.4431  2.3587  0.8526
   78SLPC   C12 7080   0.595   1.789   6.342 -0.9062  0.4438  0.9386
   78SLPC  H12A 7081   0.564   1.773   6.444 -0.3800 -3.6295  0.6035
   78SLPC  H12B 7082   0.501   1.778   6.289  0.1463  1.4488 -1.2931
   78SLPC   C11 7083   0.661   1.921   6.316 -0.3633 -0.1675  0.0467
   78SLPC  H11A 7084   0.585   1.995   6.348 -0.2132  0.3215 -0.7103
   78SLPC  H11B 7085   0.674   1.937   6.207 -4.3169  1.1736 -0.3869
   78SLPC     P 7086   0.855   2.067   6.404 -0.2392 -0.2842  0.1065
   78SLPC   O13 7087   0.921   2.083   6.273 -0.5227 -0.1586 -0.1004
   78SLPC   O14 7088   0.766   2.177   6.436  0.2009 -0.1231  0.0371
   78SLPC   O12 7089   0.777   1.933   6.396  0.3029 -0.0557 -0.3055
   78SLPC   O11 7090   0.951   2.063   6.531  0.1300  0.1152 -0.4506
   78SLPC    C1 7091   1.012   1.948   6.579  0.2658  0.4183 -1.2482
   78SLPC    HA 7092   1.033   1.878   6.495 -2.0560 -0.5559 -1.1159
   78SLPC    HB 7093   1.111   1.972   6.623 -0.4992  0.5137  0.4855
   78SLPC    C2 7094   0.942   1.883   6.701 -0.0118  1.1632 -0.2344
   78SLPC    HS 7095   0.848   1.837   6.665  1.3418 -0.4118 -1.9630
   78SLPC   O21 7096   0.923   1.980   6.805 -0.2213  0.0545 -0.6045
   78SLPC   C21 7097   0.801   2.000   6.835  0.2232  0.1439  0.0824
   78SLPC   O22 7098   0.705   1.937   6.793 -0.4008  0.1278 -0.3362
   78SLPC   C22 7099   0.786   2.116   6.938  0.0704 -0.6058  0.3205
   78SLPC   H2R 7100   0.885   2.164   6.955 -0.6694  1.6486 -1.3160
   78SLPC   H2S 7101   0.720   2.186   6.884 -1.9686 -0.1599  3.1776
   78SLPC    C3 7102   1.016   1.766   6.770 -0.0110  0.1674 -0.2495
   78SLPC    HX 7103   1.119   1.803   6.786  1.9803 -4.2372 -1.3660
   78SLPC    HY 7104   1.021   1.678   6.703 -0.4686  0.0544 -0.1377
   78SLPC   O31 7105   0.959   1.722   6.894 -0.4350 -0.1122 -0.1623
   78SLPC   C31 7106   0.865   1.629   6.884 -0.0599  0.1610  0.3305
   78SLPC   O32 7107   0.822   1.591   6.777 -0.1187  0.3010  0.1010
   78SLPC   C32 7108   0.828   1.589   7.021 -0.4571 -0.6581 -0.7438
   78SLPC   H2X 7109   0.737   1.526   7.013 -0.5576 -0.7496  0.7716
   78SLPC   H2Y 7110   0.799   1.675   7.086  0.0158 -0.1832 -1.1558
   78SLPC   C23 7111   0.710   2.090   7.073  0.3077 -0.1783  0.4100
   78SLPC   H3R 7112   0.635   2.014   7.041  0.6400 -0.3582  0.0320
   78SLPC   H3S 7113   0.656   2.182   7.102 -1.2288 -0.4566 -1.3754
   78SLPC   C24 7114   0.805   2.057   7.187  0.9706 -0.1572  0.0412
   78SLPC   H4R 7115   0.877   2.139   7.205 -0.5927  1.1335  0.6483
   78SLPC   H4S 7116   0.863   1.967   7.156 -0.5923 -0.5324 -2.0512
   78SLPC   C25 7117   0.728   2.017   7.315  0.9115  0.8539  0.1425
   78SLPC   H5R 7118   0.662   2.103   7.343 -1.1072 -0.9771  1.3397
   78SLPC   H5S 7119   0.814   1.990   7.380  1.0450 -2.7412 -1.3146
   78SLPC   C26 7120   0.628   1.898   7.304  0.2441  0.2226  0.4288
   78SLPC   H6R 7121   0.638   1.850   7.204 -0.5487  0.6258  0.1491
   78SLPC   H6S 7122   0.525   1.940   7.312  0.9071  1.5975  2.8211
   78SLPC   C27 7123   0.634   1.810   7.428 -0.2044  0.2251  0.0854
   78SLPC   H7R 7124   0.739   1.784   7.451 -0.3861  0.6865  1.5596
   78SLPC   H7S 7125   0.587   1.711   7.410 -2.7558  1.1293  1.2843
   78SLPC   C28 7126   0.566   1.864   7.551  0.4070 -0.4013 -0.7242
   78SLPC   H8R 7127   0.458   1.876   7.529  0.3404 -0.2551 -0.3201
   78SLPC   H8S 7128   0.599   1.970   7.561 -0.2700 -0.1549 -1.0196
   78SLPC   C29 7129   0.593   1.782   7.672 -0.5557  0.3321  0.2907
   78SLPC   H9R 7130   0.694   1.741   7.686 -0.1537  1.3261  0.3663
   78SLPC  C210 7131   0.500   1.744   7.763  0.0963 -0.3887 -0.1576
   78SLPC  H10R 7132   0.531   1.669   7.837 -1.5496 -2.0357 -1.0355
   78SLPC  C211 7133   0.353   1.787   7.764  0.0395  0.5498  0.1261
   78SLPC  H11R 7134   0.309   1.768   7.664 -1.5506  0.3190  0.8292
   78SLPC  H11S 7135   0.345   1.897   7.763  0.6062  0.7119  3.1325
   78SLPC  C212 7136   0.255   1.740   7.868 -0.5027  0.4898 -0.2404
   78SLPC  H12R 7137   0.194   1.655   7.834 -3.1112  1.1821  2.2981
   78SLPC  C213 7138   0.243   1.783   7.990 -0.1310  0.3889 -0.1476
   78SLPC  H13R 7139   0.166   1.742   8.057  1.5588  0.5865  2.0380
   78SLPC  C214 7140   0.325   1.888   8.059  0.5674  0.6251  0.4381
   78SLPC  H14R 7141   0.285   1.987   8.027 -0.3124 -0.3689 -1.7180
   78SLPC  H14S 7142   0.430   1.895   8.022  0.1903  0.4970 -0.7152
   78SLPC  C215 7143   0.329   1.892   8.213 -0.3925 -0.0817 -0.5564
   78SLPC  H15R 7144   0.359   1.789   8.242  1.3657 -0.1992 -2.5417
   78SLPC  H15S 7145   0.223   1.907   8.244  0.1599  0.1839  1.3405
   78SLPC  C216 7146   0.408   2.002   8.280 -0.4332 -0.1850  0.4396
   78SLPC  H16R 7147   0.354   2.095   8.255  0.4717  0.1866 -0.1678
   78SLPC  H16S 7148   0.514   1.995   8.246 -0.1949  1.0351  0.9081
   78SLPC  C217 7149   0.411   1.996   8.430  0.9014 -0.0594 -0.3070
   78SLPC  H17R 7150   0.427   1.889   8.456 -2.0943 -0.1177  1.7931
   78SLPC  H17S 7151   0.310   2.022   8.469  1.1356  1.2263 -0.5217
   78SLPC  C218 7152   0.503   2.101   8.489  0.1735 -0.1847 -0.2384
   78SLPC  H18R 7153   0.604   2.092   8.445 -0.4998 -1.5073 -1.6402
   78SLPC  H18S 7154   0.497   2.088   8.599  0.4969  0.3858 -0.1490
   78SLPC  H18T 7155   0.467   2.205   8.471  1.6681  0.0045 -2.5738
   78SLPC   C33 7156   0.946   1.513   7.082  1.1312 -0.6985 -0.2275
   78SLPC   H3X 7157   1.026   1.587   7.104 -0.0114  0.8737 -1.1611
   78SLPC   H3Y 7158   0.992   1.438   7.014  1.8945  0.7813 -1.3856
   78SLPC   C34 7159   0.910   1.424   7.205  0.3710 -0.6282  0.3227
   78SLPC   H4X 7160   1.002   1.370   7.236  2.3658  1.7006 -1.1006
   78SLPC   H4Y 7161   0.820   1.366   7.178 -1.1829  0.2305  3.1752
   78SLPC   C35 7162   0.870   1.511   7.328 -0.0895 -0.2457  0.0741
   78SLPC   H5X 7163   0.764   1.542   7.317  0.0445 -0.1754 -1.2149
   78SLPC   H5Y 7164   0.923   1.609   7.327 -0.9643  0.2568  1.1665
   78SLPC   C36 7165   0.889   1.435   7.458  0.1511 -0.2458  0.5533
   78SLPC   H6X 7166   0.997   1.437   7.483  0.4906 -1.9581 -0.5933
   78SLPC   H6Y 7167   0.855   1.329   7.453  0.3521 -0.3031  0.3820
   78SLPC   C37 7168   0.822   1.492   7.586 -0.4097 -0.0444 -0.3170
   78SLPC   H7X 7169   0.713   1.510   7.575 -0.5028 -0.3727  0.0614
   78SLPC   H7Y 7170   0.869   1.593   7.589  1.6586 -0.8943 -1.4685
   78SLPC   C38 7171   0.836   1.419   7.719 -0.2609  0.3120 -0.4959
   78SLPC   H8X 7172   0.942   1.414   7.751  0.1129  0.1841 -1.7054
   78SLPC   H8Y 7173   0.791   1.318   7.718 -0.5053  0.3821  1.0496
   78SLPC   C39 7174   0.754   1.499   7.830 -0.7175  0.3444  0.2323
   78SLPC   H9X 7175   0.652   1.520   7.792 -0.3223 -0.6101 -1.4927
   78SLPC   H9Y 7176   0.810   1.592   7.854 -0.7927  0.7372 -1.0308
   78SLPC  C310 7177   0.743   1.426   7.966  0.2457  0.3117  0.0382
   78SLPC  H10X 7178   0.685   1.332   7.953  2.6426 -1.0979 -1.1238
   78SLPC  H10Y 7179   0.687   1.494   8.034  2.4411  1.0980  1.1545
   78SLPC  C311 7180   0.879   1.392   8.039 -0.0682 -0.1378 -0.4132
   78SLPC  H11X 7181   0.938   1.485   8.025 -0.7291  0.0405 -2.3751
   78SLPC  H11Y 7182   0.929   1.302   7.997 -2.3275 -1.3308 -0.7073
   78SLPC  C312 7183   0.874   1.375   8.194  0.4581 -0.0394  0.5250
   78SLPC  H12X 7184   0.809   1.289   8.223 -1.7048  1.7196  1.1216
   78SLPC  H12Y 7185   0.822   1.464   8.235  2.5288  2.4274 -1.8124
   78SLPC  C313 7186   1.015   1.368   8.261 -0.0144  0.0724  0.2927
   78SLPC  H13X 7187   1.090   1.413   8.193 -1.0359  1.0274 -0.2401
   78SLPC  H13Y 7188   1.043   1.260   8.258  0.3422  0.1663  0.2136
   78SLPC  C314 7189   1.022   1.435   8.401  0.5712 -0.1121 -0.5392
   78SLPC  H14X 7190   0.974   1.535   8.395 -1.1784 -0.7958  1.0172
   78SLPC  H14Y 7191   1.129   1.450   8.427  0.4622 -1.3759  0.7961
   78SLPC  C315 7192   0.965   1.350   8.513  0.4909 -0.0721  0.7403
   78SLPC  H15X 7193   1.011   1.250   8.502 -3.7272 -1.9833 -1.7517
   78SLPC  H15Y 7194   0.855   1.351   8.499 -0.0017 -0.1398  3.8487
   78SLPC  C316 7195   0.989   1.411   8.646 -0.2521  0.0292  0.3635
   78SLPC  H16X 7196   0.940   1.511   8.649 -3.0948 -1.1750 -1.7531
   78SLPC  H16Y 7197   1.098   1.418   8.667  0.4339 -2.3568 -1.9386
   78SLPC  C317 7198   0.932   1.322   8.755 -0.0567  0.0465  0.8882
   78SLPC  H17X 7199   0.916   1.218   8.719  1.5640 -0.2955  1.0636
   78SLPC  H17Y 7200   0.838   1.365   8.793 -0.6016 -1.3545  1.1659
   78SLPC  C318 7201   1.015   1.315   8.888  0.6678 -0.6034  0.4653
   78SLPC  H18X 7202   1.113   1.267   8.867  0.9014  0.3669 -0.7137
   78SLPC  H18Y 7203   0.958   1.261   8.968 -0.9975  1.4166  0.7344
   78SLPC  H18Z 7204   1.030   1.421   8.916 -2.4315  0.5404 -1.6921
   79SLPC     N 7205   5.041   4.611   6.135 -0.5669  0.7977  0.9713
   79SLPC   C13 7206   5.102   4.561   6.268  0.5780 -0.2584 -0.0106
   79SLPC  H13A 7207   5.201   4.600   6.285  0.8560 -1.0933  0.2871
   79SLPC  H13B 7208   5.030   4.581   6.346  0.0162 -0.3777 -0.4949
   79SLPC  H13C 7209   5.103   4.453   6.265 -1.2333 -0.3454  1.0209
   79SLPC   C14 7210   5.140   4.584   6.024  0.3720  0.3537 -0.1926
   79SLPC  H14A 7211   5.185   4.486   6.032  0.5152  0.2738 -1.7269
   79SLPC  H14B 7212   5.081   4.568   5.935 -0.1088 -1.6605  0.4289
   79SLPC  H14C 7213   5.219   4.656   6.012 -0.2797  1.1659  0.3254
   79SLPC   C15 7214   5.015   4.756   6.141  0.1199 -0.2388 -0.3050
   79SLPC  H15A 7215   4.975   4.784   6.045 -1.1996 -0.2408  0.2309
   79SLPC  H15B 7216   4.937   4.774   6.213 -0.0327 -0.6530 -0.3649
   79SLPC  H15C 7217   5.096   4.821   6.172 -0.3676  0.0136  0.4525
   79SLPC   C12 7218   4.916   4.531   6.108  0.0363 -0.3647 -0.2773
   79SLPC  H12A 7219   4.853   4.585   6.039 -0.9822  1.0551  1.6570
   79SLPC  H12B 7220   4.847   4.530   6.192 -0.2491  3.0052 -0.3118
   79SLPC   C11 7221   4.926   4.387   6.056 -0.4392  0.1166  0.0442
   79SLPC  H11A 7222   4.989   4.393   5.965 -0.3837 -1.1215 -0.0165
   79SLPC  H11B 7223   4.824   4.352   6.031 -0.4379  0.5075 -0.5045
   79SLPC     P 7224   4.987   4.149   6.139 -0.0516  0.4249 -0.3557
   79SLPC   O13 7225   4.976   4.118   5.995 -0.4480  0.6703 -0.0813
   79SLPC   O14 7226   5.112   4.104   6.203  0.1022  0.2885 -0.2464
   79SLPC   O12 7227   4.983   4.304   6.158  0.5921 -0.1826 -0.3874
   79SLPC   O11 7228   4.853   4.095   6.221 -0.1227 -0.0722 -0.5225
   79SLPC    C1 7229   4.852   4.113   6.366 -0.1245  0.0349  0.7522
   79SLPC    HA 7230   4.784   4.034   6.405  2.9305 -2.7050  0.9536
   79SLPC    HB 7231   4.950   4.086   6.410  0.9631  2.3294 -0.0850
   79SLPC    C2 7232   4.816   4.257   6.414  0.3396  0.2482 -0.2157
   79SLPC    HS 7233   4.899   4.330   6.402  0.9234 -0.3473  0.1561
   79SLPC   O21 7234   4.791   4.246   6.556  0.0779 -0.1185 -0.5493
   79SLPC   C21 7235   4.901   4.250   6.640  0.2738  0.5199  0.0156
   79SLPC   O22 7236   5.020   4.251   6.602 -0.3001  0.2689 -0.1772
   79SLPC   C22 7237   4.854   4.236   6.780  0.9149  0.3331 -0.5550
   79SLPC   H2R 7238   4.821   4.337   6.813 -0.2441  0.1327 -1.0460
   79SLPC   H2S 7239   4.761   4.176   6.791  1.4383 -0.0734  2.9915
   79SLPC    C3 7240   4.684   4.307   6.353  0.1842 -1.0178  0.5364
   79SLPC    HX 7241   4.618   4.218   6.362 -1.4186  0.2738  2.5073
   79SLPC    HY 7242   4.695   4.336   6.246 -1.3401  0.8867  0.8439
   79SLPC   O31 7243   4.623   4.414   6.414  0.7714  0.3694 -0.0454
   79SLPC   C31 7244   4.697   4.521   6.428  0.1323  0.8247  0.4132
   79SLPC   O32 7245   4.807   4.538   6.375 -0.0509  0.0140 -0.3182
   79SLPC   C32 7246   4.618   4.607   6.534  0.5440  0.3043  0.0600
   79SLPC   H2X 7247   4.512   4.610   6.499  0.7258 -0.7798 -0.6464
   79SLPC   H2Y 7248   4.667   4.707   6.532  0.4182  0.3799 -2.2628
   79SLPC   C23 7249   4.949   4.170   6.884  0.7709  0.6617  0.5335
   79SLPC   H3R 7250   5.044   4.227   6.887  2.2975 -1.8007  2.4345
   79SLPC   H3S 7251   4.979   4.070   6.848  1.7819  0.7213  1.1863
   79SLPC   C24 7252   4.897   4.163   7.028  0.3598  0.0127 -0.2827
   79SLPC   H4R 7253   4.937   4.080   7.089 -0.5988 -0.6273 -0.4891
   79SLPC   H4S 7254   4.786   4.151   7.023  0.1216  2.1256 -2.2033
   79SLPC   C25 7255   4.946   4.293   7.112 -0.1120  0.1169 -0.3027
   79SLPC   H5R 7256   4.935   4.386   7.052  1.1053  0.9271  0.6919
   79SLPC   H5S 7257   5.053   4.271   7.132 -1.0903 -2.3264  3.3531
   79SLPC   C26 7258   4.888   4.323   7.247 -0.3888 -0.3824 -0.0383
   79SLPC   H6R 7259   4.778   4.324   7.228 -0.8986  0.6883  2.5056
   79SLPC   H6S 7260   4.912   4.427   7.278 -1.0788 -0.2464  0.0680
   79SLPC   C27 7261   4.940   4.237   7.365 -0.5878  0.0403  0.0523
   79SLPC   H7R 7262   5.050   4.224   7.356 -0.3924  1.8539 -0.5422
   79SLPC   H7S 7263   4.900   4.133   7.364 -3.4369  1.0355  0.4907
   79SLPC   C28 7264   4.908   4.280   7.515  0.2928 -0.5861  0.3533
   79SLPC   H8R 7265   4.914   4.188   7.577  0.1529 -1.0434 -0.3011
   79SLPC   H8S 7266   4.803   4.315   7.506  0.1494 -1.0746  0.0889
   79SLPC   C29 7267   4.982   4.405   7.560 -0.3596 -0.0935 -0.4493
   79SLPC   H9R 7268   4.948   4.507   7.536  0.5846  1.1077  2.7102
   79SLPC  C210 7269   5.084   4.392   7.655  0.4427  0.2938 -0.6225
   79SLPC  H10R 7270   5.131   4.484   7.694  1.2081 -1.0133  1.7732
   79SLPC  C211 7271   5.134   4.259   7.713  0.3735  0.9326 -0.6009
   79SLPC  H11R 7272   5.211   4.210   7.649  2.3669  1.5887  1.1734
   79SLPC  H11S 7273   5.049   4.191   7.735  1.5259  0.1927  1.9815
   79SLPC  C212 7274   5.194   4.286   7.844  0.0938 -0.3695 -0.1810
   79SLPC  H12R 7275   5.300   4.314   7.847 -0.0287  0.1776 -0.6786
   79SLPC  C213 7276   5.139   4.252   7.964 -0.9168 -1.0582  0.0822
   79SLPC  H13R 7277   5.194   4.287   8.053  0.9449 -0.3704 -1.2825
   79SLPC  C214 7278   5.005   4.190   7.998  0.0306 -0.1532 -0.4397
   79SLPC  H14R 7279   5.010   4.083   7.968  2.6083 -1.0097  2.4359
   79SLPC  H14S 7280   4.921   4.240   7.946  1.4831  1.7278 -1.0746
   79SLPC  C215 7281   4.975   4.200   8.151 -0.5614  0.2458  0.9152
   79SLPC  H15R 7282   4.970   4.297   8.205  0.6730  2.0743 -1.9901
   79SLPC  H15S 7283   5.052   4.135   8.198  1.0392  0.3252 -1.4102
   79SLPC  C216 7284   4.840   4.138   8.187  0.1696  0.0775 -0.2350
   79SLPC  H16R 7285   4.767   4.200   8.131  1.4649  2.2078  0.3205
   79SLPC  H16S 7286   4.832   4.162   8.296  0.6588  2.4663 -0.6780
   79SLPC  C217 7287   4.803   3.997   8.155  0.7101  0.1319  0.3561
   79SLPC  H17R 7288   4.890   3.940   8.193 -0.0392 -0.4343  1.2434
   79SLPC  H17S 7289   4.803   3.989   8.044  0.5081  1.3089  0.2535
   79SLPC  C218 7290   4.663   3.944   8.194 -0.4670  0.1697  0.9312
   79SLPC  H18R 7291   4.648   3.939   8.304  1.0471  3.4499  1.4179
   79SLPC  H18S 7292   4.649   3.842   8.154  0.7489 -0.7746  2.7521
   79SLPC  H18T 7293   4.579   3.999   8.147  0.1155 -0.2887 -0.7169
   79SLPC   C33 7294   4.623   4.557   6.685  0.8069 -1.1044  1.0062
   79SLPC   H3X 7295   4.581   4.640   6.746  1.6254 -0.4666  0.7351
   79SLPC   H3Y 7296   4.732   4.551   6.706  1.3320 -1.1694 -1.4324
   79SLPC   C34 7297   4.550   4.437   6.720 -0.2283  0.0393 -0.8601
   79SLPC   H4X 7298   4.591   4.356   6.657  0.7607 -0.5581  0.5084
   79SLPC   H4Y 7299   4.440   4.441   6.703 -0.3585  0.9199  0.0702
   79SLPC   C35 7300   4.565   4.398   6.864 -0.5082  0.0150  0.3757
   79SLPC   H5X 7301   4.664   4.440   6.894 -0.5686 -0.9230  2.0039
   79SLPC   H5Y 7302   4.572   4.288   6.872  1.6794  0.0579 -0.2702
   79SLPC   C36 7303   4.452   4.441   6.961 -0.4173 -0.1239 -0.3667
   79SLPC   H6X 7304   4.351   4.425   6.919 -1.6615  0.5503  2.1843
   79SLPC   H6Y 7305   4.479   4.547   6.981 -0.7862  0.4210 -2.4931
   79SLPC   C37 7306   4.469   4.370   7.098  0.9715 -1.2007 -0.2101
   79SLPC   H7X 7307   4.552   4.431   7.140  1.3370  0.0515 -2.5212
   79SLPC   H7Y 7308   4.501   4.265   7.081  4.2161 -0.3881  0.2141
   79SLPC   C38 7309   4.334   4.372   7.175 -0.2704  0.2151 -0.0721
   79SLPC   H8X 7310   4.330   4.291   7.251 -1.4721  0.2136 -0.1039
   79SLPC   H8Y 7311   4.251   4.343   7.106 -0.6314  0.9352  0.0470
   79SLPC   C39 7312   4.293   4.501   7.243 -0.2754 -0.5558  0.0256
   79SLPC   H9X 7313   4.190   4.487   7.284  0.9877  1.0535  4.3281
   79SLPC   H9Y 7314   4.276   4.586   7.174  0.4058 -0.7452 -0.3819
   79SLPC  C310 7315   4.395   4.549   7.344  0.0314  0.9279  0.3856
   79SLPC  H10X 7316   4.376   4.654   7.373 -1.2700  0.7986  0.0335
   79SLPC  H10Y 7317   4.497   4.539   7.300  0.7881 -2.8063  2.5032
   79SLPC  C311 7318   4.391   4.449   7.467 -0.6984 -0.6318 -0.0484
   79SLPC  H11X 7319   4.429   4.348   7.440  0.1014  0.0435 -1.6250
   79SLPC  H11Y 7320   4.285   4.438   7.500 -1.6163  0.1243 -2.4834
   79SLPC  C312 7321   4.472   4.497   7.594  0.0961 -0.2232 -0.4185
   79SLPC  H12X 7322   4.437   4.600   7.617 -0.2713 -0.4753  0.1646
   79SLPC  H12Y 7323   4.576   4.499   7.554  0.4924  2.0643  0.5656
   79SLPC  C313 7324   4.452   4.399   7.710 -0.6262 -0.7035 -0.0894
   79SLPC  H13X 7325   4.477   4.293   7.690 -0.8198 -0.8027  0.1846
   79SLPC  H13Y 7326   4.342   4.406   7.728 -0.7578 -0.9929 -0.7686
   79SLPC  C314 7327   4.517   4.450   7.834  0.5300 -0.5114  0.0216
   79SLPC  H14X 7328   4.471   4.545   7.868  0.6596 -0.5744  0.3806
   79SLPC  H14Y 7329   4.624   4.480   7.833  0.0845  1.3426  1.4839
   79SLPC  C315 7330   4.494   4.366   7.958  0.7938  0.2016  0.0110
   79SLPC  H15X 7331   4.585   4.333   8.012 -0.4017  0.2991  2.2334
   79SLPC  H15Y 7332   4.447   4.267   7.939  0.7511 -0.0098  1.1530
   79SLPC  C316 7333   4.402   4.426   8.063  1.0134 -0.4753 -0.3432
   79SLPC  H16X 7334   4.298   4.447   8.028  1.0327  1.4278  0.5925
   79SLPC  H16Y 7335   4.435   4.523   8.106 -0.3044 -0.9915  2.0282
   79SLPC  C317 7336   4.372   4.329   8.185 -0.1138  0.2523  0.8973
   79SLPC  H17X 7337   4.474   4.293   8.209 -0.2884  0.6520  2.3092
   79SLPC  H17Y 7338   4.313   4.242   8.150  1.6919 -1.3682  1.7430
   79SLPC  C318 7339   4.314   4.402   8.303 -0.2738  0.3323  0.6494
   79SLPC  H18X 7340   4.209   4.427   8.279 -0.7862  0.7006  3.0403
   79SLPC  H18Y 7341   4.367   4.499   8.317  0.3360  0.1393 -0.1870
   79SLPC  H18Z 7342   4.323   4.353   8.403  2.1436  0.4857  0.5678
   80SLPC     N 7343   5.605   0.881   5.764  0.0394 -0.5559  0.6110
   80SLPC   C13 7344   5.551   1.009   5.829 -0.1311 -0.2939  0.8136
   80SLPC  H13A 7345   5.539   1.007   5.937  1.3973  0.1418  1.0053
   80SLPC  H13B 7346   5.617   1.090   5.802 -1.6643  0.4237 -0.9610
   80SLPC  H13C 7347   5.453   1.027   5.787 -1.1176 -3.2805  1.5696
   80SLPC   C14 7348   5.753   0.878   5.801  0.4271 -0.1596 -0.4338
   80SLPC  H14A 7349   5.757   0.887   5.908 -0.1709  0.0285 -0.4228
   80SLPC  H14B 7350   5.804   0.787   5.774  1.2068  0.0224  0.3713
   80SLPC  H14C 7351   5.800   0.967   5.762  0.6922 -0.1251 -0.0431
   80SLPC   C15 7352   5.596   0.900   5.618 -0.2833  0.4560  0.1089
   80SLPC  H15A 7353   5.630   0.812   5.566  0.8968 -0.0042  1.6144
   80SLPC  H15B 7354   5.497   0.928   5.583 -0.0875  1.0454  0.0204
   80SLPC  H15C 7355   5.664   0.979   5.591  1.3308 -0.3327  1.6851
   80SLPC   C12 7356   5.524   0.761   5.808 -0.2515  0.7215  0.0786
   80SLPC  H12A 7357   5.560   0.673   5.757  1.0671  1.1839  0.1623
   80SLPC  H12B 7358   5.426   0.772   5.765  0.2128  1.6400 -0.8118
   80SLPC   C11 7359   5.516   0.733   5.957 -0.6272 -0.6214 -0.1355
   80SLPC  H11A 7360   5.436   0.660   5.977  0.3990 -0.8348  4.2968
   80SLPC  H11B 7361   5.486   0.827   6.008  0.1550 -0.1775 -0.4723
   80SLPC     P 7362   5.703   0.745   6.136 -0.0767  0.1620 -0.5268
   80SLPC   O13 7363   5.796   0.643   6.191 -0.4631 -0.4285  0.3276
   80SLPC   O14 7364   5.758   0.874   6.099  0.1652  0.0830  0.0895
   80SLPC   O12 7365   5.633   0.682   6.012  0.4400  0.1545 -0.0660
   80SLPC   O11 7366   5.591   0.770   6.240  0.1297 -0.1091  0.0164
   80SLPC    C1 7367   5.542   0.654   6.309  0.2312 -0.3144 -0.1559
   80SLPC    HA 7368   5.523   0.566   6.245 -2.0406 -0.8234  1.1011
   80SLPC    HB 7369   5.605   0.622   6.394 -1.2712 -3.2570 -0.0500
   80SLPC    C2 7370   5.395   0.678   6.365 -0.0302 -0.1504  0.2338
   80SLPC    HS 7371   5.339   0.704   6.273  0.5693 -1.7108 -0.6108
   80SLPC   O21 7372   5.395   0.786   6.463 -0.6797  0.2347  0.0147
   80SLPC   C21 7373   5.287   0.870   6.464 -0.3660  0.0982 -0.2796
   80SLPC   O22 7374   5.196   0.855   6.384 -0.6679  0.2451 -0.3389
   80SLPC   C22 7375   5.295   0.976   6.572  0.3619  0.8894  0.3876
   80SLPC   H2R 7376   5.359   0.959   6.661  0.0300  3.1890  1.1294
   80SLPC   H2S 7377   5.333   1.066   6.520  0.5158  1.0080  0.7070
   80SLPC    C3 7378   5.342   0.547   6.421 -0.0743 -0.5608 -0.5757
   80SLPC    HX 7379   5.351   0.476   6.335 -1.0634 -1.9631  0.4345
   80SLPC    HY 7380   5.235   0.552   6.451 -0.5611  0.2568 -2.3286
   80SLPC   O31 7381   5.435   0.505   6.527  0.5584 -0.4097  0.3270
   80SLPC   C31 7382   5.395   0.518   6.648 -0.1883 -0.6386  0.7633
   80SLPC   O32 7383   5.299   0.588   6.684 -0.1422  0.0118 -0.1918
   80SLPC   C32 7384   5.490   0.451   6.748  0.8434  0.0307 -0.5453
   80SLPC   H2X 7385   5.580   0.517   6.751 -0.1968  1.4604  1.0521
   80SLPC   H2Y 7386   5.515   0.348   6.714  0.4636 -0.9173  1.8632
   80SLPC   C23 7387   5.149   0.998   6.622 -0.6205  0.8001  0.0264
   80SLPC   H3R 7388   5.083   1.015   6.534 -0.0585 -0.1365 -0.5921
   80SLPC   H3S 7389   5.167   1.090   6.682  0.6450 -0.0822  1.0424
   80SLPC   C24 7390   5.098   0.884   6.717  0.8869  0.3617 -0.3376
   80SLPC   H4R 7391   5.100   0.786   6.666 -1.1373  0.2609 -0.2990
   80SLPC   H4S 7392   4.988   0.898   6.719  0.7898 -0.1396 -1.5211
   80SLPC   C25 7393   5.168   0.867   6.858  0.5427  0.0784  0.3767
   80SLPC   H5R 7394   5.146   0.965   6.906 -1.8235 -0.6401  0.8949
   80SLPC   H5S 7395   5.278   0.853   6.856  0.3655 -1.7381  1.4863
   80SLPC   C26 7396   5.097   0.761   6.946  0.1710 -0.4270 -0.2774
   80SLPC   H6R 7397   5.102   0.663   6.895 -0.1629 -0.1466 -0.8635
   80SLPC   H6S 7398   4.991   0.784   6.972 -0.0988 -1.7405 -0.1470
   80SLPC   C27 7399   5.176   0.751   7.079  0.6059 -0.7042 -0.0974
   80SLPC   H7R 7400   5.283   0.753   7.049  1.0658  6.1307  0.5773
   80SLPC   H7S 7401   5.131   0.658   7.121 -3.1861 -0.0707 -2.3057
   80SLPC   C28 7402   5.139   0.857   7.189  0.1115  0.4398  0.9334
   80SLPC   H8R 7403   5.183   0.954   7.157  0.5019  0.6225  1.9801
   80SLPC   H8S 7404   5.198   0.833   7.280  1.8519  1.3503  0.1009
   80SLPC   C29 7405   4.995   0.880   7.224  0.0920 -0.8706 -0.0960
   80SLPC   H9R 7406   4.936   0.899   7.133 -0.0837 -1.6102 -0.1444
   80SLPC  C210 7407   4.939   0.866   7.341 -0.2501  0.2234 -0.5056
   80SLPC  H10R 7408   4.831   0.886   7.341 -0.4273 -0.2060 -3.5925
   80SLPC  C211 7409   5.019   0.838   7.466 -1.1003  0.5708 -1.3483
   80SLPC  H11R 7410   5.119   0.887   7.467  0.0098 -1.5462  1.1705
   80SLPC  H11S 7411   5.044   0.730   7.461  0.3504  0.6668  1.5368
   80SLPC  C212 7412   4.942   0.871   7.593 -0.1064 -0.3087  0.1324
   80SLPC  H12R 7413   4.867   0.800   7.630 -2.4664  1.0627 -1.7057
   80SLPC  C213 7414   4.956   0.988   7.665  0.0509  0.2253  0.1617
   80SLPC  H13R 7415   4.894   1.008   7.754 -1.0369  1.3109 -0.8031
   80SLPC  C214 7416   5.050   1.100   7.632 -0.4053  0.4087  0.2737
   80SLPC  H14R 7417   4.991   1.193   7.620 -1.9094 -0.1616  2.5412
   80SLPC  H14S 7418   5.093   1.089   7.530 -1.9103  0.7176 -0.4267
   80SLPC  C215 7419   5.159   1.140   7.738 -0.1746 -0.1302 -0.3075
   80SLPC  H15R 7420   5.245   1.072   7.720 -0.1435  0.1435 -1.2542
   80SLPC  H15S 7421   5.126   1.119   7.842  0.7989  0.5808  0.1636
   80SLPC  C216 7422   5.188   1.289   7.711  0.2388 -0.5711 -0.0318
   80SLPC  H16R 7423   5.103   1.357   7.735 -0.9261 -2.3008  0.9595
   80SLPC  H16S 7424   5.209   1.294   7.602 -0.0041 -1.6298 -0.1328
   80SLPC  C217 7425   5.316   1.333   7.780  0.5532 -0.3035 -0.1985
   80SLPC  H17R 7426   5.390   1.252   7.768  0.4279 -0.2035 -1.9562
   80SLPC  H17S 7427   5.287   1.331   7.887 -0.2010 -0.2827 -0.3888
   80SLPC  C218 7428   5.364   1.469   7.731 -0.6253 -0.2117 -0.8389
   80SLPC  H18R 7429   5.446   1.507   7.795 -0.3297 -0.7974 -0.8569
   80SLPC  H18S 7430   5.276   1.537   7.728 -1.9537 -1.2129  4.5043
   80SLPC  H18T 7431   5.394   1.461   7.625 -1.4993  0.2595 -1.1373
   80SLPC   C33 7432   5.422   0.450   6.876 -0.4752 -0.1653 -0.4728
   80SLPC   H3X 7433   5.337   0.380   6.867  0.3202 -0.9491 -2.4096
   80SLPC   H3Y 7434   5.391   0.552   6.909 -0.7616 -0.1901 -0.6691
   80SLPC   C34 7435   5.503   0.385   6.997  0.2836  0.0278  0.8735
   80SLPC   H4X 7436   5.582   0.454   7.033  0.2058 -0.3801  1.8691
   80SLPC   H4Y 7437   5.550   0.289   6.966  0.0688  0.8727 -2.5000
   80SLPC   C35 7438   5.420   0.364   7.113  0.5189 -0.1815  0.4616
   80SLPC   H5X 7439   5.379   0.261   7.106  3.3976 -1.3660 -0.6545
   80SLPC   H5Y 7440   5.340   0.441   7.115  1.0387  0.4695 -1.2777
   80SLPC   C36 7441   5.500   0.357   7.245  0.3473  0.1072  0.4267
   80SLPC   H6X 7442   5.425   0.343   7.326  1.2801  0.7596  1.4317
   80SLPC   H6Y 7443   5.554   0.451   7.270  0.3452  0.8648 -2.1375
   80SLPC   C37 7444   5.603   0.243   7.254 -0.2610 -0.2814 -0.0847
   80SLPC   H7X 7445   5.677   0.252   7.171  0.8013  1.4895  0.9741
   80SLPC   H7Y 7446   5.548   0.147   7.251 -1.9393  0.4919  2.7631
   80SLPC   C38 7447   5.672   0.234   7.391 -0.0363 -0.8297  0.0905
   80SLPC   H8X 7448   5.719   0.332   7.417  1.3602 -1.7636  1.2561
   80SLPC   H8Y 7449   5.755   0.160   7.386  1.9385  1.0415  2.2433
   80SLPC   C39 7450   5.576   0.192   7.502  0.1623 -0.6654 -0.2267
   80SLPC   H9X 7451   5.507   0.110   7.476 -0.5063 -0.2126  0.1057
   80SLPC   H9Y 7452   5.513   0.281   7.524  0.6053 -0.4248  0.0942
   80SLPC  C310 7453   5.663   0.161   7.627  0.1775 -0.8335 -0.2732
   80SLPC  H10X 7454   5.747   0.231   7.611 -0.5258 -0.0343 -0.5429
   80SLPC  H10Y 7455   5.707   0.059   7.623  1.2258 -0.4403  0.6964
   80SLPC  C311 7456   5.588   0.174   7.755  0.9383  0.0731 -0.5803
   80SLPC  H11X 7457   5.496   0.113   7.752  1.0625 -0.1120 -0.6755
   80SLPC  H11Y 7458   5.548   0.277   7.756  3.4216  1.1372  1.1916
   80SLPC  C312 7459   5.667   0.145   7.883  0.1323  0.4084  0.3480
   80SLPC  H12X 7460   5.725   0.051   7.873  0.3045  0.5767 -0.2535
   80SLPC  H12Y 7461   5.598   0.136   7.970 -0.3315 -0.6318 -0.1139
   80SLPC  C313 7462   5.774   0.247   7.909 -0.5227 -0.3986  0.6527
   80SLPC  H13X 7463   5.729   0.348   7.903 -1.0243 -0.6124  0.7052
   80SLPC  H13Y 7464   5.848   0.246   7.826  0.0113  0.7304  1.1104
   80SLPC  C314 7465   5.864   0.236   8.030  0.3261 -0.2886 -0.8954
   80SLPC  H14X 7466   5.932   0.148   8.028  3.0254  1.6328  0.7332
   80SLPC  H14Y 7467   5.808   0.225   8.126 -1.2843  0.1842 -1.7499
   80SLPC  C315 7468   5.960   0.361   8.045 -0.4422 -0.3034  1.1474
   80SLPC  H15X 7469   5.893   0.450   8.040  0.0536  0.0897  1.3830
   80SLPC  H15Y 7470   6.022   0.357   7.953 -2.2616  0.4983 -0.1676
   80SLPC  C316 7471   6.031   0.372   8.184 -0.7806 -1.0232  0.1258
   80SLPC  H16X 7472   6.080   0.275   8.207  0.3156 -0.7274 -0.8644
   80SLPC  H16Y 7473   5.951   0.383   8.260 -0.2476 -1.0044  0.6856
   80SLPC  C317 7474   6.135   0.487   8.187  0.0842 -0.0985  0.2734
   80SLPC  H17X 7475   6.187   0.491   8.089 -0.8748 -0.8998 -0.2757
   80SLPC  H17Y 7476   6.208   0.461   8.267 -2.0895  0.3031  2.5276
   80SLPC  C318 7477   6.079   0.618   8.228 -0.0295 -0.0991 -0.0919
   80SLPC  H18X 7478   6.013   0.609   8.317 -0.9207  0.9661 -0.6288
   80SLPC  H18Y 7479   6.026   0.661   8.141  0.6715 -0.3216 -0.6442
   80SLPC  H18Z 7480   6.154   0.695   8.259  1.2860 -0.9117 -1.1222
   81SAPS     N 7481   2.992   3.577  10.556 -0.3606 -0.5280 -0.0943
   81SAPS   HN1 7482   3.093   3.555  10.561  0.1888  1.6058 -0.5895
   81SAPS   HN2 7483   2.942   3.498  10.510 -1.1548  0.1902 -0.4979
   81SAPS   HN3 7484   2.990   3.665  10.499 -2.8693  1.8542  3.2548
   81SAPS   C12 7485   2.934   3.599  10.694  0.3171  0.2284  0.0996
   81SAPS  H12A 7486   3.006   3.667  10.737 -1.0138  2.3005 -0.7578
   81SAPS   C13 7487   2.796   3.663  10.708  0.5006  0.0787  0.6152
   81SAPS  O13A 7488   2.727   3.680  10.604  0.0062 -0.5491 -0.4178
   81SAPS  O13B 7489   2.752   3.691  10.823 -0.2074  0.0336 -1.1634
   81SAPS   C11 7490   2.913   3.453  10.760  0.4476  0.3875 -0.3394
   81SAPS  H11A 7491   2.839   3.389  10.708  2.0574 -0.4296 -1.7371
   81SAPS  H11B 7492   2.874   3.495  10.855  0.3280  2.3257 -1.1889
   81SAPS     P 7493   3.038   3.239  10.843  0.0820  0.2468  0.6701
   81SAPS   O13 7494   3.177   3.218  10.880  0.1741 -0.3253 -0.0141
   81SAPS   O14 7495   2.943   3.225  10.957 -0.2124 -0.2654  0.6887
   81SAPS   O12 7496   3.030   3.380  10.778 -0.3513 -0.5801  0.4626
   81SAPS   O11 7497   2.995   3.151  10.716  0.1722 -0.0033  0.0948
   81SAPS    C1 7498   3.093   3.116  10.619 -0.0422  0.4228 -0.1194
   81SAPS    HA 7499   3.198   3.115  10.657 -0.0563 -1.1932 -0.0135
   81SAPS    HB 7500   3.081   3.011  10.584  0.0888  0.7198 -1.0942
   81SAPS    C2 7501   3.078   3.199  10.482  0.0663  0.8822 -0.5776
   81SAPS    HS 7502   3.082   3.306  10.511 -0.6670  1.0261 -0.9776
   81SAPS   O21 7503   2.953   3.163  10.425  0.3349 -0.1405 -0.5467
   81SAPS   C21 7504   2.883   3.265  10.361  0.6176  0.4658  0.4612
   81SAPS   O22 7505   2.915   3.385  10.372 -0.6081 -0.0983  0.2951
   81SAPS   C22 7506   2.770   3.209  10.283  0.2244 -0.3481 -0.1142
   81SAPS   H2R 7507   2.813   3.152  10.197  0.0681  0.1883 -0.5550
   81SAPS   H2S 7508   2.712   3.142  10.350  1.0248  0.1756  1.1378
   81SAPS    C3 7509   3.192   3.155  10.387  1.0969 -0.5570  0.0946
   81SAPS    HX 7510   3.200   3.044  10.382 -0.9417 -0.6816 -2.7058
   81SAPS    HY 7511   3.283   3.196  10.434  0.2836 -0.5433  1.7250
   81SAPS   O31 7512   3.156   3.203  10.259  0.0763 -0.3167  0.5114
   81SAPS   C31 7513   3.259   3.223  10.187  0.2836  0.0764  0.5779
   81SAPS   O32 7514   3.376   3.204  10.214  0.2619  0.6472 -0.0865
   81SAPS   C32 7515   3.209   3.280  10.051  0.6885 -0.9487  0.4275
   81SAPS   H2X 7516   3.239   3.387  10.043  0.8221 -1.1329 -2.7309
   81SAPS   H2Y 7517   3.098   3.293  10.046  0.9027  0.7765 -2.0127
   81SAPS   C23 7518   2.679   3.328  10.233  0.1935  0.9442 -0.0352
   81SAPS   H3R 7519   2.641   3.377  10.325  0.8422  3.7076 -1.1418
   81SAPS   H3S 7520   2.596   3.274  10.181  2.6492 -1.9361 -1.2527
   81SAPS   C24 7521   2.738   3.430  10.140 -0.6494  0.1209 -0.8544
   81SAPS   H4R 7522   2.835   3.472  10.173 -0.5278 -0.2190 -0.7779
   81SAPS   H4S 7523   2.657   3.501  10.113 -1.0511  0.3579  0.8692
   81SAPS   C25 7524   2.785   3.355  10.011  0.6924 -0.0202 -0.4534
   81SAPS   H5R 7525   2.847   3.266  10.028  2.1567  1.1006  0.3518
   81SAPS   C26 7526   2.732   3.379   9.890 -0.0739  0.2103 -0.0560
   81SAPS   H6R 7527   2.761   3.324   9.800 -0.2548  0.8347 -0.5021
   81SAPS   C27 7528   2.627   3.484   9.848  0.1474  0.1649  0.4380
   81SAPS   H7R 7529   2.645   3.507   9.741  2.0361  0.7587  0.8520
   81SAPS   H7S 7530   2.642   3.580   9.901  0.4227 -0.4147  1.4566
   81SAPS   C28 7531   2.487   3.441   9.855  0.7073 -0.2185  0.3641
   81SAPS   H8R 7532   2.470   3.363   9.931 -2.8369 -0.1939 -0.2306
   81SAPS   C29 7533   2.389   3.500   9.780  0.0671 -0.0424 -1.1163
   81SAPS   H9R 7534   2.288   3.457   9.787  0.9018 -1.8994  0.6098
   81SAPS  C210 7535   2.401   3.606   9.668  0.1024 -0.4658  0.4308
   81SAPS  H10R 7536   2.489   3.583   9.604  0.0365 -2.0318  0.8536
   81SAPS  H10S 7537   2.421   3.701   9.722  3.0772 -0.9572  0.3530
   81SAPS  C211 7538   2.276   3.619   9.592  0.1611 -0.5880 -0.6769
   81SAPS  H11R 7539   2.272   3.554   9.504  1.4089 -0.2348 -1.0212
   81SAPS  C212 7540   2.173   3.700   9.617 -0.1635 -0.2330  0.6581
   81SAPS  H12R 7541   2.084   3.692   9.553 -0.2173 -1.2407  0.8413
   81SAPS  C213 7542   2.155   3.796   9.728  0.0778 -0.7034 -0.3725
   81SAPS  H13R 7543   2.244   3.797   9.794  0.2545 -1.6138 -0.5870
   81SAPS  H13S 7544   2.066   3.776   9.791 -0.3659 -0.8634 -1.0441
   81SAPS  C214 7545   2.124   3.933   9.686 -0.0570 -0.5727  0.4403
   81SAPS  H14R 7546   2.167   3.977   9.596  0.9042  0.2839  1.2908
   81SAPS  C215 7547   2.050   4.022   9.753 -0.3567 -0.6048 -0.7763
   81SAPS  H15R 7548   2.044   4.124   9.713  3.5473 -0.5759 -1.7112
   81SAPS  C216 7549   1.989   3.996   9.888  0.3284 -0.6529 -0.6409
   81SAPS  H16R 7550   1.993   4.084   9.955  0.0602 -1.7869  0.9362
   81SAPS  H16S 7551   2.035   3.917   9.952  1.8546  0.0541 -0.8258
   81SAPS  C217 7552   1.839   3.965   9.863  0.2630  0.1298 -0.3083
   81SAPS  H17R 7553   1.843   3.870   9.805 -1.3829 -0.1102 -0.0687
   81SAPS  H17S 7554   1.781   4.038   9.802  0.3587  1.0782  0.7147
   81SAPS  C218 7555   1.771   3.945   9.993 -0.4830  0.0348 -0.6816
   81SAPS  H18R 7556   1.761   4.040  10.049 -2.6532  2.3377 -4.5511
   81SAPS  H18S 7557   1.834   3.875  10.052 -0.5826 -0.4139 -1.0923
   81SAPS  C219 7558   1.635   3.891   9.969  0.9939 -0.1135  0.0815
   81SAPS  H19R 7559   1.649   3.795   9.915  1.7417 -0.1569  0.3424
   81SAPS  H19S 7560   1.583   3.963   9.901  2.4362 -0.1019 -1.0637
   81SAPS  C220 7561   1.542   3.881  10.089  0.8251 -0.4672  1.0007
   81SAPS  H20R 7562   1.577   3.820  10.174  2.0029 -0.7046  0.3708
   81SAPS  H20S 7563   1.446   3.835  10.058 -0.6416  2.6667  0.4672
   81SAPS  H20T 7564   1.519   3.985  10.121  0.2173 -0.4380  0.5040
   81SAPS   C33 7565   3.279   3.206   9.930  0.0802 -0.0866 -0.1909
   81SAPS   H3X 7566   3.237   3.104   9.917  3.2468 -1.4154 -1.0223
   81SAPS   H3Y 7567   3.390   3.210   9.943  0.1025 -2.3680  0.7951
   81SAPS   C34 7568   3.258   3.272   9.790 -0.3263  0.8042 -1.0569
   81SAPS   H4X 7569   3.317   3.214   9.716  1.4197  2.0300 -0.6904
   81SAPS   H4Y 7570   3.294   3.377   9.800  1.1454  0.1583  1.1634
   81SAPS   C35 7571   3.108   3.263   9.757 -0.3123 -0.2303 -0.6346
   81SAPS   H5X 7572   3.051   3.308   9.842 -0.5043  0.6847 -1.2304
   81SAPS   H5Y 7573   3.076   3.157   9.754 -0.5884 -0.1797  0.3480
   81SAPS   C36 7574   3.094   3.350   9.627  0.0845 -0.4845  0.0728
   81SAPS   H6X 7575   3.150   3.293   9.550  3.0887 -0.6316  2.1981
   81SAPS   H6Y 7576   3.141   3.450   9.642 -5.9199  2.8654 -0.3616
   81SAPS   C37 7577   2.950   3.375   9.593  0.6943  0.1372 -0.7080
   81SAPS   H7X 7578   2.907   3.434   9.676  1.0288 -1.2742  0.5106
   81SAPS   H7Y 7579   2.889   3.282   9.596  0.3523  0.3699  1.9557
   81SAPS   C38 7580   2.917   3.432   9.450  0.1946  0.7801 -0.8543
   81SAPS   H8X 7581   2.937   3.362   9.366  0.5626 -1.6122  1.1081
   81SAPS   H8Y 7582   2.976   3.522   9.422  1.5534  0.0990 -0.2815
   81SAPS   C39 7583   2.759   3.451   9.443 -0.3647  0.4548 -0.2372
   81SAPS   H9X 7584   2.747   3.540   9.508  2.1697  0.7481 -0.0842
   81SAPS   H9Y 7585   2.706   3.359   9.478  1.8617 -2.1461 -3.1095
   81SAPS  C310 7586   2.705   3.485   9.302  0.0001  0.4876  0.4382
   81SAPS  H10X 7587   2.771   3.422   9.239 -1.5079 -0.9485  0.2232
   81SAPS  H10Y 7588   2.734   3.589   9.277  2.0441  0.0216  0.6785
   81SAPS  C311 7589   2.553   3.459   9.277 -0.3092  0.3599 -0.3725
   81SAPS  H11X 7590   2.490   3.530   9.334 -1.5032 -1.2061  0.3608
   81SAPS  H11Y 7591   2.531   3.353   9.305 -1.3265  0.5038 -0.5976
   81SAPS  C312 7592   2.506   3.484   9.128 -0.2998  0.7325 -0.1809
   81SAPS  H12X 7593   2.408   3.440   9.102 -0.2221  1.1891 -1.2916
   81SAPS  H12Y 7594   2.585   3.424   9.078  0.5804 -0.8411  2.8980
   81SAPS  C313 7595   2.515   3.626   9.076 -0.0125 -0.2147  0.4425
   81SAPS  H13X 7596   2.613   3.672   9.103  0.0912  0.9663 -1.7629
   81SAPS  H13Y 7597   2.442   3.693   9.127  1.4002  0.8383  1.1633
   81SAPS  C314 7598   2.489   3.640   8.922 -0.1076  0.0959  0.6069
   81SAPS  H14X 7599   2.378   3.644   8.910  0.0776 -0.9355 -2.4770
   81SAPS  H14Y 7600   2.521   3.546   8.872  2.0484 -0.0538  2.1447
   81SAPS  C315 7601   2.546   3.764   8.854  0.3494  0.5204 -0.2865
   81SAPS  H15X 7602   2.655   3.758   8.875 -0.1526 -1.3233  2.2608
   81SAPS  H15Y 7603   2.515   3.852   8.916 -2.2475 -0.4474 -0.0810
   81SAPS  C316 7604   2.529   3.767   8.698  0.2890  0.0579  0.0746
   81SAPS  H16X 7605   2.428   3.810   8.679 -0.5734 -2.1251 -0.5673
   81SAPS  H16Y 7606   2.507   3.667   8.654 -0.3395  1.4457 -3.0249
   81SAPS  C317 7607   2.632   3.835   8.615 -0.3587 -0.1632 -0.1962
   81SAPS  H17X 7608   2.726   3.776   8.606 -0.0197  0.3442  0.0054
   81SAPS  H17Y 7609   2.661   3.932   8.660  0.7643 -0.1626 -0.8818
   81SAPS  C318 7610   2.577   3.878   8.474 -0.1020 -0.6339 -0.9675
   81SAPS  H18X 7611   2.500   3.957   8.485  1.2998  0.6779 -0.2108
   81SAPS  H18Y 7612   2.514   3.798   8.430  1.9227 -2.2106 -1.1268
   81SAPS  H18Z 7613   2.664   3.900   8.409  1.6169  0.0993  1.4152
   82SAPS     N 7614   0.622   1.829  11.005 -0.0799  0.0305  0.1932
   82SAPS   HN1 7615   0.580   1.860  11.095  1.6125  2.3258  0.2898
   82SAPS   HN2 7616   0.621   1.728  10.984 -0.0820  0.5815 -2.7881
   82SAPS   HN3 7617   0.726   1.831  11.006 -0.0272  0.0484 -1.9712
   82SAPS   C12 7618   0.557   1.901  10.889  0.2522 -0.1027  0.4929
   82SAPS  H12A 7619   0.452   1.908  10.911 -0.2129 -1.1880 -1.2200
   82SAPS   C13 7620   0.599   2.044  10.879 -0.2447 -0.1251  0.4393
   82SAPS  O13A 7621   0.685   2.092  10.960  0.5290 -1.1524 -0.0752
   82SAPS  O13B 7622   0.554   2.110  10.781 -0.3962 -0.1125  0.0324
   82SAPS   C11 7623   0.590   1.823  10.753  0.6217 -0.3599 -0.4086
   82SAPS  H11A 7624   0.700   1.816  10.738  0.5052 -2.2075 -0.7127
   82SAPS  H11B 7625   0.549   1.882  10.669  1.2098  2.6522  1.2913
   82SAPS     P 7626   0.389   1.654  10.712  0.2020  0.4736 -0.2587
   82SAPS   O13 7627   0.378   1.505  10.688 -0.5220 -0.1060 -0.2999
   82SAPS   O14 7628   0.292   1.710  10.810  0.2298 -0.4170 -0.1970
   82SAPS   O12 7629   0.540   1.691  10.748 -0.0291  0.0560 -0.4962
   82SAPS   O11 7630   0.366   1.732  10.578 -0.8908  0.4275  0.4399
   82SAPS    C1 7631   0.418   1.695  10.453 -0.0005  0.4946 -0.0699
   82SAPS    HA 7632   0.502   1.759  10.418 -0.1726 -0.3553 -2.1831
   82SAPS    HB 7633   0.448   1.589  10.463 -1.1941  0.3433  2.9715
   82SAPS    C2 7634   0.312   1.719  10.344  0.6690 -0.2840  0.3085
   82SAPS    HS 7635   0.360   1.666  10.259 -0.7191 -2.4719  0.8029
   82SAPS   O21 7636   0.296   1.862  10.327 -0.3368  0.6218  0.3737
   82SAPS   C21 7637   0.362   1.908  10.216 -0.2099  0.2772 -0.2395
   82SAPS   O22 7638   0.439   1.845  10.143  0.4374 -0.3214 -0.1579
   82SAPS   C22 7639   0.315   2.058  10.198  0.0990  0.1760 -0.7269
   82SAPS   H2R 7640   0.206   2.051  10.179  0.3299  0.7833 -2.4725
   82SAPS   H2S 7641   0.327   2.119  10.290  0.9469  2.5212 -2.3099
   82SAPS    C3 7642   0.181   1.645  10.375  0.1083 -0.2701  0.1240
   82SAPS    HX 7643   0.138   1.702  10.460 -1.2942  0.4385 -1.0222
   82SAPS    HY 7644   0.205   1.542  10.410  1.8322  0.2522  0.6064
   82SAPS   O31 7645   0.088   1.638  10.268  0.0245  0.3424  0.2364
   82SAPS   C31 7646   0.007   1.739  10.240  0.2443 -0.4108  0.0135
   82SAPS   O32 7647   0.010   1.844  10.305 -0.1557  0.2822 -0.5970
   82SAPS   C32 7648  -0.080   1.709  10.117  0.0884  0.4050  0.3302
   82SAPS   H2X 7649  -0.162   1.781  10.133 -0.3919 -0.3220  1.2640
   82SAPS   H2Y 7650  -0.106   1.601  10.119 -1.2160  0.7031  0.2913
   82SAPS   C23 7651   0.369   2.128  10.078  0.0672 -0.0287  0.4248
   82SAPS   H3R 7652   0.376   2.064   9.986 -0.9728  1.2302 -0.5726
   82SAPS   H3S 7653   0.469   2.170  10.100 -0.1761 -0.2715  2.1119
   82SAPS   C24 7654   0.278   2.245  10.033 -0.6646 -0.3142 -0.0703
   82SAPS   H4R 7655   0.174   2.214  10.007 -0.5272 -1.4084  0.6000
   82SAPS   H4S 7656   0.330   2.307   9.958 -1.0472 -1.0660 -0.9688
   82SAPS   C25 7657   0.244   2.344  10.145  0.2538  0.2565 -0.1766
   82SAPS   H5R 7658   0.229   2.303  10.246  0.9236 -1.9724 -0.9119
   82SAPS   C26 7659   0.196   2.463  10.127 -0.3011 -0.4368  0.3466
   82SAPS   H6R 7660   0.156   2.511  10.218 -0.2595 -1.9173  1.1723
   82SAPS   C27 7661   0.193   2.542   9.990 -0.2243  0.3536  0.0362
   82SAPS   H7R 7662   0.165   2.471   9.910 -0.3264 -0.7630  1.0269
   82SAPS   H7S 7663   0.300   2.559   9.964  0.2912 -0.6320  1.3796
   82SAPS   C28 7664   0.100   2.656   9.975 -0.3807  0.1309 -0.9805
   82SAPS   H8R 7665   0.089   2.723  10.061 -1.7172  0.5234 -1.4280
   82SAPS   C29 7666   0.044   2.704   9.861 -0.2067 -0.9505 -0.3904
   82SAPS   H9R 7667  -0.009   2.800   9.877  0.3866 -0.9340  1.7601
   82SAPS  C210 7668   0.061   2.663   9.712 -0.3206  0.2841  0.1335
   82SAPS  H10R 7669  -0.025   2.604   9.673 -1.1591  0.6255  1.4208
   82SAPS  H10S 7670   0.142   2.588   9.706  0.1966  0.9184 -2.5287
   82SAPS  C211 7671   0.096   2.787   9.631 -0.1189  0.1189 -0.7729
   82SAPS  H11R 7672   0.201   2.816   9.650  1.1135 -2.5918 -2.7378
   82SAPS  C212 7673   0.025   2.854   9.541  0.2206 -0.0805  0.7796
   82SAPS  H12R 7674   0.060   2.951   9.501  1.7768 -0.0678  2.0756
   82SAPS  C213 7675  -0.116   2.818   9.502  0.6942 -0.1684  0.4417
   82SAPS  H13R 7676  -0.177   2.780   9.587 -1.5906  1.5390 -0.3183
   82SAPS  H13S 7677  -0.103   2.733   9.432  1.0071 -0.2567  0.6039
   82SAPS  C214 7678  -0.181   2.941   9.444 -0.4366 -0.4086 -0.4868
   82SAPS  H14R 7679  -0.268   2.967   9.506  0.8463 -0.7841  1.5449
   82SAPS  C215 7680  -0.163   2.998   9.324 -0.1214 -0.3175 -0.1422
   82SAPS  H15R 7681  -0.233   3.078   9.295  2.9543  2.1819 -1.2602
   82SAPS  C216 7682  -0.058   2.957   9.223 -0.2930 -0.0615  0.4839
   82SAPS  H16R 7683  -0.108   2.907   9.137  2.1851 -3.3436  0.7356
   82SAPS  H16S 7684   0.024   2.891   9.258  0.8067  0.2375 -1.3755
   82SAPS  C217 7685   0.027   3.076   9.171  0.3722  0.8280 -0.2619
   82SAPS  H17R 7686   0.092   3.113   9.253 -0.4631  0.2803  0.6584
   82SAPS  H17S 7687  -0.037   3.164   9.150  1.6706  2.6993  2.9677
   82SAPS  C218 7688   0.108   3.044   9.049 -0.9868 -0.0577  0.2202
   82SAPS  H18R 7689   0.044   3.026   8.960  1.1088  0.5675 -1.5202
   82SAPS  H18S 7690   0.163   2.951   9.076 -1.1033 -0.7877 -1.8618
   82SAPS  C219 7691   0.198   3.164   8.999 -0.2098  0.6948 -0.0634
   82SAPS  H19R 7692   0.245   3.214   9.087 -2.1603 -0.6519  1.8443
   82SAPS  H19S 7693   0.127   3.234   8.951  0.2458  1.3408  0.1770
   82SAPS  C220 7694   0.296   3.124   8.897 -0.2639 -0.5608  0.0296
   82SAPS  H20R 7695   0.375   3.057   8.936 -0.3723 -1.0268 -0.5395
   82SAPS  H20S 7696   0.334   3.211   8.839 -1.0982 -0.7224 -0.7781
   82SAPS  H20T 7697   0.230   3.060   8.835 -2.6995 -1.3355  3.1442
   82SAPS   C33 7698  -0.017   1.749   9.987 -0.2840 -0.3183  0.3665
   82SAPS   H3X 7699  -0.066   1.694   9.904  1.2656 -0.3275 -0.5883
   82SAPS   H3Y 7700   0.085   1.705   9.986  0.4527  1.3321  0.1844
   82SAPS   C34 7701  -0.006   1.905   9.966 -0.1016 -0.1610  0.2833
   82SAPS   H4X 7702   0.058   1.956  10.041 -0.1336 -1.5029  1.2354
   82SAPS   H4Y 7703  -0.107   1.951   9.960  0.3535  0.7098 -1.5857
   82SAPS   C35 7704   0.064   1.942   9.829  0.4269 -0.0804  0.5478
   82SAPS   H5X 7705   0.027   1.870   9.752 -0.1024  1.0766 -0.3039
   82SAPS   H5Y 7706   0.174   1.924   9.832  0.2228 -2.3998 -2.0487
   82SAPS   C36 7707   0.034   2.081   9.774  0.0407 -0.4179  0.1585
   82SAPS   H6X 7708   0.067   2.155   9.850 -1.1068  0.4660 -0.1695
   82SAPS   H6Y 7709  -0.075   2.091   9.752  0.1674  1.0426  0.0749
   82SAPS   C37 7710   0.126   2.109   9.651 -0.4856  0.4515  0.5972
   82SAPS   H7X 7711   0.084   2.064   9.558 -0.4311 -0.7461  1.1395
   82SAPS   H7Y 7712   0.220   2.055   9.674 -0.8576  0.6172  2.6163
   82SAPS   C38 7713   0.156   2.258   9.634  0.0721 -0.2877  0.3418
   82SAPS   H8X 7714   0.219   2.301   9.715 -0.6766 -0.4989  1.0516
   82SAPS   H8Y 7715   0.061   2.316   9.632  0.0280 -0.2899  1.5976
   82SAPS   C39 7716   0.240   2.268   9.504  0.6120 -0.2017 -0.5705
   82SAPS   H9X 7717   0.173   2.252   9.417  0.4486 -0.4516 -0.3995
   82SAPS   H9Y 7718   0.331   2.204   9.503 -0.2722 -1.4848 -0.3580
   82SAPS  C310 7719   0.282   2.419   9.474 -0.0302  0.3385 -0.4539
   82SAPS  H10X 7720   0.368   2.414   9.404  2.6253 -1.0041  2.6644
   82SAPS  H10Y 7721   0.315   2.467   9.568 -1.7586 -2.3351  1.6555
   82SAPS  C311 7722   0.174   2.500   9.406 -0.5663  0.9836 -0.3944
   82SAPS  H11X 7723   0.195   2.608   9.423 -0.4969  0.9089 -0.0021
   82SAPS  H11Y 7724   0.075   2.492   9.456 -0.0669  0.5873  0.5503
   82SAPS  C312 7725   0.157   2.473   9.258 -0.7718  0.5275  0.0029
   82SAPS  H12X 7726   0.140   2.367   9.232  1.0901  0.6540 -1.9754
   82SAPS  H12Y 7727   0.261   2.491   9.221 -0.8820 -1.0555 -1.1300
   82SAPS  C313 7728   0.057   2.574   9.193  0.5252 -0.5914 -0.6185
   82SAPS  H13X 7729   0.095   2.675   9.220 -0.0056 -0.1672 -1.4011
   82SAPS  H13Y 7730  -0.039   2.550   9.244  1.5038 -2.1794  0.5613
   82SAPS  C314 7731   0.051   2.561   9.038  0.5180 -0.0947  0.5364
   82SAPS  H14X 7732   0.030   2.456   9.009  1.0262  0.0878 -0.5486
   82SAPS  H14Y 7733   0.154   2.586   9.005  1.0503 -2.6450  0.1039
   82SAPS  C315 7734  -0.053   2.648   8.972  0.5573  0.4435 -0.1988
   82SAPS  H15X 7735  -0.049   2.755   9.003  3.0251  1.1691 -2.6499
   82SAPS  H15Y 7736  -0.153   2.624   9.015  0.8363 -0.8341 -0.2074
   82SAPS  C316 7737  -0.061   2.637   8.820 -0.2144 -0.2652 -0.2046
   82SAPS  H16X 7738  -0.157   2.675   8.778 -1.2356 -1.1190  1.2396
   82SAPS  H16Y 7739  -0.041   2.540   8.770 -1.2170  0.8777 -3.0341
   82SAPS  C317 7740   0.047   2.731   8.759  0.5284 -0.0703  0.8455
   82SAPS  H17X 7741   0.138   2.667   8.750  1.0472  0.6924  0.5924
   82SAPS  H17Y 7742   0.053   2.815   8.831 -0.9420  3.0835 -2.4316
   82SAPS  C318 7743   0.020   2.798   8.619 -0.9907 -0.3320  0.4367
   82SAPS  H18X 7744   0.118   2.830   8.578 -0.8458 -2.3839 -0.9952
   82SAPS  H18Y 7745  -0.058   2.875   8.633 -0.2345  0.3454  1.0332
   82SAPS  H18Z 7746  -0.018   2.716   8.554  0.9706 -0.3431 -0.7766
   83SAPS     N 7747   2.105   4.265  11.197  0.7615 -0.1651  0.4508
   83SAPS   HN1 7748   2.090   4.269  11.094 -0.4765  0.7864  0.6453
   83SAPS   HN2 7749   2.067   4.177  11.239  3.8810 -1.4443  0.8212
   83SAPS   HN3 7750   2.038   4.334  11.237  0.4081 -0.6036  0.6417
   83SAPS   C12 7751   2.241   4.280  11.249  0.2244  0.1837  0.0629
   83SAPS  H12A 7752   2.273   4.380  11.226  0.7548 -0.4521 -2.2207
   83SAPS   C13 7753   2.254   4.246  11.397  0.1282  0.0542  0.0559
   83SAPS  O13A 7754   2.155   4.202  11.459  0.4521  0.0715  0.4059
   83SAPS  O13B 7755   2.360   4.264  11.450 -0.0932  0.1077 -0.2939
   83SAPS   C11 7756   2.337   4.178  11.169 -0.4902 -0.1639  0.3530
   83SAPS  H11A 7757   2.299   4.074  11.175 -0.3861 -0.1919  0.5368
   83SAPS  H11B 7758   2.435   4.174  11.221 -1.2638  0.1355  1.8860
   83SAPS     P 7759   2.448   4.135  10.930 -0.4008  0.2199 -0.1813
   83SAPS   O13 7760   2.474   3.996  10.985 -0.0220 -0.2783 -0.7518
   83SAPS   O14 7761   2.388   4.142  10.796 -0.4493 -0.0662  0.0590
   83SAPS   O12 7762   2.351   4.219  11.032 -0.2966  0.1938 -0.3477
   83SAPS   O11 7763   2.581   4.211  10.930  0.0189  0.0688  0.2094
   83SAPS    C1 7764   2.601   4.349  10.960  0.3357 -0.2651  0.5437
   83SAPS    HA 7765   2.526   4.384  11.034  0.8256  0.6874  0.6040
   83SAPS    HB 7766   2.700   4.361  11.009  0.6206 -0.0581 -0.0811
   83SAPS    C2 7767   2.608   4.437  10.835 -0.2927  0.3554 -0.2779
   83SAPS    HS 7768   2.607   4.537  10.883  1.4449  1.0628 -1.5907
   83SAPS   O21 7769   2.498   4.415  10.753  0.4067  0.7329 -0.0725
   83SAPS   C21 7770   2.384   4.472  10.804 -0.4147  0.2936 -0.5954
   83SAPS   O22 7771   2.375   4.541  10.907  0.0115  0.1450 -0.1386
   83SAPS   C22 7772   2.271   4.433  10.712 -0.9465 -0.2850 -0.1309
   83SAPS   H2R 7773   2.296   4.342  10.654  0.0950 -0.0887 -0.0092
   83SAPS   H2S 7774   2.193   4.402  10.785  0.2989  1.7684  2.2512
   83SAPS    C3 7775   2.745   4.412  10.763 -0.1731  0.9326 -0.3494
   83SAPS    HX 7776   2.765   4.303  10.755 -0.4524  0.5979  2.4907
   83SAPS    HY 7777   2.831   4.446  10.826  0.7223 -0.8587 -0.5538
   83SAPS   O31 7778   2.756   4.480  10.635 -0.1803 -0.1606 -0.0959
   83SAPS   C31 7779   2.708   4.421  10.528 -0.6990 -0.3399  0.2405
   83SAPS   O32 7780   2.662   4.311  10.517  0.0140  0.2085 -0.5178
   83SAPS   C32 7781   2.754   4.517  10.412 -0.1046  0.3512  0.1135
   83SAPS   H2X 7782   2.861   4.494  10.391  0.5999  1.5837  2.1210
   83SAPS   H2Y 7783   2.756   4.620  10.454 -1.8445  0.4161  0.0980
   83SAPS   C23 7784   2.247   4.552  10.619  0.6358 -0.0653 -0.1233
   83SAPS   H3R 7785   2.325   4.568  10.541  0.9983  4.2560  0.8842
   83SAPS   H3S 7786   2.239   4.650  10.669 -0.0524  0.2410 -0.8055
   83SAPS   C24 7787   2.110   4.540  10.541  0.1825 -0.2555 -0.5379
   83SAPS   H4R 7788   2.029   4.532  10.616  1.9781  0.4197  1.5779
   83SAPS   H4S 7789   2.107   4.438  10.497 -0.3068 -1.6371  2.4953
   83SAPS   C25 7790   2.084   4.648  10.438  0.4519 -0.0564  0.7793
   83SAPS   H5R 7791   2.085   4.752  10.474  1.6001 -0.4018  1.7892
   83SAPS   C26 7792   2.069   4.643  10.303  0.1225  0.2607  0.2113
   83SAPS   H6R 7793   2.065   4.741  10.253  0.3029  0.0720 -0.1754
   83SAPS   C27 7794   2.073   4.520  10.220 -0.4521  0.2391 -0.5546
   83SAPS   H7R 7795   1.990   4.516  10.146 -1.4335  4.5605  0.0250
   83SAPS   H7S 7796   2.074   4.429  10.283 -0.7753  1.0026  0.5840
   83SAPS   C28 7797   2.213   4.520  10.147  0.4811  0.3014  1.2328
   83SAPS   H8R 7798   2.304   4.493  10.202  1.6590  1.5049 -0.0312
   83SAPS   C29 7799   2.224   4.549  10.016  0.0706  0.4356 -0.2242
   83SAPS   H9R 7800   2.327   4.537   9.980 -0.2764 -0.5457 -0.9278
   83SAPS  C210 7801   2.120   4.599   9.915  0.5769 -0.0419 -0.2134
   83SAPS  H10R 7802   2.022   4.619   9.964  0.4879 -0.9569 -0.0153
   83SAPS  H10S 7803   2.097   4.522   9.838  0.4207 -1.0250  0.7978
   83SAPS  C211 7804   2.171   4.733   9.868  0.1512 -0.5631 -0.2948
   83SAPS  H11R 7805   2.195   4.798   9.953  1.6622 -0.9112 -0.4263
   83SAPS  C212 7806   2.177   4.777   9.742 -0.1680  0.0498  0.1645
   83SAPS  H12R 7807   2.224   4.873   9.714  1.4567 -0.4818  0.9664
   83SAPS  C213 7808   2.143   4.704   9.615  0.6641  0.2859  0.3940
   83SAPS  H13R 7809   2.059   4.766   9.577 -0.3474 -0.5195  1.2234
   83SAPS  H13S 7810   2.091   4.608   9.640  1.2259 -0.0733  0.2096
   83SAPS  C214 7811   2.247   4.669   9.513  0.2951 -1.0298  0.5081
   83SAPS  H14R 7812   2.347   4.650   9.554 -0.1801 -0.3702  2.0388
   83SAPS  C215 7813   2.231   4.678   9.379  0.1133  0.8049 -0.1071
   83SAPS  H15R 7814   2.319   4.658   9.316  1.4667 -0.4854  2.0546
   83SAPS  C216 7815   2.105   4.723   9.306  0.0103 -0.6158 -0.2862
   83SAPS  H16R 7816   2.089   4.833   9.303 -1.1781 -0.7998 -0.8747
   83SAPS  H16S 7817   2.018   4.681   9.359 -1.1117  1.7477 -0.1083
   83SAPS  C217 7818   2.089   4.658   9.166  0.0564  0.4961 -0.5231
   83SAPS  H17R 7819   1.984   4.685   9.140 -0.4650  0.0173  0.9803
   83SAPS  H17S 7820   2.103   4.548   9.171 -0.3814  0.4589  0.1317
   83SAPS  C218 7821   2.183   4.725   9.070 -0.0106 -0.0363  0.5865
   83SAPS  H18R 7822   2.284   4.701   9.109  0.3710  1.2720  0.4221
   83SAPS  H18S 7823   2.182   4.836   9.072 -0.6401  0.0780 -2.0062
   83SAPS  C219 7824   2.174   4.677   8.923  0.2404 -0.2527 -0.2130
   83SAPS  H19R 7825   2.262   4.723   8.874 -0.1897  0.8746  0.0328
   83SAPS  H19S 7826   2.076   4.704   8.878 -0.3132 -0.4255  0.8601
   83SAPS  C220 7827   2.185   4.520   8.903  0.0472 -0.0144 -0.7764
   83SAPS  H20R 7828   2.268   4.473   8.961 -1.2435 -2.0980 -0.5419
   83SAPS  H20S 7829   2.196   4.500   8.794  0.6661  2.1853 -1.1692
   83SAPS  H20T 7830   2.089   4.475   8.936  0.1339 -1.5290 -2.4072
   83SAPS   C33 7831   2.662   4.511  10.296 -0.2010 -0.2047 -0.5407
   83SAPS   H3X 7832   2.555   4.525  10.321  0.0749 -1.3348  1.4742
   83SAPS   H3Y 7833   2.657   4.408  10.255  1.3012 -0.6012  0.1927
   83SAPS   C34 7834   2.691   4.608  10.185 -0.3181  0.0058  0.0444
   83SAPS   H4X 7835   2.779   4.577  10.126  0.6959 -2.3512  2.5741
   83SAPS   H4Y 7836   2.730   4.706  10.220  1.4124 -0.8714  0.6952
   83SAPS   C35 7837   2.569   4.628  10.090 -0.0922  0.3378 -0.0370
   83SAPS   H5X 7838   2.494   4.660  10.166  1.8486  1.8609  1.3436
   83SAPS   H5Y 7839   2.538   4.527  10.055 -1.6017  0.3037  1.2529
   83SAPS   C36 7840   2.582   4.718   9.968  0.5809 -0.1436  0.3161
   83SAPS   H6X 7841   2.599   4.821  10.006 -0.7624 -0.1289  0.9390
   83SAPS   H6Y 7842   2.486   4.725   9.913  0.7422  1.3120  0.1806
   83SAPS   C37 7843   2.701   4.674   9.880  0.7951  0.3029  0.4613
   83SAPS   H7X 7844   2.685   4.566   9.856  1.7665  0.9169 -3.7769
   83SAPS   H7Y 7845   2.792   4.668   9.944  0.8900  2.2019  0.5581
   83SAPS   C38 7846   2.704   4.758   9.757  0.5885 -0.3659  0.1290
   83SAPS   H8X 7847   2.747   4.858   9.782  0.2270 -0.4846  1.3102
   83SAPS   H8Y 7848   2.600   4.770   9.718  0.4981 -1.6042 -0.0343
   83SAPS   C39 7849   2.803   4.687   9.652  0.1262 -0.2782 -0.0969
   83SAPS   H9X 7850   2.770   4.586   9.620  1.6540 -0.7430 -0.2624
   83SAPS   H9Y 7851   2.900   4.678   9.705  0.0926 -4.3746 -0.4628
   83SAPS  C310 7852   2.828   4.768   9.528 -0.3834 -0.8925  0.5127
   83SAPS  H10X 7853   2.874   4.864   9.560  2.1076 -2.6426  2.5797
   83SAPS  H10Y 7854   2.735   4.789   9.471  1.3810 -2.4034 -3.2410
   83SAPS  C311 7855   2.939   4.709   9.440  0.5525 -0.5064 -0.0567
   83SAPS  H11X 7856   2.929   4.599   9.453  1.1014 -0.7536 -1.5898
   83SAPS  H11Y 7857   3.032   4.736   9.494 -1.2184  0.8964  2.5304
   83SAPS  C312 7858   2.952   4.760   9.298  0.6677 -0.1233 -0.0668
   83SAPS  H12X 7859   2.850   4.732   9.263  1.1276  0.8579 -2.3715
   83SAPS  H12Y 7860   3.019   4.695   9.237 -0.1322 -1.1361  0.0949
   83SAPS  C313 7861   2.960   4.909   9.286 -0.5783 -0.0142  0.1597
   83SAPS  H13X 7862   3.054   4.944   9.335  0.2212 -1.2198 -0.4622
   83SAPS  H13Y 7863   2.870   4.953   9.333 -1.0446  0.1401 -0.8550
   83SAPS  C314 7864   2.977   4.963   9.139 -0.4710  0.2723  0.3998
   83SAPS  H14X 7865   2.993   5.073   9.135  2.7202 -0.1228 -0.1220
   83SAPS  H14Y 7866   2.885   4.944   9.080  0.0886 -0.2107 -0.3299
   83SAPS  C315 7867   3.089   4.901   9.053  0.3951  0.1041  0.7823
   83SAPS  H15X 7868   3.067   4.793   9.044  1.2819 -0.0072 -0.1864
   83SAPS  H15Y 7869   3.188   4.911   9.103  2.4717 -3.1722 -2.2170
   83SAPS  C316 7870   3.081   4.940   8.906 -0.1094 -0.9114  0.2102
   83SAPS  H16X 7871   3.070   5.048   8.881 -1.4221 -1.6136 -2.6638
   83SAPS  H16Y 7872   3.005   4.881   8.851 -0.3609  1.6544 -2.4770
   83SAPS  C317 7873   3.218   4.905   8.844  0.3173  0.6078 -0.1292
   83SAPS  H17X 7874   3.233   4.801   8.879  0.8658  0.9100  0.5662
   83SAPS  H17Y 7875   3.294   4.974   8.888  2.5146 -0.6186 -1.7984
   83SAPS  C318 7876   3.239   4.906   8.691 -0.0456 -0.0949 -0.8360
   83SAPS  H18X 7877   3.346   4.896   8.662  0.3117  1.7733 -0.2712
   83SAPS  H18Y 7878   3.199   4.997   8.642 -1.1685 -1.5614 -2.7915
   83SAPS  H18Z 7879   3.187   4.817   8.650 -0.3074  0.1185 -0.9674
   84SAPS     N 7880   4.291   4.347  11.027 -0.0988 -0.2366  0.2260
   84SAPS   HN1 7881   4.386   4.311  11.005  1.0285  2.8258 -0.4027
   84SAPS   HN2 7882   4.259   4.395  10.941  0.2895  0.7772  0.6248
   84SAPS   HN3 7883   4.299   4.418  11.103 -3.4525  0.7051 -0.1293
   84SAPS   C12 7884   4.193   4.240  11.054 -0.6207 -0.3043  0.0577
   84SAPS  H12A 7885   4.214   4.194  11.149 -0.2577  1.0393  0.6457
   84SAPS   C13 7886   4.055   4.305  11.080  0.5789  0.7410 -0.6978
   84SAPS  O13A 7887   4.036   4.430  11.075  0.3485 -0.0479  0.5817
   84SAPS  O13B 7888   3.963   4.222  11.099 -0.4239 -0.1854 -0.1064
   84SAPS   C11 7889   4.183   4.134  10.947 -0.0965 -0.2739 -0.4318
   84SAPS  H11A 7890   4.178   4.194  10.854  0.3699  2.9195  1.4821
   84SAPS  H11B 7891   4.095   4.066  10.942 -1.2311  1.1355 -0.1681
   84SAPS     P 7892   4.324   3.910  10.974  0.2826  0.0678  0.5028
   84SAPS   O13 7893   4.404   3.897  11.099 -0.3429 -0.4828  0.2609
   84SAPS   O14 7894   4.191   3.850  10.973  0.5236 -0.1581 -0.0880
   84SAPS   O12 7895   4.304   4.061  10.933  0.1345  0.3929 -0.4762
   84SAPS   O11 7896   4.407   3.843  10.850  0.0949  0.0289  0.0571
   84SAPS    C1 7897   4.536   3.880  10.805 -0.2966 -1.2131  0.4000
   84SAPS    HA 7898   4.594   3.937  10.881 -2.7127  0.8560  0.8518
   84SAPS    HB 7899   4.606   3.797  10.783  1.9023  0.5703  0.1961
   84SAPS    C2 7900   4.518   3.964  10.680 -0.2079 -0.2117 -0.8339
   84SAPS    HS 7901   4.465   4.054  10.717  1.2941  0.4991 -0.3298
   84SAPS   O21 7902   4.446   3.877  10.585  0.1343 -0.2207 -0.4603
   84SAPS   C21 7903   4.387   3.941  10.486  0.3258  0.6265 -0.5196
   84SAPS   O22 7904   4.359   4.055  10.482 -0.1207  0.3360 -0.3133
   84SAPS   C22 7905   4.343   3.839  10.378 -0.4967 -0.8931  0.2554
   84SAPS   H2R 7906   4.301   3.747  10.424  0.3876 -1.6539 -0.4069
   84SAPS   H2S 7907   4.268   3.898  10.322  0.2980 -1.1146 -1.0792
   84SAPS    C3 7908   4.654   4.008  10.623 -0.0373  0.1439  0.5299
   84SAPS    HX 7909   4.704   3.918  10.582 -1.7466 -1.6367  2.1127
   84SAPS    HY 7910   4.715   4.057  10.702 -0.6429  1.5540  0.1457
   84SAPS   O31 7911   4.639   4.090  10.512 -0.1240  0.1618 -0.8148
   84SAPS   C31 7912   4.709   4.205  10.507 -0.2538 -0.1353  0.7395
   84SAPS   O32 7913   4.781   4.251  10.590 -0.4517  0.7507  0.1001
   84SAPS   C32 7914   4.686   4.282  10.373 -0.2104  0.1950  0.1733
   84SAPS   H2X 7915   4.710   4.390  10.380  0.8198 -0.0862  1.6111
   84SAPS   H2Y 7916   4.579   4.265  10.350  0.2989 -3.9369  0.1723
   84SAPS   C23 7917   4.464   3.807  10.282 -0.2548  0.3702  0.1739
   84SAPS   H3R 7918   4.429   3.736  10.204 -0.3681  3.3469 -2.6895
   84SAPS   H3S 7919   4.537   3.748  10.343 -2.0893 -0.0241  2.1028
   84SAPS   C24 7920   4.535   3.934  10.226  0.0223  0.2026  0.1376
   84SAPS   H4R 7921   4.609   3.893  10.153  0.4718 -0.1066  0.7613
   84SAPS   H4S 7922   4.603   3.979  10.301  1.0540 -0.1744 -0.5344
   84SAPS   C25 7923   4.434   4.034  10.168  0.4579 -0.1263 -0.1446
   84SAPS   H5R 7924   4.388   4.108  10.235 -0.4442  0.2034 -1.0952
   84SAPS   C26 7925   4.377   4.044  10.051  0.9471 -0.1170  0.4384
   84SAPS   H6R 7926   4.310   4.129  10.034 -1.2874 -1.9576 -0.4207
   84SAPS   C27 7927   4.409   3.946   9.934  0.5408 -0.3855 -0.5424
   84SAPS   H7R 7928   4.315   3.893   9.906 -1.3208  2.2788  0.2143
   84SAPS   H7S 7929   4.477   3.866   9.968  0.7660 -0.0871 -0.2888
   84SAPS   C28 7930   4.465   4.026   9.818 -0.1074  0.4153 -0.0954
   84SAPS   H8R 7931   4.568   4.062   9.818 -0.5745  1.9858 -2.5935
   84SAPS   C29 7932   4.393   4.069   9.710  0.0185  0.4009  0.2233
   84SAPS   H9R 7933   4.427   4.143   9.635 -0.3175  1.7388  1.3558
   84SAPS  C210 7934   4.247   4.041   9.673  0.2113  0.0353  0.8883
   84SAPS  H10R 7935   4.217   3.945   9.720  2.3573 -0.1995  1.8925
   84SAPS  H10S 7936   4.239   4.029   9.563  0.5548  2.1560  0.5795
   84SAPS  C211 7937   4.159   4.149   9.736 -0.2583 -0.0615 -0.2031
   84SAPS  H11R 7938   4.180   4.176   9.841  0.1891  0.2668 -0.3734
   84SAPS  C212 7939   4.072   4.226   9.669 -0.0046  0.0586 -0.3136
   84SAPS  H12R 7940   4.005   4.296   9.721  0.1821  1.2348 -1.6064
   84SAPS  C213 7941   4.035   4.223   9.524  0.3425 -0.2275  0.3223
   84SAPS  H13R 7942   4.131   4.223   9.469  1.2222 -2.3749  1.7608
   84SAPS  H13S 7943   3.973   4.311   9.497  0.3256  0.4903  2.4876
   84SAPS  C214 7944   3.957   4.102   9.488 -0.8603 -0.3743  0.1930
   84SAPS  H14R 7945   3.943   4.019   9.559 -2.5566 -0.1004  0.2121
   84SAPS  C215 7946   3.937   4.076   9.357  0.1417 -0.2639  0.3187
   84SAPS  H15R 7947   3.894   3.977   9.335 -0.8895  0.2466 -0.0320
   84SAPS  C216 7948   3.959   4.157   9.235 -0.3017  0.5152 -0.0832
   84SAPS  H16R 7949   3.966   4.263   9.267  0.8918  0.5704 -0.4501
   84SAPS  H16S 7950   3.875   4.171   9.164 -0.3419  4.0777  0.5053
   84SAPS  C217 7951   4.082   4.123   9.147 -0.0344  0.0734  0.3188
   84SAPS  H17R 7952   4.171   4.114   9.214 -0.6047 -3.5332  0.8201
   84SAPS  H17S 7953   4.097   4.203   9.071  0.1804 -0.4647 -0.2111
   84SAPS  C218 7954   4.080   3.981   9.076 -0.9693 -0.2295 -0.0091
   84SAPS  H18R 7955   3.978   3.969   9.033 -0.3207 -1.3095 -1.3183
   84SAPS  H18S 7956   4.107   3.909   9.156  0.9782  2.6752  2.1524
   84SAPS  C219 7957   4.168   3.966   8.944  0.4958  0.9724  0.4888
   84SAPS  H19R 7958   4.274   3.953   8.975  0.2870 -0.2184  0.7252
   84SAPS  H19S 7959   4.154   4.064   8.892 -2.3503 -0.2158 -1.1896
   84SAPS  C220 7960   4.117   3.855   8.849 -0.6658  0.6778 -0.4936
   84SAPS  H20R 7961   4.009   3.863   8.827 -1.4525 -0.0274  2.6466
   84SAPS  H20S 7962   4.134   3.764   8.910 -4.1879  0.7055  0.7190
   84SAPS  H20T 7963   4.175   3.856   8.754  0.9604 -0.3030  0.4340
   84SAPS   C33 7964   4.764   4.225  10.249  0.3341  0.4264  0.1874
   84SAPS   H3X 7965   4.732   4.119  10.245  0.9649  0.2179  0.4965
   84SAPS   H3Y 7966   4.873   4.219  10.272  1.0428  2.1056 -2.2870
   84SAPS   C34 7967   4.740   4.298  10.115  0.4309  0.3367  0.2243
   84SAPS   H4X 7968   4.763   4.407  10.122  1.1437  0.0838  2.6386
   84SAPS   H4Y 7969   4.629   4.287  10.107  0.2856  2.3315 -1.6465
   84SAPS   C35 7970   4.805   4.230   9.994  0.3178  0.1894  0.4666
   84SAPS   H5X 7971   4.746   4.141   9.963  2.4763 -2.1631  2.7293
   84SAPS   H5Y 7972   4.901   4.197  10.037 -1.7544 -3.6160  2.7687
   84SAPS   C36 7973   4.832   4.330   9.877  0.6153  0.4144 -0.1983
   84SAPS   H6X 7974   4.921   4.394   9.891  0.1220  1.2429 -0.7686
   84SAPS   H6Y 7975   4.737   4.388   9.873 -0.2358 -0.6252  2.4298
   84SAPS   C37 7976   4.843   4.246   9.747 -0.1522 -0.2310 -0.2827
   84SAPS   H7X 7977   4.780   4.156   9.760  1.6730 -1.3875  1.1754
   84SAPS   H7Y 7978   4.944   4.208   9.723  0.0924  0.8402 -1.0299
   84SAPS   C38 7979   4.795   4.342   9.634  0.3525 -0.1780 -0.2760
   84SAPS   H8X 7980   4.870   4.423   9.621 -0.0394  0.1475 -0.5137
   84SAPS   H8Y 7981   4.695   4.388   9.652  0.9308  1.6324 -1.3665
   84SAPS   C39 7982   4.785   4.283   9.491  0.4407 -0.3480  0.3869
   84SAPS   H9X 7983   4.890   4.268   9.457  0.7260  1.6947  0.2405
   84SAPS   H9Y 7984   4.736   4.359   9.426  0.8656 -2.0146 -2.0340
   84SAPS  C310 7985   4.710   4.154   9.463 -0.7710 -0.9743 -0.7322
   84SAPS  H10X 7986   4.620   4.139   9.527 -0.6053 -0.7940 -0.4549
   84SAPS  H10Y 7987   4.782   4.075   9.495  1.3029  0.8019 -0.7709
   84SAPS  C311 7988   4.660   4.153   9.319  0.5647 -0.0228  0.3627
   84SAPS  H11X 7989   4.747   4.141   9.251  1.0396 -0.3183  1.0099
   84SAPS  H11Y 7990   4.611   4.246   9.284 -0.4575 -0.8250 -0.4079
   84SAPS  C312 7991   4.558   4.037   9.291  1.3311  0.2915 -0.4325
   84SAPS  H12X 7992   4.462   4.069   9.337  0.9870  1.4938 -1.9117
   84SAPS  H12Y 7993   4.601   3.952   9.349  1.0834  1.3248  1.3374
   84SAPS  C313 7994   4.531   4.017   9.140 -0.6574  0.2328 -0.4350
   84SAPS  H13X 7995   4.506   4.106   9.079  1.3818 -0.6322 -2.6646
   84SAPS  H13Y 7996   4.449   3.942   9.143  0.4378 -0.9830  2.0342
   84SAPS  C314 7997   4.646   3.942   9.070  0.5302 -0.1741  0.0052
   84SAPS  H14X 7998   4.691   3.876   9.147 -0.5572 -1.5250 -0.4654
   84SAPS  H14Y 7999   4.717   4.014   9.025 -0.3181  0.2813 -0.6373
   84SAPS  C315 8000   4.578   3.856   8.964 -0.8369  0.2044  0.6972
   84SAPS  H15X 8001   4.525   3.925   8.894  1.1795  0.8478 -0.2644
   84SAPS  H15Y 8002   4.513   3.781   9.013 -1.3694 -1.6298 -2.5189
   84SAPS  C316 8003   4.676   3.766   8.885 -0.2465  0.0380  1.1343
   84SAPS  H16X 8004   4.739   3.704   8.952  0.8349 -0.1693 -0.0503
   84SAPS  H16Y 8005   4.744   3.826   8.821  1.0230 -2.1742  0.2858
   84SAPS  C317 8006   4.594   3.690   8.771 -0.4504  0.6256 -0.0260
   84SAPS  H17X 8007   4.510   3.747   8.727 -0.0954  0.0193 -1.5500
   84SAPS  H17Y 8008   4.545   3.597   8.807 -1.3761  0.9670 -0.3769
   84SAPS  C318 8009   4.687   3.648   8.647 -0.2111 -0.3684 -0.2954
   84SAPS  H18X 8010   4.716   3.734   8.582 -1.4977  0.5892  0.3612
   84SAPS  H18Y 8011   4.636   3.575   8.580 -0.8441  0.6626 -0.9645
   84SAPS  H18Z 8012   4.778   3.596   8.684 -0.5595 -1.1839 -0.5658
   85SAPS     N 8013   0.988   0.051  10.924  0.4349 -0.1795  0.2507
   85SAPS   HN1 8014   0.913   0.043  10.852  1.2380 -1.5697 -0.4830
   85SAPS   HN2 8015   0.996   0.147  10.963  1.9557 -0.3593  0.4414
   85SAPS   HN3 8016   1.081   0.022  10.888  0.9712 -1.5642  2.5971
   85SAPS   C12 8017   0.969  -0.044  11.037  0.2878  0.1247  0.8967
   85SAPS  H12A 8018   1.065  -0.055  11.086  0.1709 -0.1775  1.0615
   85SAPS   C13 8019   0.866  -0.001  11.132 -0.2453 -0.0486  0.2976
   85SAPS  O13A 8020   0.812   0.113  11.118  0.1254 -0.9685 -0.0037
   85SAPS  O13B 8021   0.827  -0.084  11.221  0.2147  0.2542  0.2917
   85SAPS   C11 8022   0.936  -0.177  10.971  0.6734  0.1096  0.1291
   85SAPS  H11A 8023   0.831  -0.167  10.936  1.2025  0.3261 -1.4537
   85SAPS  H11B 8024   0.938  -0.258  11.048 -0.0431 -0.0539 -0.0222
   85SAPS     P 8025   1.010  -0.334  10.775 -0.6002  0.0697 -0.1480
   85SAPS   O13 8026   1.030  -0.453  10.858 -0.0141 -0.2388  0.6603
   85SAPS   O14 8027   0.884  -0.331  10.694  0.1631  0.1857 -0.1978
   85SAPS   O12 8028   1.019  -0.208  10.861 -0.4411  0.0551  0.5917
   85SAPS   O11 8029   1.128  -0.320  10.673 -0.5216  0.1211  0.6995
   85SAPS    C1 8030   1.141  -0.194  10.609  0.4047 -0.0865  0.3735
   85SAPS    HA 8031   1.041  -0.172  10.566 -0.2362 -2.8571  0.2694
   85SAPS    HB 8032   1.185  -0.115  10.673  1.5995  0.3870 -0.9750
   85SAPS    C2 8033   1.237  -0.204  10.481 -0.1397 -0.5009  0.1044
   85SAPS    HS 8034   1.225  -0.109  10.426 -0.6213  0.6878  2.1599
   85SAPS   O21 8035   1.221  -0.331  10.412 -0.0447  0.0358 -0.1768
   85SAPS   C21 8036   1.137  -0.319  10.308 -0.6089  0.9157  0.1567
   85SAPS   O22 8037   1.099  -0.217  10.262 -0.4452 -0.0331  0.4225
   85SAPS   C22 8038   1.115  -0.463  10.248  0.4154 -0.0251 -0.6633
   85SAPS   H2R 8039   1.109  -0.536  10.331  0.4004 -1.8008 -2.1583
   85SAPS   H2S 8040   1.012  -0.457  10.207 -0.7250 -0.3526  1.9628
   85SAPS    C3 8041   1.382  -0.198  10.542 -1.2070  0.7078 -0.4420
   85SAPS    HX 8042   1.402  -0.281  10.613  0.8101  0.3133 -1.3965
   85SAPS    HY 8043   1.376  -0.112  10.613  2.0450  0.7602 -0.0686
   85SAPS   O31 8044   1.498  -0.182  10.457  0.8811  0.1878 -0.1346
   85SAPS   C31 8045   1.548  -0.289  10.400  0.2901 -0.4797 -0.6417
   85SAPS   O32 8046   1.530  -0.405  10.429  0.1505  0.1784 -0.4154
   85SAPS   C32 8047   1.628  -0.236  10.277 -0.1515  0.4604  0.2646
   85SAPS   H2X 8048   1.735  -0.264  10.285 -0.4912 -1.6344 -1.5482
   85SAPS   H2Y 8049   1.633  -0.126  10.268  0.5365  0.4206  0.0588
   85SAPS   C23 8050   1.209  -0.519  10.139 -0.0833 -0.1592 -0.0534
   85SAPS   H3R 8051   1.182  -0.617  10.095 -2.5590  0.5653 -0.3001
   85SAPS   H3S 8052   1.312  -0.521  10.179 -0.5881 -1.8408  1.2924
   85SAPS   C24 8053   1.214  -0.423  10.018 -0.0470  0.3670 -0.2096
   85SAPS   H4R 8054   1.273  -0.474   9.938  0.6764  0.8241  0.0200
   85SAPS   H4S 8055   1.272  -0.341  10.064  0.4244 -0.2608  0.3365
   85SAPS   C25 8056   1.078  -0.376   9.970  0.4139  0.8965 -0.3670
   85SAPS   H5R 8057   1.027  -0.306  10.037  0.1046  0.3708 -0.0422
   85SAPS   C26 8058   1.019  -0.409   9.848 -0.1147  0.6123  0.1648
   85SAPS   H6R 8059   0.915  -0.384   9.821 -0.0182  0.0688 -0.7698
   85SAPS   C27 8060   1.074  -0.494   9.736 -0.0144  0.1238  0.8008
   85SAPS   H7R 8061   0.987  -0.548   9.693  0.1684 -0.9944  1.7949
   85SAPS   H7S 8062   1.143  -0.571   9.777  2.1739  1.7503  0.3491
   85SAPS   C28 8063   1.146  -0.419   9.633 -0.1444  0.0137  0.6733
   85SAPS   H8R 8064   1.219  -0.347   9.673 -0.8065 -0.0591  2.0651
   85SAPS   C29 8065   1.135  -0.434   9.499  0.4428 -0.5341 -0.4371
   85SAPS   H9R 8066   1.183  -0.357   9.436 -2.2450  1.2762 -0.4207
   85SAPS  C210 8067   1.057  -0.536   9.425 -0.4138 -0.1916  0.5122
   85SAPS  H10R 8068   1.000  -0.482   9.347 -2.8027 -0.9244  1.6587
   85SAPS  H10S 8069   0.979  -0.583   9.488 -2.0706 -1.6965 -2.4239
   85SAPS  C211 8070   1.128  -0.649   9.350  0.6154 -0.7844 -0.1442
   85SAPS  H11R 8071   1.118  -0.740   9.410  2.6153 -0.6443  0.4667
   85SAPS  C212 8072   1.191  -0.646   9.232  0.4932 -0.3921  0.1388
   85SAPS  H12R 8073   1.230  -0.738   9.185  0.0021  1.1902 -3.7377
   85SAPS  C213 8074   1.205  -0.532   9.141  0.2948  0.0367 -0.1815
   85SAPS  H13R 8075   1.255  -0.448   9.193  1.3452  0.2377 -1.4679
   85SAPS  H13S 8076   1.106  -0.495   9.105 -0.3483  1.1755  2.5183
   85SAPS  C214 8077   1.283  -0.564   9.013 -0.0472  0.0457  0.1664
   85SAPS  H14R 8078   1.391  -0.571   9.037 -0.0550 -1.1510 -0.1018
   85SAPS  C215 8079   1.235  -0.580   8.887  0.0253 -1.3159 -0.5673
   85SAPS  H15R 8080   1.315  -0.592   8.812  1.7612 -1.4573  1.2188
   85SAPS  C216 8081   1.089  -0.570   8.845 -0.8297 -0.3548  0.2944
   85SAPS  H16R 8082   1.055  -0.464   8.835  2.3573  0.7361  0.0395
   85SAPS  H16S 8083   1.033  -0.636   8.914 -2.3850 -0.6798 -1.2166
   85SAPS  C217 8084   1.070  -0.619   8.696 -0.0182  0.2594  0.1305
   85SAPS  H17R 8085   0.963  -0.615   8.666 -0.1411  1.6188  0.6685
   85SAPS  H17S 8086   1.100  -0.726   8.696 -0.5430  0.0773  1.6038
   85SAPS  C218 8087   1.132  -0.538   8.578  0.2108 -0.1829  0.1123
   85SAPS  H18R 8088   1.225  -0.487   8.611 -0.7574  1.2749  0.6731
   85SAPS  H18S 8089   1.067  -0.451   8.555  0.0634 -0.7995 -2.0929
   85SAPS  C219 8090   1.156  -0.617   8.445  0.0056 -0.0620  1.0613
   85SAPS  H19R 8091   1.245  -0.684   8.444  0.1954  0.1631 -1.0481
   85SAPS  H19S 8092   1.191  -0.538   8.375  0.1762 -1.4745 -0.5185
   85SAPS  C220 8093   1.023  -0.669   8.389 -0.7024  0.1788 -0.4548
   85SAPS  H20R 8094   0.949  -0.586   8.386  0.9516  1.7718  0.1855
   85SAPS  H20S 8095   0.982  -0.755   8.446  0.9226 -0.7863 -0.6845
   85SAPS  H20T 8096   1.043  -0.694   8.283  1.9769 -0.6187  0.1523
   85SAPS   C33 8097   1.562  -0.294  10.151 -0.3157 -0.3756 -0.5326
   85SAPS   H3X 8098   1.463  -0.245  10.145 -1.7898 -3.0024  0.3517
   85SAPS   H3Y 8099   1.547  -0.404  10.159  0.2395 -0.7081 -3.2653
   85SAPS   C34 8100   1.636  -0.262  10.026 -0.6699 -0.1616 -0.2752
   85SAPS   H4X 8101   1.737  -0.307  10.018 -0.1619  1.0473 -1.0109
   85SAPS   H4Y 8102   1.653  -0.152  10.023  2.0526 -0.4762  0.4575
   85SAPS   C35 8103   1.556  -0.296   9.897  0.0483 -0.2020 -0.6891
   85SAPS   H5X 8104   1.466  -0.232   9.883 -0.4731 -1.1213 -1.6177
   85SAPS   H5Y 8105   1.514  -0.397   9.918 -1.0855  0.0861 -1.4867
   85SAPS   C36 8106   1.640  -0.293   9.761  0.3630 -0.0134 -1.8593
   85SAPS   H6X 8107   1.725  -0.360   9.786 -0.6822 -0.5981  0.3227
   85SAPS   H6Y 8108   1.692  -0.196   9.745 -0.6124  0.8056 -0.3038
   85SAPS   C37 8109   1.559  -0.334   9.642 -0.0293  0.7066  0.3170
   85SAPS   H7X 8110   1.480  -0.259   9.620 -0.2800  0.5222  0.5939
   85SAPS   H7Y 8111   1.505  -0.429   9.662 -1.8316  1.5800 -0.2160
   85SAPS   C38 8112   1.647  -0.336   9.522  0.1684  0.6085  0.5729
   85SAPS   H8X 8113   1.737  -0.395   9.549 -1.7834 -2.6937  0.3289
   85SAPS   H8Y 8114   1.675  -0.230   9.502  0.0496  0.1296 -2.7576
   85SAPS   C39 8115   1.579  -0.398   9.402  0.4995 -0.1709  0.3315
   85SAPS   H9X 8116   1.484  -0.352   9.368  0.4381  0.2893  1.1079
   85SAPS   H9Y 8117   1.546  -0.503   9.417 -2.3654  0.2339 -2.1723
   85SAPS  C310 8118   1.670  -0.384   9.276 -0.3397 -0.2477 -0.2377
   85SAPS  H10X 8119   1.759  -0.448   9.296 -0.1949 -0.9546 -2.8348
   85SAPS  H10Y 8120   1.708  -0.280   9.267 -2.0138  0.4339  0.1494
   85SAPS  C311 8121   1.595  -0.433   9.146 -0.1933  0.2208 -0.1432
   85SAPS  H11X 8122   1.504  -0.369   9.133  0.9927  1.5025 -2.8171
   85SAPS  H11Y 8123   1.556  -0.536   9.159 -1.0732  0.0987 -3.0037
   85SAPS  C312 8124   1.693  -0.418   9.031 -0.5020 -0.4300 -0.1107
   85SAPS  H12X 8125   1.765  -0.502   9.045  0.2082  0.3257  1.0610
   85SAPS  H12Y 8126   1.752  -0.324   9.039 -2.4213  0.7532  0.9301
   85SAPS  C313 8127   1.619  -0.416   8.894  0.1297  0.4304  0.0670
   85SAPS  H13X 8128   1.548  -0.331   8.896 -0.9564 -0.3496 -2.0362
   85SAPS  H13Y 8129   1.557  -0.507   8.875  2.6319 -1.1200 -1.1911
   85SAPS  C314 8130   1.721  -0.395   8.775  0.2480  0.5564 -0.7264
   85SAPS  H14X 8131   1.803  -0.468   8.793 -1.7578 -1.5380  0.5171
   85SAPS  H14Y 8132   1.756  -0.290   8.782  0.4826  0.4127  0.5118
   85SAPS  C315 8133   1.659  -0.411   8.638  0.0177  0.3778  0.4677
   85SAPS  H15X 8134   1.720  -0.363   8.559  0.3696  1.0086  1.1097
   85SAPS  H15Y 8135   1.561  -0.359   8.638  0.2004  0.7472  1.8593
   85SAPS  C316 8136   1.639  -0.560   8.599 -0.3933  0.7230  0.5081
   85SAPS  H16X 8137   1.556  -0.603   8.659  1.3194 -0.6471  2.0139
   85SAPS  H16Y 8138   1.727  -0.619   8.630  1.1005  2.3091 -0.5163
   85SAPS  C317 8139   1.604  -0.577   8.446  0.1273  0.3144 -0.4500
   85SAPS  H17X 8140   1.700  -0.557   8.393  0.7646  1.6355  1.1412
   85SAPS  H17Y 8141   1.532  -0.499   8.413 -0.9813 -0.6568 -0.3948
   85SAPS  C318 8142   1.551  -0.715   8.407  0.1131  0.2277  0.6579
   85SAPS  H18X 8143   1.613  -0.805   8.424 -2.4049 -1.8882 -0.7411
   85SAPS  H18Y 8144   1.541  -0.715   8.296 -0.3626  0.0757  0.6996
   85SAPS  H18Z 8145   1.452  -0.739   8.450  1.0607 -1.4292  2.0426
   86SAPS     N 8146   3.912   6.706  10.954 -0.2415 -0.2421  0.7483
   86SAPS   HN1 8147   3.884   6.751  10.865  0.3824  0.5120  0.9276
   86SAPS   HN2 8148   3.876   6.766  11.031 -2.3651  1.3928 -1.3650
   86SAPS   HN3 8149   4.016   6.709  10.951 -0.2556  0.0800 -1.9699
   86SAPS   C12 8150   3.869   6.558  10.950 -0.1746 -0.0244 -0.0906
   86SAPS  H12A 8151   3.886   6.519  10.851  0.7135 -0.6907  0.3156
   86SAPS   C13 8152   3.941   6.470  11.052 -0.0868  0.0538 -0.4159
   86SAPS  O13A 8153   4.032   6.526  11.117 -0.2904  0.4807  0.2469
   86SAPS  O13B 8154   3.907   6.351  11.052 -0.4869 -0.1521 -0.5955
   86SAPS   C11 8155   3.713   6.547  10.973 -0.2388  0.3014 -0.8990
   86SAPS  H11A 8156   3.707   6.552  11.084  0.1576  1.1424 -0.9023
   86SAPS  H11B 8157   3.667   6.452  10.939 -1.9721 -0.5004  3.1663
   86SAPS     P 8158   3.525   6.661  10.831  0.1742 -0.3392 -0.0653
   86SAPS   O13 8159   3.404   6.652  10.914  0.0849  0.1116  0.1263
   86SAPS   O14 8160   3.529   6.785  10.752 -0.3353  0.0095 -0.1146
   86SAPS   O12 8161   3.648   6.661  10.925 -0.1752 -0.0519 -0.0366
   86SAPS   O11 8162   3.546   6.537  10.731  0.4559  0.1216 -0.0826
   86SAPS    C1 8163   3.440   6.451  10.689  0.1085  1.1246  0.8452
   86SAPS    HA 8164   3.420   6.368  10.760 -1.3381  1.1036  0.4441
   86SAPS    HB 8165   3.342   6.504  10.687 -0.8411 -0.5315  1.9240
   86SAPS    C2 8166   3.478   6.399  10.538  0.1619 -0.2358  0.5389
   86SAPS    HS 8167   3.381   6.383  10.487  0.0981  0.4804  0.4237
   86SAPS   O21 8168   3.557   6.282  10.534  0.0984 -0.7495 -0.2587
   86SAPS   C21 8169   3.482   6.167  10.556 -0.2033  1.0309  0.6226
   86SAPS   O22 8170   3.368   6.161  10.582  0.0149  0.4061  0.8064
   86SAPS   C22 8171   3.583   6.052  10.527  0.3602  0.3087 -0.0840
   86SAPS   H2R 8172   3.650   6.065  10.440 -0.6460  1.7522 -0.6867
   86SAPS   H2S 8173   3.657   6.047  10.610  2.9028 -1.8680 -2.2905
   86SAPS    C3 8174   3.563   6.511  10.472 -0.4499  0.6993 -0.1400
   86SAPS    HX 8175   3.656   6.527  10.531 -0.7054 -0.0357  0.4731
   86SAPS    HY 8176   3.493   6.597  10.476  1.3353  2.2099  0.0667
   86SAPS   O31 8177   3.586   6.480  10.333 -0.3807  0.0149  0.4466
   86SAPS   C31 8178   3.677   6.546  10.273 -0.0552 -0.7067  0.7469
   86SAPS   O32 8179   3.744   6.637  10.320 -0.3234 -0.1393  0.3306
   86SAPS   C32 8180   3.701   6.488  10.129  0.7538 -0.0626 -0.1623
   86SAPS   H2X 8181   3.643   6.393  10.124 -2.9507  1.9079  1.1200
   86SAPS   H2Y 8182   3.810   6.466  10.127  0.8287  0.3111 -0.2544
   86SAPS   C23 8183   3.522   5.909  10.516  0.1989 -0.0787  0.2054
   86SAPS   H3R 8184   3.473   5.883  10.612 -1.0311  4.2759  0.9466
   86SAPS   H3S 8185   3.608   5.846  10.485  0.1456 -1.4220  2.5332
   86SAPS   C24 8186   3.419   5.898  10.402  0.2327 -0.6615  0.3459
   86SAPS   H4R 8187   3.340   5.971  10.430  0.5592  0.0014 -0.4306
   86SAPS   H4S 8188   3.372   5.798  10.402 -1.0133 -0.0972  0.0865
   86SAPS   C25 8189   3.475   5.931  10.264  0.3260  0.6113 -0.3676
   86SAPS   H5R 8190   3.543   5.853  10.227  1.4925  1.3134  0.2362
   86SAPS   C26 8191   3.439   6.027  10.183 -0.2532 -1.1556  0.5178
   86SAPS   H6R 8192   3.495   6.034  10.089 -0.0777 -0.0267  0.6978
   86SAPS   C27 8193   3.334   6.141  10.205 -0.6166  0.0644  0.1356
   86SAPS   H7R 8194   3.299   6.158  10.309 -0.2570  4.3447 -0.2814
   86SAPS   H7S 8195   3.238   6.111  10.158  0.1416  0.2318 -1.5953
   86SAPS   C28 8196   3.391   6.278  10.160 -0.5302 -0.0597  0.2479
   86SAPS   H8R 8197   3.437   6.336  10.241  1.6902 -2.1958  0.6631
   86SAPS   C29 8198   3.391   6.325  10.034  0.5234 -0.3305 -0.7000
   86SAPS   H9R 8199   3.427   6.424  10.006  2.5609 -0.3761  1.4203
   86SAPS  C210 8200   3.330   6.248   9.922 -0.1818  0.7105 -1.0224
   86SAPS  H10R 8201   3.373   6.145   9.926  2.6085  1.8363  0.2936
   86SAPS  H10S 8202   3.376   6.267   9.823 -0.4462 -2.1460 -1.7807
   86SAPS  C211 8203   3.181   6.253   9.914 -0.4426 -0.3790 -0.6174
   86SAPS  H11R 8204   3.141   6.246  10.017 -0.2800 -1.4261 -0.6170
   86SAPS  C212 8205   3.097   6.248   9.808 -0.2594 -0.2579  0.0460
   86SAPS  H12R 8206   2.990   6.261   9.828  0.0119  2.6223  0.0576
   86SAPS  C213 8207   3.136   6.241   9.661  0.4741 -0.6372  0.7041
   86SAPS  H13R 8208   3.061   6.177   9.612  0.3224 -1.6404  2.1927
   86SAPS  H13S 8209   3.231   6.183   9.653  0.0749 -1.7710  3.3342
   86SAPS  C214 8210   3.151   6.363   9.568  0.2498  0.1926 -0.4119
   86SAPS  H14R 8211   3.131   6.463   9.610  2.8991 -0.7193  3.6509
   86SAPS  C215 8212   3.193   6.364   9.439  0.6259  0.0199 -0.5903
   86SAPS  H15R 8213   3.189   6.461   9.388  0.4177  1.2474  1.6203
   86SAPS  C216 8214   3.221   6.248   9.347  0.3789  0.4792  0.5816
   86SAPS  H16R 8215   3.188   6.150   9.387 -1.0044  0.3508 -0.7892
   86SAPS  H16S 8216   3.331   6.236   9.334  0.5295  0.6845  1.5615
   86SAPS  C217 8217   3.140   6.263   9.210 -0.2287 -0.4376  0.7109
   86SAPS  H17R 8218   3.035   6.287   9.236 -0.6468 -1.0925 -0.3031
   86SAPS  H17S 8219   3.138   6.160   9.168  1.3210 -0.4200  0.5105
   86SAPS  C218 8220   3.221   6.346   9.102 -0.0833 -0.2208 -0.2058
   86SAPS  H18R 8221   3.320   6.297   9.092 -0.9510 -1.9883 -0.4786
   86SAPS  H18S 8222   3.248   6.448   9.138 -1.8638  0.3014 -0.1998
   86SAPS  C219 8223   3.141   6.384   8.974  0.2865  0.4589 -0.3807
   86SAPS  H19R 8224   3.097   6.291   8.932  0.7891  0.2679 -0.4986
   86SAPS  H19S 8225   3.196   6.431   8.890 -1.4985  0.3960 -1.6430
   86SAPS  C220 8226   3.029   6.474   9.005 -0.0670  0.3641  0.0514
   86SAPS  H20R 8227   2.957   6.472   8.920 -0.1164 -3.3880  0.0407
   86SAPS  H20S 8228   3.060   6.572   9.048  2.5968  0.0074 -0.9097
   86SAPS  H20T 8229   2.968   6.432   9.088 -0.4227  1.0337  0.1397
   86SAPS   C33 8230   3.650   6.575  10.014  0.5027 -1.0169 -0.3329
   86SAPS   H3X 8231   3.709   6.669  10.005  0.2631 -1.0053 -2.3456
   86SAPS   H3Y 8232   3.543   6.598  10.029  0.1917 -3.4704  1.8576
   86SAPS   C34 8233   3.680   6.515   9.880 -0.0003  0.1428  0.4891
   86SAPS   H4X 8234   3.615   6.425   9.873 -0.1568  0.3278 -0.5394
   86SAPS   H4Y 8235   3.782   6.472   9.874 -0.5441 -1.0834 -0.5218
   86SAPS   C35 8236   3.650   6.612   9.767 -0.3063  0.6478 -0.3692
   86SAPS   H5X 8237   3.727   6.691   9.761 -0.8106  1.1753 -0.0617
   86SAPS   H5Y 8238   3.542   6.638   9.771 -0.9512 -1.9529  1.8062
   86SAPS   C36 8239   3.661   6.531   9.639  0.3666 -0.0720 -0.3818
   86SAPS   H6X 8240   3.575   6.460   9.645 -1.4235  1.9729 -0.4788
   86SAPS   H6Y 8241   3.759   6.478   9.639  1.4735  1.8671  0.0946
   86SAPS   C37 8242   3.653   6.610   9.511  0.0991 -0.0504 -0.2998
   86SAPS   H7X 8243   3.723   6.696   9.505  0.9415 -0.7133 -0.2414
   86SAPS   H7Y 8244   3.553   6.655   9.498  0.8897  2.6308  2.0854
   86SAPS   C38 8245   3.692   6.525   9.380  0.2993 -0.4759 -0.2421
   86SAPS   H8X 8246   3.626   6.436   9.374  0.3144 -0.3932 -3.7559
   86SAPS   H8Y 8247   3.787   6.471   9.399 -0.1849 -1.7358 -1.2370
   86SAPS   C39 8248   3.690   6.599   9.253 -0.0063 -0.0727  0.0856
   86SAPS   H9X 8249   3.739   6.542   9.171  0.3856 -0.4236  0.5564
   86SAPS   H9Y 8250   3.752   6.689   9.265  0.6121 -0.5582  0.5811
   86SAPS  C310 8251   3.551   6.639   9.206 -0.2968 -0.1153  0.4694
   86SAPS  H10X 8252   3.505   6.706   9.281  2.2267  1.1487  1.0059
   86SAPS  H10Y 8253   3.486   6.552   9.182 -1.4375  0.3749  1.6941
   86SAPS  C311 8254   3.554   6.712   9.067  0.2849  0.6486  0.1964
   86SAPS  H11X 8255   3.622   6.653   9.002  2.3714  0.1264  2.6866
   86SAPS  H11Y 8256   3.591   6.817   9.077  0.0059  0.5608  3.0780
   86SAPS  C312 8257   3.414   6.733   9.004 -0.0207  0.2508  0.2391
   86SAPS  H12X 8258   3.372   6.831   9.038 -0.1752 -0.6019  2.6656
   86SAPS  H12Y 8259   3.351   6.649   9.039 -0.8747  0.4065 -0.8659
   86SAPS  C313 8260   3.425   6.725   8.851 -0.5954 -0.0246 -0.7896
   86SAPS  H13X 8261   3.461   6.628   8.812  0.0741  0.3334 -1.0603
   86SAPS  H13Y 8262   3.488   6.806   8.809 -0.8134  0.1297 -0.8206
   86SAPS  C314 8263   3.288   6.734   8.777  0.4547 -0.5099 -0.3947
   86SAPS  H14X 8264   3.231   6.823   8.811  1.1065  0.1407 -0.9576
   86SAPS  H14Y 8265   3.233   6.643   8.809 -1.2343  0.2929 -0.9175
   86SAPS  C315 8266   3.306   6.729   8.626  0.8187 -0.8364  0.1991
   86SAPS  H15X 8267   3.393   6.792   8.598  0.8068 -1.2347 -0.7683
   86SAPS  H15Y 8268   3.221   6.772   8.570  1.4291 -0.5383 -0.5169
   86SAPS  C316 8269   3.327   6.588   8.565 -0.4944 -0.2260 -0.0989
   86SAPS  H16X 8270   3.226   6.568   8.525  0.3758  1.6476 -3.6520
   86SAPS  H16Y 8271   3.363   6.521   8.647  0.3773  1.8155  1.2759
   86SAPS  C317 8272   3.425   6.577   8.448 -0.3703 -0.6299 -0.0131
   86SAPS  H17X 8273   3.445   6.472   8.419 -0.8985 -0.9788  0.8240
   86SAPS  H17Y 8274   3.526   6.611   8.481 -0.6647  1.2198 -0.8695
   86SAPS  C318 8275   3.378   6.661   8.335  0.4189  0.0765 -0.6333
   86SAPS  H18X 8276   3.278   6.620   8.312 -0.2209  0.8078  0.7384
   86SAPS  H18Y 8277   3.440   6.651   8.243  1.4949 -0.0012  0.0798
   86SAPS  H18Z 8278   3.376   6.770   8.359  1.9095  0.0545 -0.2981
   87SAPS     N 8279   3.255   0.165  10.881 -0.1505  0.4475  0.1585
   87SAPS   HN1 8280   3.199   0.251  10.865 -0.6737  0.0045 -0.4952
   87SAPS   HN2 8281   3.353   0.187  10.909  0.4942 -0.4876 -1.2326
   87SAPS   HN3 8282   3.250   0.119  10.787 -1.8178  2.2432 -0.6967
   87SAPS   C12 8283   3.190   0.073  10.982 -0.2027 -0.7014 -0.4351
   87SAPS  H12A 8284   3.258  -0.009  11.001  1.6604  1.1970  1.5437
   87SAPS   C13 8285   3.174   0.139  11.120 -0.2808  0.0191  0.5922
   87SAPS  O13A 8286   3.222   0.251  11.148  0.1698 -0.1539  0.8547
   87SAPS  O13B 8287   3.108   0.072  11.206  0.3017  0.2259  0.0548
   87SAPS   C11 8288   3.051   0.027  10.930 -0.2780  0.4739  0.3953
   87SAPS  H11A 8289   2.991   0.121  10.922 -1.8264 -0.6063 -1.7437
   87SAPS  H11B 8290   3.002  -0.045  11.000 -1.6733 -0.8626 -1.8513
   87SAPS     P 8291   3.042  -0.174  10.754  0.1241 -0.3199 -0.0239
   87SAPS   O13 8292   3.127  -0.214  10.640  0.0552 -0.0004 -0.2508
   87SAPS   O14 8293   3.048  -0.268  10.870 -0.0223  0.6164 -0.0086
   87SAPS   O12 8294   3.081  -0.031  10.802 -0.1452 -0.2700  0.1077
   87SAPS   O11 8295   2.894  -0.153  10.705 -0.1246 -0.2564  0.4134
   87SAPS    C1 8296   2.870  -0.057  10.607 -0.2735 -0.5347 -0.3497
   87SAPS    HA 8297   2.778  -0.002  10.633  0.2538  1.1727 -1.9296
   87SAPS    HB 8298   2.949   0.021  10.598 -0.3477 -0.3240  0.7189
   87SAPS    C2 8299   2.845  -0.123  10.465 -0.0891  0.1289  0.4678
   87SAPS    HS 8300   2.944  -0.123  10.415  0.5242  1.2756  1.6016
   87SAPS   O21 8301   2.754  -0.037  10.395 -0.4528 -0.2539  0.2134
   87SAPS   C21 8302   2.805   0.073  10.345 -0.3059  0.6301 -0.4285
   87SAPS   O22 8303   2.918   0.115  10.349  0.2838  0.1834 -0.6124
   87SAPS   C22 8304   2.695   0.143  10.263 -0.1519  0.0025 -0.2066
   87SAPS   H2R 8305   2.617   0.181  10.333  0.7897 -0.5725  1.2167
   87SAPS   H2S 8306   2.744   0.232  10.219 -0.8038  0.8482  0.7305
   87SAPS    C3 8307   2.796  -0.271  10.473  0.4431  0.3714  0.3727
   87SAPS    HX 8308   2.725  -0.278  10.558  0.3266 -2.4445  0.1510
   87SAPS    HY 8309   2.883  -0.333  10.500  1.1033  0.2658 -1.7934
   87SAPS   O31 8310   2.732  -0.318  10.348  0.2451  0.3064 -0.3499
   87SAPS   C31 8311   2.822  -0.321  10.246  0.4314 -0.1664 -0.3262
   87SAPS   O32 8312   2.942  -0.333  10.262 -0.4384  0.5592 -0.1117
   87SAPS   C32 8313   2.752  -0.334  10.110 -0.1629 -0.1168 -0.0151
   87SAPS   H2X 8314   2.684  -0.246  10.113  1.8799  1.5047  2.0416
   87SAPS   H2Y 8315   2.695  -0.429  10.113 -0.3542 -0.0972 -1.8411
   87SAPS   C23 8316   2.635   0.045  10.157  0.5077 -0.0003  0.3679
   87SAPS   H3R 8317   2.557  -0.020  10.202 -1.3762  1.2652 -0.8826
   87SAPS   H3S 8318   2.725  -0.009  10.120  0.0842  1.4390 -3.1743
   87SAPS   C24 8319   2.575   0.111  10.030 -0.1214  0.0393 -0.2061
   87SAPS   H4R 8320   2.567   0.042   9.944 -1.9498 -0.9352  0.6981
   87SAPS   H4S 8321   2.643   0.193   9.999 -1.7095  0.9938 -1.2972
   87SAPS   C25 8322   2.439   0.162  10.064 -0.3580 -0.2002 -0.3964
   87SAPS   H5R 8323   2.420   0.214  10.159  0.8456  2.1756 -1.3690
   87SAPS   C26 8324   2.328   0.150   9.989  1.0663  0.0589 -1.0320
   87SAPS   H6R 8325   2.238   0.197  10.031  0.7424  1.2031 -2.9211
   87SAPS   C27 8326   2.310   0.090   9.854 -0.1905  0.5853 -0.6646
   87SAPS   H7R 8327   2.204   0.107   9.826 -0.4580 -0.8914 -0.6553
   87SAPS   H7S 8328   2.335  -0.019   9.854  0.8059  0.7775 -2.3369
   87SAPS   C28 8329   2.388   0.162   9.751  0.5234  0.1463 -0.5313
   87SAPS   H8R 8330   2.442   0.252   9.782  0.1777 -0.0431  0.6979
   87SAPS   C29 8331   2.404   0.122   9.628  0.0997 -0.2884  0.3422
   87SAPS   H9R 8332   2.482   0.173   9.569 -0.2638 -2.0147 -1.7315
   87SAPS  C210 8333   2.350  -0.000   9.557 -0.2212  0.1508 -0.3281
   87SAPS  H10R 8334   2.308  -0.070   9.632  0.7361 -0.2297 -0.1367
   87SAPS  H10S 8335   2.431  -0.058   9.507 -1.2922 -0.6475 -1.1723
   87SAPS  C211 8336   2.249   0.044   9.455 -0.0248 -0.2345  0.3587
   87SAPS  H11R 8337   2.143   0.032   9.481  0.7668 -2.4624  2.9992
   87SAPS  C212 8338   2.284   0.072   9.328 -1.1612 -1.1199 -0.6175
   87SAPS  H12R 8339   2.204   0.110   9.262 -1.4154  1.7213  1.1547
   87SAPS  C213 8340   2.423   0.073   9.263  0.2175 -0.2561 -0.5095
   87SAPS  H13R 8341   2.451  -0.008   9.193  0.0266  1.8430 -3.1693
   87SAPS  H13S 8342   2.488   0.055   9.352 -0.8989  1.9306  0.8368
   87SAPS  C214 8343   2.454   0.209   9.207  0.0039  0.6378 -0.1291
   87SAPS  H14R 8344   2.485   0.283   9.283  4.4711 -1.1312  0.0525
   87SAPS  C215 8345   2.442   0.250   9.081 -1.0532 -0.6196 -0.9872
   87SAPS  H15R 8346   2.440   0.360   9.070 -0.2270  0.0285  3.3828
   87SAPS  C216 8347   2.394   0.175   8.960 -0.0888  0.2693 -0.1106
   87SAPS  H16R 8348   2.309   0.108   8.987  0.7870 -0.3742  1.1724
   87SAPS  H16S 8349   2.471   0.112   8.911 -1.5646 -0.4264 -1.6651
   87SAPS  C217 8350   2.355   0.261   8.844 -0.3428  0.1478  0.5417
   87SAPS  H17R 8351   2.438   0.304   8.784  0.1667 -2.4400 -0.7461
   87SAPS  H17S 8352   2.284   0.334   8.888  0.7941  1.4489  0.2857
   87SAPS  C218 8353   2.274   0.180   8.740  0.9175 -0.2330 -0.3511
   87SAPS  H18R 8354   2.190   0.229   8.688 -0.4986 -0.7664  1.3531
   87SAPS  H18S 8355   2.222   0.098   8.793 -3.3258  2.8819  0.8020
   87SAPS  C219 8356   2.363   0.117   8.636  0.6117 -0.1151  0.1307
   87SAPS  H19R 8357   2.439   0.044   8.673 -2.0473 -3.0263  0.2981
   87SAPS  H19S 8358   2.419   0.195   8.579  0.3951  0.5716  0.8549
   87SAPS  C220 8359   2.271   0.042   8.534 -0.3682 -0.0120 -0.7522
   87SAPS  H20R 8360   2.219   0.105   8.459 -1.2704 -0.8727 -0.8752
   87SAPS  H20S 8361   2.199  -0.023   8.589  0.5566  1.1275  1.9652
   87SAPS  H20T 8362   2.337  -0.011   8.461 -0.1466  0.1209 -0.6489
   87SAPS   C33 8363   2.851  -0.321   9.994  0.2910  0.3013  0.0090
   87SAPS   H3X 8364   2.923  -0.406   9.998 -0.2688 -0.1714  0.3864
   87SAPS   H3Y 8365   2.910  -0.228   9.994  0.7834  0.0289 -1.8656
   87SAPS   C34 8366   2.786  -0.334   9.855  1.1333  0.1033  0.0941
   87SAPS   H4X 8367   2.740  -0.435   9.857 -0.5233  0.8324  0.6293
   87SAPS   H4Y 8368   2.846  -0.333   9.762 -0.9304 -2.2760 -1.4071
   87SAPS   C35 8369   2.674  -0.227   9.833 -0.5791 -0.1943 -0.9891
   87SAPS   H5X 8370   2.717  -0.125   9.836 -0.6278 -0.1722  1.9312
   87SAPS   H5Y 8371   2.592  -0.220   9.908  0.1323 -1.1595 -0.1034
   87SAPS   C36 8372   2.619  -0.230   9.688 -0.9382 -0.2878 -0.2417
   87SAPS   H6X 8373   2.709  -0.213   9.626 -1.4365  0.2050 -0.8422
   87SAPS   H6Y 8374   2.545  -0.148   9.673 -1.2278 -0.7498 -1.3923
   87SAPS   C37 8375   2.559  -0.368   9.642  0.1973  0.2347  0.9468
   87SAPS   H7X 8376   2.498  -0.417   9.720 -0.4696  0.3938  0.5306
   87SAPS   H7Y 8377   2.640  -0.445   9.638 -0.3013 -0.2704  0.2287
   87SAPS   C38 8378   2.501  -0.364   9.502  0.3620 -0.9274 -1.1658
   87SAPS   H8X 8379   2.416  -0.293   9.501  2.7636  2.2008 -0.5612
   87SAPS   H8Y 8380   2.465  -0.464   9.469 -1.7958  0.0393 -1.9219
   87SAPS   C39 8381   2.591  -0.312   9.399  0.4912 -0.4583 -0.4980
   87SAPS   H9X 8382   2.692  -0.359   9.402  2.0897  2.5230 -2.5959
   87SAPS   H9Y 8383   2.610  -0.203   9.410  0.9232 -0.5468 -0.3580
   87SAPS  C310 8384   2.538  -0.324   9.255  0.2459  0.3719 -0.6271
   87SAPS  H10X 8385   2.439  -0.273   9.250 -1.4531 -2.5208  0.8897
   87SAPS  H10Y 8386   2.524  -0.433   9.239  0.9236  0.1839  0.0326
   87SAPS  C311 8387   2.617  -0.266   9.139 -0.2471 -0.1701  0.0798
   87SAPS  H11X 8388   2.710  -0.328   9.136 -0.0836  0.0780 -0.0262
   87SAPS  H11Y 8389   2.660  -0.164   9.147 -1.2704  0.2748 -0.0023
   87SAPS  C312 8390   2.540  -0.285   9.011 -0.1992  0.6352  0.5714
   87SAPS  H12X 8391   2.438  -0.241   9.009 -0.5431 -0.1766 -0.5360
   87SAPS  H12Y 8392   2.537  -0.396   9.005 -1.8917  0.6864  0.0039
   87SAPS  C313 8393   2.605  -0.211   8.890  0.4151 -0.2506  0.0749
   87SAPS  H13X 8394   2.715  -0.230   8.894  0.6768  0.9733 -0.6878
   87SAPS  H13Y 8395   2.593  -0.101   8.899  1.3019 -0.3143  3.1156
   87SAPS  C314 8396   2.548  -0.250   8.748 -0.0647 -0.3456 -0.4584
   87SAPS  H14X 8397   2.439  -0.230   8.751 -0.5733 -2.8530  1.2477
   87SAPS  H14Y 8398   2.555  -0.361   8.737  1.3818 -0.4003  0.6215
   87SAPS  C315 8399   2.629  -0.174   8.641  0.0876 -0.4836  0.3405
   87SAPS  H15X 8400   2.619  -0.069   8.674 -4.2619 -0.6778  0.2239
   87SAPS  H15Y 8401   2.577  -0.187   8.543 -1.0688 -2.1582  1.1128
   87SAPS  C316 8402   2.776  -0.214   8.620  0.2179 -0.3885 -0.4496
   87SAPS  H16X 8403   2.778  -0.313   8.570 -0.1360 -0.2194 -0.8047
   87SAPS  H16Y 8404   2.819  -0.220   8.722  1.1831 -2.0564 -0.9140
   87SAPS  C317 8405   2.870  -0.120   8.544 -0.7190  0.2189  0.3210
   87SAPS  H17X 8406   2.861  -0.126   8.434  1.1373 -0.3151  0.1637
   87SAPS  H17Y 8407   2.972  -0.163   8.556  0.1580  2.3330  0.9110
   87SAPS  C318 8408   2.857   0.027   8.584 -0.6707 -0.0291  0.6339
   87SAPS  H18X 8409   2.920   0.042   8.675  0.6034  0.9931 -0.3693
   87SAPS  H18Y 8410   2.753   0.067   8.593 -1.1197 -0.2699 -2.3826
   87SAPS  H18Z 8411   2.909   0.079   8.501  0.2323 -2.0988 -0.1623
   88SAPS     N 8412   5.831   4.716  10.996  0.5365 -0.6001 -0.0765
   88SAPS   HN1 8413   5.917   4.660  11.016  2.0897  0.2623 -3.5211
   88SAPS   HN2 8414   5.821   4.731  10.893 -1.0544  0.7016  0.2331
   88SAPS   HN3 8415   5.816   4.803  11.052 -0.4495 -0.1555 -0.9901
   88SAPS   C12 8416   5.709   4.629  11.027 -0.0881  0.0834 -0.1783
   88SAPS  H12A 8417   5.743   4.545  11.086  2.9818 -0.2360 -2.1545
   88SAPS   C13 8418   5.611   4.707  11.120 -0.3084  0.7393  0.2397
   88SAPS  O13A 8419   5.646   4.817  11.165  1.0017 -0.1651  0.0869
   88SAPS  O13B 8420   5.526   4.634  11.178 -0.2623  0.0193 -0.2786
   88SAPS   C11 8421   5.637   4.582  10.895  0.2928  0.1093 -0.0604
   88SAPS  H11A 8422   5.599   4.668  10.835 -1.5768  1.5269  2.9237
   88SAPS  H11B 8423   5.545   4.524  10.917  0.9459 -0.5691  0.9818
   88SAPS     P 8424   5.723   4.359  10.782  0.3187 -0.0523 -0.0675
   88SAPS   O13 8425   5.849   4.300  10.730  0.0510  0.7808 -0.1313
   88SAPS   O14 8426   5.660   4.297  10.906 -0.0693 -0.2825 -0.1234
   88SAPS   O12 8427   5.738   4.514  10.820  0.2326  0.2629 -0.0489
   88SAPS   O11 8428   5.613   4.362  10.668  0.2350  0.7427  0.2894
   88SAPS    C1 8429   5.634   4.439  10.554  0.3881 -0.7514  0.2811
   88SAPS    HA 8430   5.650   4.546  10.579  2.0075 -1.3647  2.0512
   88SAPS    HB 8431   5.729   4.414  10.503 -0.2023 -2.1977 -0.1795
   88SAPS    C2 8432   5.508   4.451  10.459  0.7269 -0.3730 -0.2259
   88SAPS    HS 8433   5.434   4.523  10.500 -0.6223 -0.8314 -1.7526
   88SAPS   O21 8434   5.442   4.323  10.436  0.4380  0.3835 -0.0942
   88SAPS   C21 8435   5.327   4.338  10.365 -0.2401  0.2448 -0.0671
   88SAPS   O22 8436   5.280   4.448  10.344 -0.0092 -0.1551 -0.0060
   88SAPS   C22 8437   5.272   4.209  10.311  0.1285  0.4404 -0.6592
   88SAPS   H2R 8438   5.353   4.142  10.276 -1.9988 -2.1420 -0.9773
   88SAPS   H2S 8439   5.215   4.162  10.395  1.8107  1.3252  1.0617
   88SAPS    C3 8440   5.560   4.502  10.323 -0.9615 -0.0346  0.2770
   88SAPS    HX 8441   5.611   4.599  10.345 -1.7050  0.1420  1.2633
   88SAPS    HY 8442   5.474   4.530  10.258 -2.1232  0.6010  2.0179
   88SAPS   O31 8443   5.667   4.419  10.273  0.3558 -0.0789  0.7794
   88SAPS   C31 8444   5.657   4.409  10.141 -0.1304  0.1087  0.2664
   88SAPS   O32 8445   5.572   4.460  10.071  0.8826  0.4686  0.0023
   88SAPS   C32 8446   5.766   4.305  10.099 -0.1114  0.2451  0.4394
   88SAPS   H2X 8447   5.716   4.207  10.111 -0.5133  0.3274 -0.4677
   88SAPS   H2Y 8448   5.852   4.314  10.168  0.6228 -3.9815  0.2853
   88SAPS   C23 8449   5.175   4.233  10.192  0.2285  0.6131  0.1203
   88SAPS   H3R 8450   5.093   4.303  10.218  0.4098  0.6474  0.6041
   88SAPS   H3S 8451   5.118   4.137  10.195  2.6457 -0.9438 -0.6462
   88SAPS   C24 8452   5.233   4.269  10.057 -0.3514 -0.1159  0.7185
   88SAPS   H4R 8453   5.280   4.369  10.046  0.6220 -0.7086 -1.0449
   88SAPS   H4S 8454   5.149   4.269   9.984  1.1124  2.5362 -1.1314
   88SAPS   C25 8455   5.331   4.177  10.000 -0.2199 -0.6841 -0.2250
   88SAPS   H5R 8456   5.405   4.137  10.072 -0.0442  1.5982  0.9355
   88SAPS   C26 8457   5.334   4.129   9.874  0.5250 -0.2604  0.7773
   88SAPS   H6R 8458   5.407   4.048   9.859  0.5907  0.1515 -1.4481
   88SAPS   C27 8459   5.241   4.157   9.755 -0.5761 -0.3024  0.0247
   88SAPS   H7R 8460   5.297   4.212   9.675 -1.1912  2.0523  1.1391
   88SAPS   H7S 8461   5.160   4.224   9.789  2.2658  2.8930  1.0674
   88SAPS   C28 8462   5.177   4.027   9.702  0.2902 -0.5262  0.1792
   88SAPS   H8R 8463   5.143   3.956   9.779  1.6533 -2.0733 -0.5536
   88SAPS   C29 8464   5.170   3.987   9.573  0.3933 -0.1055  0.3204
   88SAPS   H9R 8465   5.123   3.889   9.555 -2.9659  0.9196  2.4984
   88SAPS  C210 8466   5.214   4.053   9.447 -0.1063  0.1807  0.3791
   88SAPS  H10R 8467   5.306   4.003   9.411 -0.3553 -1.0195  1.3516
   88SAPS  H10S 8468   5.231   4.160   9.473 -1.2320  0.5504 -0.3398
   88SAPS  C211 8469   5.104   4.047   9.342 -0.2642 -0.1898  0.7249
   88SAPS  H11R 8470   4.996   4.038   9.363 -0.2329 -0.7027  0.6841
   88SAPS  C212 8471   5.135   4.083   9.217  0.0811 -0.3985  0.5022
   88SAPS  H12R 8472   5.054   4.090   9.143  0.2645 -0.3750  0.3008
   88SAPS  C213 8473   5.276   4.119   9.170  0.2765 -0.6823 -0.0835
   88SAPS  H13R 8474   5.323   4.026   9.132  1.3681  1.4100 -4.5938
   88SAPS  H13S 8475   5.347   4.156   9.247  1.1243 -1.3282 -0.5332
   88SAPS  C214 8476   5.273   4.218   9.051 -0.1803 -0.1275  0.4314
   88SAPS  H14R 8477   5.314   4.317   9.077  0.1638 -0.3956  0.9361
   88SAPS  C215 8478   5.232   4.198   8.928  0.5793 -0.0572 -0.4055
   88SAPS  H15R 8479   5.243   4.283   8.859  1.4455  0.2097  0.0398
   88SAPS  C216 8480   5.168   4.080   8.856  0.8197  0.1366  0.7259
   88SAPS  H16R 8481   5.129   4.001   8.924 -1.1714  1.2133  0.9221
   88SAPS  H16S 8482   5.248   4.040   8.791  0.6457 -0.5076  0.9062
   88SAPS  C217 8483   5.056   4.141   8.778  0.9344 -0.4974  0.5185
   88SAPS  H17R 8484   5.093   4.212   8.701  1.4495  0.5026  1.6591
   88SAPS  H17S 8485   4.984   4.201   8.837  1.9140  0.4875  0.7495
   88SAPS  C218 8486   4.969   4.030   8.711 -0.7467  0.0454  0.4167
   88SAPS  H18R 8487   4.934   3.950   8.779 -1.0592 -0.0472  0.1503
   88SAPS  H18S 8488   5.030   3.978   8.633 -0.1279 -1.9155  2.1101
   88SAPS  C219 8489   4.862   4.093   8.630  0.6207  0.4707  0.2870
   88SAPS  H19R 8490   4.840   4.018   8.551  0.4492  1.3418 -0.5049
   88SAPS  H19S 8491   4.898   4.182   8.574 -0.6819 -0.4009 -2.0875
   88SAPS  C220 8492   4.726   4.135   8.700 -0.1829  0.9434 -0.4362
   88SAPS  H20R 8493   4.692   4.227   8.649  0.9502 -0.3167 -3.6918
   88SAPS  H20S 8494   4.742   4.153   8.809  0.1696  3.1340 -0.8058
   88SAPS  H20T 8495   4.657   4.049   8.691 -0.2928  0.6351  2.3297
   88SAPS   C33 8496   5.793   4.322   9.946 -0.3969  0.5845 -0.0595
   88SAPS   H3X 8497   5.873   4.249   9.920 -1.5785 -0.4399 -0.8913
   88SAPS   H3Y 8498   5.826   4.426   9.925 -1.1054  0.8590  0.1663
   88SAPS   C34 8499   5.671   4.291   9.852  0.1376  0.2259 -0.3457
   88SAPS   H4X 8500   5.593   4.368   9.870 -0.3687 -0.8409  2.3719
   88SAPS   H4Y 8501   5.624   4.196   9.884 -1.9189  1.1141 -0.5670
   88SAPS   C35 8502   5.695   4.300   9.695 -0.4267 -0.2796 -0.4923
   88SAPS   H5X 8503   5.744   4.206   9.661 -0.3091  0.0532 -1.2713
   88SAPS   H5Y 8504   5.767   4.381   9.670 -0.3371 -0.6323 -1.4565
   88SAPS   C36 8505   5.570   4.329   9.612  0.4209  0.2738 -0.1082
   88SAPS   H6X 8506   5.502   4.403   9.660 -0.1966 -1.0631  1.1788
   88SAPS   H6Y 8507   5.504   4.243   9.587  0.8657 -1.0646  2.7898
   88SAPS   C37 8508   5.599   4.393   9.472 -0.6587 -0.3875 -0.3356
   88SAPS   H7X 8509   5.650   4.491   9.485 -0.7234 -0.4924  0.7653
   88SAPS   H7Y 8510   5.501   4.400   9.420 -1.5015 -2.0240  0.9602
   88SAPS   C38 8511   5.687   4.303   9.388  0.2648  0.2617 -0.4715
   88SAPS   H8X 8512   5.683   4.199   9.425 -1.2262  0.8649  1.2421
   88SAPS   H8Y 8513   5.793   4.334   9.400  0.5530 -1.2192  1.1690
   88SAPS   C39 8514   5.649   4.295   9.237  0.2949 -0.0850  0.3416
   88SAPS   H9X 8515   5.554   4.245   9.209 -1.7451  2.9881  1.3438
   88SAPS   H9Y 8516   5.723   4.230   9.185 -0.0044  1.4135 -2.1219
   88SAPS  C310 8517   5.632   4.433   9.165  0.4740  0.1607 -0.7432
   88SAPS  H10X 8518   5.718   4.500   9.187  0.0670 -0.4161  3.4288
   88SAPS  H10Y 8519   5.548   4.476   9.223  0.0369  0.7925 -1.8242
   88SAPS  C311 8520   5.605   4.413   9.015 -0.2472 -0.0849  0.6415
   88SAPS  H11X 8521   5.498   4.438   9.001 -1.5824 -2.4198  4.8218
   88SAPS  H11Y 8522   5.616   4.310   8.975  0.8279  1.8019 -4.7489
   88SAPS  C312 8523   5.701   4.499   8.923 -0.0554  0.8842 -0.1488
   88SAPS  H12X 8524   5.794   4.511   8.984 -0.9874  2.0649  1.1189
   88SAPS  H12Y 8525   5.647   4.597   8.922 -2.3178 -0.2985 -1.1070
   88SAPS  C313 8526   5.721   4.446   8.783 -0.2001  0.5270 -0.4740
   88SAPS  H13X 8527   5.759   4.342   8.796  0.4347  0.7877 -0.1977
   88SAPS  H13Y 8528   5.801   4.515   8.747  0.8890 -0.8225 -0.7447
   88SAPS  C314 8529   5.590   4.447   8.704 -0.2170  0.0409  0.0277
   88SAPS  H14X 8530   5.545   4.548   8.711  1.0863  0.5419  2.8723
   88SAPS  H14Y 8531   5.507   4.381   8.739 -1.2710  0.6972 -1.1609
   88SAPS  C315 8532   5.613   4.442   8.555 -0.2576 -0.5110 -0.1378
   88SAPS  H15X 8533   5.717   4.405   8.545  0.1198  0.3674  0.3736
   88SAPS  H15Y 8534   5.614   4.544   8.510 -1.1951  0.6309  2.2496
   88SAPS  C316 8535   5.529   4.339   8.472 -0.9093 -0.0524 -0.0170
   88SAPS  H16X 8536   5.507   4.242   8.522 -0.3254 -1.0926 -1.6873
   88SAPS  H16Y 8537   5.590   4.319   8.381 -2.5925 -0.7761 -1.0406
   88SAPS  C317 8538   5.399   4.394   8.423 -0.5962  0.5041 -0.6321
   88SAPS  H17X 8539   5.407   4.491   8.370  0.3105  1.2266  0.7621
   88SAPS  H17Y 8540   5.342   4.418   8.516  0.3279 -0.6100  0.2488
   88SAPS  C318 8541   5.314   4.304   8.343  0.0584 -0.5983  0.7910
   88SAPS  H18X 8542   5.292   4.200   8.376 -1.0828 -0.5892  0.1275
   88SAPS  H18Y 8543   5.353   4.304   8.239 -0.9777  3.5021  0.2544
   88SAPS  H18Z 8544   5.216   4.356   8.351  0.7801  0.9336  0.1083
   89SAPS     N 8545   5.541   0.618  11.065  0.0316 -0.4872  0.0646
   89SAPS   HN1 8546   5.573   0.609  11.164 -0.1221 -0.1640  0.1435
   89SAPS   HN2 8547   5.606   0.671  11.005 -0.0454 -1.4430 -0.8956
   89SAPS   HN3 8548   5.452   0.672  11.065 -1.0115 -2.0821  1.5040
   89SAPS   C12 8549   5.539   0.483  11.013 -0.0835  0.2749 -0.0208
   89SAPS  H12A 8550   5.638   0.447  11.038 -0.2734  0.5631  1.1990
   89SAPS   C13 8551   5.433   0.402  11.081 -1.1444 -0.9772 -0.4144
   89SAPS  O13A 8552   5.367   0.453  11.179  0.0348 -0.3089 -0.2475
   89SAPS  O13B 8553   5.413   0.287  11.045  0.3957 -0.0648 -0.0533
   89SAPS   C11 8554   5.532   0.485  10.864 -0.1397  0.0175 -0.1600
   89SAPS  H11A 8555   5.442   0.541  10.832 -2.1073 -1.8691  1.7443
   89SAPS  H11B 8556   5.518   0.381  10.827  2.3990 -1.8311  3.4259
   89SAPS     P 8557   5.691   0.539  10.662  0.1371 -0.5373  0.0520
   89SAPS   O13 8558   5.774   0.654  10.622 -0.2364 -0.3666  0.2436
   89SAPS   O14 8559   5.745   0.404  10.628  0.2626 -0.6196  0.0539
   89SAPS   O12 8560   5.651   0.542  10.808  0.5010 -0.1642 -0.1926
   89SAPS   O11 8561   5.544   0.560  10.604  0.4711 -0.2727  0.0958
   89SAPS    C1 8562   5.501   0.667  10.517 -0.6494  0.3598  0.3797
   89SAPS    HA 8563   5.410   0.706  10.568  0.7892  1.3100  2.3208
   89SAPS    HB 8564   5.567   0.753  10.495 -3.3998  1.7023 -3.7166
   89SAPS    C2 8565   5.474   0.594  10.376  0.6739  0.2444 -0.7894
   89SAPS    HS 8566   5.426   0.497  10.400 -2.1630  1.5450 -0.8517
   89SAPS   O21 8567   5.596   0.568  10.312 -0.1856 -1.1029  0.2023
   89SAPS   C21 8568   5.637   0.442  10.306  0.6974 -0.4269 -0.1716
   89SAPS   O22 8569   5.590   0.344  10.364 -0.5106 -0.0914 -0.0106
   89SAPS   C22 8570   5.759   0.438  10.225 -0.6194 -0.2320  0.5538
   89SAPS   H2R 8571   5.765   0.504  10.136 -0.6248 -2.6900 -1.3487
   89SAPS   H2S 8572   5.841   0.468  10.295 -0.0333 -0.4291 -0.0406
   89SAPS    C3 8573   5.371   0.668  10.292  0.3776  0.0311 -0.3836
   89SAPS    HX 8574   5.410   0.771  10.303  0.1526  0.1813 -0.9878
   89SAPS    HY 8575   5.276   0.648  10.346  0.2323 -1.3834 -1.0989
   89SAPS   O31 8576   5.354   0.630  10.154  0.5489  0.4960  0.0651
   89SAPS   C31 8577   5.301   0.514  10.127  0.0155  0.0083  0.5223
   89SAPS   O32 8578   5.247   0.436  10.206 -0.5530 -0.3100 -0.5542
   89SAPS   C32 8579   5.320   0.489   9.980 -0.6093  0.2119 -0.0078
   89SAPS   H2X 8580   5.387   0.400   9.979 -0.6925  0.0237  2.7274
   89SAPS   H2Y 8581   5.365   0.571   9.920  2.0140 -0.8483  0.3674
   89SAPS   C23 8582   5.801   0.308  10.169 -0.1677  0.1805  0.5387
   89SAPS   H3R 8583   5.783   0.226  10.241 -1.5302  0.9095  1.0771
   89SAPS   H3S 8584   5.906   0.303  10.133  0.0354  0.7877  1.0373
   89SAPS   C24 8585   5.720   0.262  10.052  0.0065  0.6918  0.3734
   89SAPS   H4R 8586   5.613   0.249  10.077  0.2088 -0.1495  0.8621
   89SAPS   H4S 8587   5.741   0.157  10.024  0.2889  1.5437 -3.0282
   89SAPS   C25 8588   5.737   0.349   9.929  0.1643  0.4816 -0.1113
   89SAPS   H5R 8589   5.780   0.448   9.952 -2.8614  1.4730  1.8726
   89SAPS   C26 8590   5.716   0.319   9.797  0.4872  0.5750 -0.8045
   89SAPS   H6R 8591   5.730   0.397   9.721 -0.8336  1.4089 -0.2462
   89SAPS   C27 8592   5.676   0.182   9.760  0.0672  0.3477  0.4382
   89SAPS   H7R 8593   5.614   0.138   9.841  0.7381  0.2661  0.9208
   89SAPS   H7S 8594   5.764   0.115   9.749 -0.6631 -0.6679  0.6146
   89SAPS   C28 8595   5.579   0.178   9.646  0.5760  0.1979  0.2223
   89SAPS   H8R 8596   5.476   0.206   9.674  0.9845  2.1255 -0.0574
   89SAPS   C29 8597   5.605   0.142   9.518  0.3827  0.6087 -0.2035
   89SAPS   H9R 8598   5.516   0.137   9.454 -0.2091 -0.5582  0.6887
   89SAPS  C210 8599   5.733   0.104   9.462 -0.1688  0.2995 -0.6459
   89SAPS  H10R 8600   5.736  -0.007   9.456  0.9127 -0.1904  4.6830
   89SAPS  H10S 8601   5.811   0.134   9.535 -0.7537 -2.0421  1.0562
   89SAPS  C211 8602   5.776   0.175   9.332  0.6128 -0.0070 -0.1719
   89SAPS  H11R 8603   5.829   0.271   9.344 -0.2926  0.3427  1.2601
   89SAPS  C212 8604   5.755   0.126   9.206 -0.0315 -0.3996  0.3424
   89SAPS  H12R 8605   5.795   0.187   9.124 -0.3327  0.3109  0.7138
   89SAPS  C213 8606   5.696  -0.005   9.165  0.1094 -0.6746  0.2056
   89SAPS  H13R 8607   5.603   0.018   9.109 -0.2066 -1.5013  0.3733
   89SAPS  H13S 8608   5.672  -0.068   9.253  0.3524 -1.2251 -0.1163
   89SAPS  C214 8609   5.791  -0.080   9.080  0.8738  0.3780  0.5726
   89SAPS  H14R 8610   5.895  -0.087   9.115  0.6724  0.1022  1.1341
   89SAPS  C215 8611   5.761  -0.144   8.960  0.2094  0.1069 -0.3018
   89SAPS  H15R 8612   5.843  -0.194   8.907  0.4483  1.0608 -0.8381
   89SAPS  C216 8613   5.630  -0.156   8.891  0.5476  0.3937 -1.0606
   89SAPS  H16R 8614   5.549  -0.142   8.966  0.7641  1.8539 -1.0679
   89SAPS  H16S 8615   5.609  -0.256   8.846 -0.7143  0.2675 -0.2344
   89SAPS  C217 8616   5.629  -0.043   8.780 -0.0893  0.2042  0.0719
   89SAPS  H17R 8617   5.643   0.061   8.817  2.2105  0.3583 -1.0817
   89SAPS  H17S 8618   5.527  -0.044   8.736  0.4252 -0.5772 -1.1518
   89SAPS  C218 8619   5.735  -0.072   8.673 -0.2542 -0.7046  0.5663
   89SAPS  H18R 8620   5.743  -0.179   8.647 -1.2829 -0.4482 -0.8938
   89SAPS  H18S 8621   5.833  -0.043   8.717  0.1512 -1.6668  0.3119
   89SAPS  C219 8622   5.710   0.019   8.547 -0.3740 -0.6414 -0.1069
   89SAPS  H19R 8623   5.618  -0.018   8.497  0.6614  0.2863 -2.9332
   89SAPS  H19S 8624   5.792   0.004   8.473  2.0771  3.6956  1.3642
   89SAPS  C220 8625   5.712   0.163   8.570  0.0485  0.3297  0.0660
   89SAPS  H20R 8626   5.707   0.226   8.479  0.3588 -2.7343 -2.2497
   89SAPS  H20S 8627   5.800   0.189   8.633 -0.8900  2.1924  0.6864
   89SAPS  H20T 8628   5.620   0.190   8.626 -0.4548 -2.4311  0.7014
   89SAPS   C33 8629   5.187   0.451   9.921 -0.4885 -0.1154 -0.4834
   89SAPS   H3X 8630   5.132   0.545   9.900  1.8390  1.4309  0.0331
   89SAPS   H3Y 8631   5.125   0.389   9.989  0.0734 -0.4720 -0.2917
   89SAPS   C34 8632   5.209   0.371   9.793 -0.0241  0.0198 -0.2092
   89SAPS   H4X 8633   5.124   0.302   9.774  0.3714 -1.2903  2.3104
   89SAPS   H4Y 8634   5.301   0.309   9.798 -0.2353 -0.2056  1.9241
   89SAPS   C35 8635   5.210   0.467   9.673 -0.4436 -0.0670 -0.7287
   89SAPS   H5X 8636   5.285   0.548   9.690 -1.9048  1.2326 -0.2195
   89SAPS   H5Y 8637   5.114   0.522   9.661 -0.5090 -0.3324 -1.4863
   89SAPS   C36 8638   5.255   0.386   9.545  0.5851  0.8947 -0.3320
   89SAPS   H6X 8639   5.191   0.296   9.536 -0.1645  1.3053  0.6755
   89SAPS   H6Y 8640   5.353   0.334   9.555  0.5975  0.6920 -1.4487
   89SAPS   C37 8641   5.251   0.460   9.421 -0.0435 -0.4615  0.0931
   89SAPS   H7X 8642   5.305   0.556   9.434 -2.0067  0.4467  2.1152
   89SAPS   H7Y 8643   5.160   0.496   9.367  0.7495  2.6165  0.6023
   89SAPS   C38 8644   5.327   0.386   9.309 -0.5129  0.4274 -0.5187
   89SAPS   H8X 8645   5.274   0.293   9.281 -0.6970  0.4579 -0.2771
   89SAPS   H8Y 8646   5.424   0.344   9.342 -0.0881  1.4655 -0.3917
   89SAPS   C39 8647   5.338   0.473   9.187 -0.5496 -0.0021 -0.3835
   89SAPS   H9X 8648   5.420   0.548   9.195  0.2387 -0.8926  0.1308
   89SAPS   H9Y 8649   5.245   0.529   9.165 -1.0235  0.0293  1.5475
   89SAPS  C310 8650   5.370   0.379   9.071 -0.1873  0.7302  0.5937
   89SAPS  H10X 8651   5.277   0.318   9.070 -0.8501  1.7184 -0.6836
   89SAPS  H10Y 8652   5.459   0.315   9.092 -0.6537  0.1988  0.9597
   89SAPS  C311 8653   5.371   0.444   8.928 -0.1528  0.0815  0.3829
   89SAPS  H11X 8654   5.477   0.476   8.913 -0.1958  1.4543  2.5675
   89SAPS  H11Y 8655   5.311   0.538   8.918  2.0354  1.4511 -0.7820
   89SAPS  C312 8656   5.337   0.344   8.817  0.0746  0.7209 -0.5967
   89SAPS  H12X 8657   5.235   0.303   8.832 -0.0549  1.3867  0.4326
   89SAPS  H12Y 8658   5.408   0.258   8.819  0.9622  1.4272 -1.1269
   89SAPS  C313 8659   5.344   0.400   8.682 -0.2741  0.1612  0.5614
   89SAPS  H13X 8660   5.441   0.447   8.655  0.0851 -1.0000 -0.2466
   89SAPS  H13Y 8661   5.272   0.481   8.660  0.3666  0.3119 -1.1241
   89SAPS  C314 8662   5.335   0.288   8.577  0.0257 -0.0594  0.3020
   89SAPS  H14X 8663   5.255   0.219   8.610  1.3079 -2.9591 -2.1488
   89SAPS  H14Y 8664   5.433   0.236   8.563  1.4995  2.5538  0.3020
   89SAPS  C315 8665   5.298   0.351   8.441 -0.0597  0.2865  0.5682
   89SAPS  H15X 8666   5.360   0.438   8.411 -2.3741  0.9825 -2.7861
   89SAPS  H15Y 8667   5.201   0.404   8.456  0.4930  1.9120 -1.1889
   89SAPS  C316 8668   5.262   0.245   8.331 -0.3113  0.5371 -0.2158
   89SAPS  H16X 8669   5.181   0.183   8.376 -1.3612  2.2268  0.3357
   89SAPS  H16Y 8670   5.356   0.189   8.311 -1.0511  0.0252 -2.5045
   89SAPS  C317 8671   5.205   0.315   8.211  0.0924  0.1062 -0.0622
   89SAPS  H17X 8672   5.273   0.394   8.171  0.2132 -0.4262 -0.9569
   89SAPS  H17Y 8673   5.111   0.353   8.256  1.2926  1.0989  1.7390
   89SAPS  C318 8674   5.165   0.215   8.102  0.6191  0.5515  1.1082
   89SAPS  H18X 8675   5.069   0.161   8.119 -0.7855  2.2040 -1.0892
   89SAPS  H18Y 8676   5.248   0.141   8.094 -0.1979 -0.3201  0.4564
   89SAPS  H18Z 8677   5.168   0.270   8.006 -1.9879 -1.3583 -0.1670
   90SAPS     N 8678   0.548   0.136  11.079  0.4293 -0.3266 -0.7000
   90SAPS   HN1 8679   0.628   0.119  11.143 -0.9159 -1.2707  0.8048
   90SAPS   HN2 8680   0.551   0.236  11.050  0.1251 -0.2351 -0.4145
   90SAPS   HN3 8681   0.458   0.128  11.129 -0.4221 -2.5088 -2.4339
   90SAPS   C12 8682   0.551   0.035  10.973 -0.4194  0.6149  0.6096
   90SAPS  H12A 8683   0.657   0.018  10.955 -0.6073 -1.5520  1.1773
   90SAPS   C13 8684   0.479  -0.091  11.011  0.5256 -0.3600  0.5774
   90SAPS  O13A 8685   0.438  -0.118  11.125 -0.7446  0.1171 -0.5836
   90SAPS  O13B 8686   0.470  -0.181  10.922 -0.5695 -0.1744  0.1983
   90SAPS   C11 8687   0.490   0.092  10.842  0.0670 -0.3272 -0.8164
   90SAPS  H11A 8688   0.384   0.116  10.867 -0.5234 -2.8620 -0.6242
   90SAPS  H11B 8689   0.477   0.021  10.757 -2.2115  0.4103 -1.1541
   90SAPS     P 8690   0.683   0.196  10.688  0.3458  0.0385 -0.0052
   90SAPS   O13 8691   0.738   0.330  10.659 -0.2483  0.0464 -0.8742
   90SAPS   O14 8692   0.776   0.087  10.731  0.3263  0.7480  0.6971
   90SAPS   O12 8693   0.566   0.211  10.799  0.1248 -0.3892  0.6002
   90SAPS   O11 8694   0.600   0.152  10.561 -0.1371 -0.3556  0.0015
   90SAPS    C1 8695   0.477   0.222  10.538  0.4783  0.0311 -0.3209
   90SAPS    HA 8696   0.392   0.175  10.593  1.2976 -0.2822  0.6971
   90SAPS    HB 8697   0.487   0.332  10.553  1.5744 -0.3938  2.6035
   90SAPS    C2 8698   0.445   0.229  10.386 -0.0930  0.7501  0.2556
   90SAPS    HS 8699   0.339   0.263  10.381 -0.4982 -0.5733 -1.7916
   90SAPS   O21 8700   0.451   0.100  10.332  0.2322 -0.6031  0.3590
   90SAPS   C21 8701   0.362   0.016  10.348 -0.3475  0.0036  0.8471
   90SAPS   O22 8702   0.272   0.009  10.428 -0.7224 -0.1480 -0.0404
   90SAPS   C22 8703   0.391  -0.099  10.250 -0.4379 -0.0220  0.7058
   90SAPS   H2R 8704   0.453  -0.067  10.163 -0.1891  1.1013  1.2782
   90SAPS   H2S 8705   0.455  -0.172  10.304  0.1185  0.3114  0.5049
   90SAPS    C3 8706   0.534   0.330  10.313  0.0379  0.8753  0.0620
   90SAPS    HX 8707   0.637   0.309  10.351 -0.5241  1.5035  2.0744
   90SAPS    HY 8708   0.509   0.433  10.348 -2.4631  0.5318 -0.5449
   90SAPS   O31 8709   0.522   0.317  10.163  0.4490 -0.6973 -0.1630
   90SAPS   C31 8710   0.564   0.423  10.098 -0.3192 -0.5369 -0.9395
   90SAPS   O32 8711   0.620   0.518  10.149 -0.8848  0.2593  0.3057
   90SAPS   C32 8712   0.522   0.419   9.955 -0.6637  0.6546  0.0501
   90SAPS   H2X 8713   0.420   0.384   9.929 -0.3258  1.6035 -2.7993
   90SAPS   H2Y 8714   0.591   0.348   9.905 -1.9656 -0.4187 -0.2751
   90SAPS   C23 8715   0.271  -0.169  10.195  0.5167  0.8173 -0.1088
   90SAPS   H3R 8716   0.206  -0.105  10.131 -0.0156 -1.8468 -2.4225
   90SAPS   H3S 8717   0.218  -0.222  10.277  4.2795 -2.8015  0.2995
   90SAPS   C24 8718   0.300  -0.294  10.102  0.3491 -0.0438  0.4645
   90SAPS   H4R 8719   0.376  -0.342  10.167 -0.7729 -0.7406  1.2989
   90SAPS   H4S 8720   0.352  -0.271  10.006 -1.3090  2.7456  0.1297
   90SAPS   C25 8721   0.184  -0.388  10.090  0.1199 -0.1181  0.0177
   90SAPS   H5R 8722   0.129  -0.416  10.181 -0.1965 -2.7961 -0.9143
   90SAPS   C26 8723   0.135  -0.432   9.975 -0.3620 -0.3289 -0.2554
   90SAPS   H6R 8724   0.045  -0.496   9.977 -0.1233 -0.6583  0.4876
   90SAPS   C27 8725   0.171  -0.417   9.837  0.2742 -0.1314  0.1055
   90SAPS   H7R 8726   0.202  -0.509   9.784 -1.5175 -0.7957  0.1342
   90SAPS   H7S 8727   0.252  -0.341   9.833  0.4791 -0.1844  2.1054
   90SAPS   C28 8728   0.061  -0.349   9.759 -0.6286 -0.3533 -0.3761
   90SAPS   H8R 8729  -0.016  -0.302   9.822  0.3852 -0.9614  1.3991
   90SAPS   C29 8730   0.049  -0.357   9.620  0.1237 -0.6235 -0.4151
   90SAPS   H9R 8731  -0.037  -0.300   9.581  0.2560 -0.0730  0.0860
   90SAPS  C210 8732   0.143  -0.415   9.520  0.0193  0.3849  0.3025
   90SAPS  H10R 8733   0.236  -0.449   9.570 -0.9895 -1.8227  0.8109
   90SAPS  H10S 8734   0.179  -0.345   9.442 -0.3232  0.2793  0.0413
   90SAPS  C211 8735   0.097  -0.547   9.455 -0.5969 -0.3572  0.2355
   90SAPS  H11R 8736   0.022  -0.604   9.513  0.4468 -0.0534  1.9537
   90SAPS  C212 8737   0.132  -0.590   9.333  0.5756  0.0122 -0.0977
   90SAPS  H12R 8738   0.101  -0.693   9.310  1.1091 -0.6170  1.8480
   90SAPS  C213 8739   0.215  -0.525   9.227  0.8353  0.5007  0.2710
   90SAPS  H13R 8740   0.306  -0.481   9.273  0.4645  1.5299  0.0525
   90SAPS  H13S 8741   0.165  -0.434   9.186 -0.3812 -0.1253  0.2979
   90SAPS  C214 8742   0.267  -0.608   9.113 -0.5620 -0.4832  0.3058
   90SAPS  H14R 8743   0.362  -0.654   9.142  0.1766  0.6992 -0.1666
   90SAPS  C215 8744   0.224  -0.637   8.993  0.4432  0.4727 -0.2115
   90SAPS  H15R 8745   0.302  -0.691   8.939 -0.1147  0.6126 -1.1849
   90SAPS  C216 8746   0.087  -0.608   8.929 -0.1277  0.3576  0.9215
   90SAPS  H16R 8747   0.096  -0.531   8.850 -1.1477  1.4849  1.8707
   90SAPS  H16S 8748   0.018  -0.564   9.004 -1.0997  0.6647 -0.1288
   90SAPS  C217 8749   0.016  -0.724   8.863  0.4202 -0.1253 -0.0915
   90SAPS  H17R 8750  -0.001  -0.813   8.928  0.2093  0.9336  1.3451
   90SAPS  H17S 8751   0.080  -0.749   8.776  0.6286  3.8434 -1.2954
   90SAPS  C218 8752  -0.125  -0.685   8.809 -1.0403  0.4016 -0.2852
   90SAPS  H18R 8753  -0.127  -0.586   8.759  0.6986  1.3453  1.4231
   90SAPS  H18S 8754  -0.191  -0.688   8.898  1.2219 -2.7653  1.4523
   90SAPS  C219 8755  -0.166  -0.789   8.703 -0.3096  0.6484  0.0676
   90SAPS  H19R 8756  -0.171  -0.892   8.743  1.7008  0.0845 -0.9570
   90SAPS  H19S 8757  -0.078  -0.795   8.635 -0.7277  0.8450 -0.4997
   90SAPS  C220 8758  -0.296  -0.756   8.629  0.2250 -0.3416 -0.2051
   90SAPS  H20R 8759  -0.391  -0.745   8.685  0.0634 -0.4598 -0.4578
   90SAPS  H20S 8760  -0.319  -0.829   8.549 -0.3368 -0.0187 -0.3413
   90SAPS  H20T 8761  -0.281  -0.658   8.580  1.1263 -0.0594  0.6014
   90SAPS   C33 8762   0.550   0.552   9.881 -0.3012  1.1159  0.4716
   90SAPS   H3X 8763   0.658   0.575   9.866  0.2552 -0.9968  0.8276
   90SAPS   H3Y 8764   0.507   0.628   9.949  1.2832  0.0835  2.7873
   90SAPS   C34 8765   0.466   0.565   9.751 -0.1504 -0.3535  0.4377
   90SAPS   H4X 8766   0.463   0.674   9.733 -0.7153 -0.7580 -2.3113
   90SAPS   H4Y 8767   0.366   0.528   9.781 -0.0507 -1.4787 -0.5088
   90SAPS   C35 8768   0.519   0.487   9.632  0.0406 -0.1955 -0.5894
   90SAPS   H5X 8769   0.499   0.380   9.655 -1.0230  0.0879 -0.1667
   90SAPS   H5Y 8770   0.628   0.510   9.627  0.3514 -1.8125 -3.9429
   90SAPS   C36 8771   0.454   0.536   9.505 -1.1247  0.7949 -0.5523
   90SAPS   H6X 8772   0.476   0.645   9.511  1.4227  0.3153 -0.0959
   90SAPS   H6Y 8773   0.347   0.506   9.495 -0.2447 -2.4291 -1.5540
   90SAPS   C37 8774   0.518   0.487   9.370 -0.2311  0.4959 -0.2138
   90SAPS   H7X 8775   0.497   0.378   9.367 -0.3929  0.5112  0.2529
   90SAPS   H7Y 8776   0.628   0.493   9.370  0.0440 -2.7082  0.3250
   90SAPS   C38 8777   0.455   0.548   9.246  0.1717 -0.2438  0.2893
   90SAPS   H8X 8778   0.524   0.524   9.162 -1.2241  0.2650 -1.0421
   90SAPS   H8Y 8779   0.432   0.657   9.238  0.1719 -0.3174 -0.8660
   90SAPS   C39 8780   0.326   0.466   9.217 -0.1882  0.1043 -0.0689
   90SAPS   H9X 8781   0.256   0.455   9.302 -0.0822  0.4659  0.0655
   90SAPS   H9Y 8782   0.365   0.365   9.190 -0.5403  0.2259 -1.0669
   90SAPS  C310 8783   0.251   0.512   9.090  0.0897 -0.5943 -0.5677
   90SAPS  H10X 8784   0.316   0.537   9.004  2.9409  0.1461  1.6297
   90SAPS  H10Y 8785   0.206   0.610   9.120  2.1134 -0.0283  0.8788
   90SAPS  C311 8786   0.129   0.420   9.061  0.5320 -1.1350 -0.4803
   90SAPS  H11X 8787   0.050   0.484   9.016  1.1322  1.2657  1.6486
   90SAPS  H11Y 8788   0.082   0.387   9.156  0.9725 -1.1327 -0.2607
   90SAPS  C312 8789   0.148   0.298   8.973  0.6200  0.7982 -0.7206
   90SAPS  H12X 8790   0.203   0.223   9.034 -1.2095  1.0969  1.4336
   90SAPS  H12Y 8791   0.211   0.340   8.892 -0.2865  1.6127 -1.0342
   90SAPS  C313 8792   0.014   0.264   8.909  0.1081 -0.2906 -0.5858
   90SAPS  H13X 8793  -0.034   0.345   8.850 -3.3332 -1.5237  0.2630
   90SAPS  H13Y 8794  -0.051   0.238   8.995  0.9902 -0.6276 -0.0119
   90SAPS  C314 8795   0.034   0.140   8.814 -0.0838  0.0074 -0.1570
   90SAPS  H14X 8796  -0.064   0.091   8.797 -1.9862  2.8202  1.7703
   90SAPS  H14Y 8797   0.087   0.068   8.880 -0.2087 -1.2567 -1.3966
   90SAPS  C315 8798   0.109   0.177   8.682 -0.0664 -0.4192  0.7776
   90SAPS  H15X 8799   0.213   0.213   8.692 -0.8796  2.4881 -0.2277
   90SAPS  H15Y 8800   0.047   0.251   8.626 -1.6825 -0.5328  2.3095
   90SAPS  C316 8801   0.111   0.046   8.604 -0.1548 -0.3701 -0.0250
   90SAPS  H16X 8802   0.006   0.012   8.589 -1.0983  2.3011 -0.0238
   90SAPS  H16Y 8803   0.167  -0.035   8.655  1.5048  1.0541  0.5101
   90SAPS  C317 8804   0.169   0.074   8.464 -0.2734 -0.2390  0.5931
   90SAPS  H17X 8805   0.278   0.093   8.476 -0.7455  2.1437  1.8877
   90SAPS  H17Y 8806   0.115   0.162   8.421 -0.4919  1.3315  3.7851
   90SAPS  C318 8807   0.147  -0.042   8.366  0.6178  0.1488  0.2545
   90SAPS  H18X 8808   0.057  -0.105   8.379  0.4349  0.6099  1.3245
   90SAPS  H18Y 8809   0.231  -0.115   8.369  1.1303  0.7647  1.1579
   90SAPS  H18Z 8810   0.155  -0.000   8.263  1.1397  1.9307  0.9833
   91SAPS     N 8811   2.265   4.197   5.807  0.0706 -0.7023 -0.2935
   91SAPS   HN1 8812   2.334   4.141   5.753  2.5272 -0.4654  2.3907
   91SAPS   HN2 8813   2.274   4.179   5.909  2.1575  2.9747  0.3597
   91SAPS   HN3 8814   2.165   4.192   5.777 -0.0366  4.0684 -1.5225
   91SAPS   C12 8815   2.298   4.346   5.807 -0.0065 -0.2860 -0.0488
   91SAPS  H12A 8816   2.391   4.355   5.863 -1.1096 -1.4926  2.1001
   91SAPS   C13 8817   2.316   4.415   5.668 -0.2724 -0.1274 -0.1794
   91SAPS  O13A 8818   2.282   4.342   5.573  0.8988  0.1359  0.1528
   91SAPS  O13B 8819   2.346   4.538   5.667  0.4251 -0.4389  0.1403
   91SAPS   C11 8820   2.190   4.422   5.878  0.0214  0.1387 -0.8668
   91SAPS  H11A 8821   2.102   4.426   5.811  0.4823  1.3246 -1.4406
   91SAPS  H11B 8822   2.232   4.524   5.890  0.5568  0.0575 -1.8804
   91SAPS     P 8823   2.050   4.400   6.090  0.2735 -0.1884  0.4300
   91SAPS   O13 8824   1.993   4.527   6.054  0.1268 -0.0710 -0.2426
   91SAPS   O14 8825   1.965   4.274   6.104 -0.2736 -0.7321  0.1357
   91SAPS   O12 8826   2.177   4.366   6.002 -0.2606  0.8266 -0.5282
   91SAPS   O11 8827   2.124   4.431   6.223 -0.8711 -0.0670  0.0624
   91SAPS    C1 8828   2.035   4.478   6.332 -0.1742  0.2005  0.2778
   91SAPS    HA 8829   2.025   4.588   6.322  2.1284  0.5521  1.2200
   91SAPS    HB 8830   1.929   4.446   6.332  0.0622 -0.5984 -0.1524
   91SAPS    C2 8831   2.103   4.461   6.476 -0.1508 -0.5972  0.4330
   91SAPS    HS 8832   2.183   4.537   6.467  1.3622 -2.2276 -0.7164
   91SAPS   O21 8833   2.164   4.333   6.475 -0.0042  0.0182 -0.0531
   91SAPS   C21 8834   2.284   4.328   6.541 -0.0467 -0.4710 -0.2980
   91SAPS   O22 8835   2.339   4.423   6.588  0.8435 -0.3270 -0.1733
   91SAPS   C22 8836   2.342   4.182   6.542  0.4745 -1.0621 -0.1176
   91SAPS   H2R 8837   2.300   4.129   6.454 -1.0903 -0.7485  0.4094
   91SAPS   H2S 8838   2.450   4.190   6.516  0.9671 -0.3430  1.8938
   91SAPS    C3 8839   2.014   4.479   6.598  0.3688 -0.0372  0.3334
   91SAPS    HX 8840   1.941   4.395   6.603  0.7157 -0.3706 -0.1556
   91SAPS    HY 8841   1.961   4.576   6.584 -0.6030 -0.5994  0.0484
   91SAPS   O31 8842   2.083   4.467   6.723  0.4073  0.4201 -0.1398
   91SAPS   C31 8843   2.153   4.581   6.753  0.4351  0.1298 -0.0314
   91SAPS   O32 8844   2.157   4.682   6.688 -0.2950  0.7070 -0.6151
   91SAPS   C32 8845   2.231   4.569   6.892 -0.0088  0.4876 -0.5309
   91SAPS   H2X 8846   2.324   4.511   6.874 -1.1024 -1.2823 -0.7013
   91SAPS   H2Y 8847   2.170   4.508   6.962  1.5973  0.6940  1.1183
   91SAPS   C23 8848   2.319   4.100   6.667 -0.7083 -0.8004 -0.0610
   91SAPS   H3R 8849   2.363   3.999   6.653 -0.0816 -0.9755  2.5705
   91SAPS   H3S 8850   2.211   4.080   6.682 -1.0954  0.1752 -1.4040
   91SAPS   C24 8851   2.383   4.163   6.803  0.1950  0.5733  0.1410
   91SAPS   H4R 8852   2.323   4.119   6.886 -3.1128 -1.2116 -2.9173
   91SAPS   H4S 8853   2.359   4.271   6.794 -0.1240  0.4142 -0.9619
   91SAPS   C25 8854   2.536   4.156   6.801 -0.6630  0.8418  0.0055
   91SAPS   H5R 8855   2.581   4.203   6.713  0.6412  1.4196  0.9444
   91SAPS   C26 8856   2.618   4.108   6.898  0.2391 -0.9210 -0.2474
   91SAPS   H6R 8857   2.724   4.116   6.868  0.3899  1.8778  0.7354
   91SAPS   C27 8858   2.570   4.044   7.026 -0.0195  0.8558  0.3384
   91SAPS   H7R 8859   2.620   3.945   7.019 -0.1786  0.8407 -0.7412
   91SAPS   H7S 8860   2.460   4.036   7.013 -0.1640 -1.0054  2.0851
   91SAPS   C28 8861   2.597   4.121   7.149 -0.2685 -0.5020 -0.5488
   91SAPS   H8R 8862   2.622   4.227   7.133 -0.4832  0.4016  3.8444
   91SAPS   C29 8863   2.567   4.073   7.273 -0.3087  0.0519 -0.0965
   91SAPS   H9R 8864   2.565   4.145   7.357 -0.3606  0.7097 -0.6531
   91SAPS  C210 8865   2.499   3.947   7.311 -0.2780  0.6560  0.6487
   91SAPS  H10R 8866   2.514   3.879   7.225  1.8589  0.9736  0.6976
   91SAPS  H10S 8867   2.390   3.960   7.299 -0.0274  0.5278 -2.4118
   91SAPS  C211 8868   2.545   3.899   7.449  0.3465 -0.1780  0.4978
   91SAPS  H11R 8869   2.631   3.830   7.447 -0.2954 -0.9736  0.1159
   91SAPS  C212 8870   2.490   3.920   7.567  0.0604  0.5037 -0.8242
   91SAPS  H12R 8871   2.526   3.866   7.655 -0.3392 -0.3183 -1.1619
   91SAPS  C213 8872   2.370   4.013   7.590  0.7702 -0.4537  0.1287
   91SAPS  H13R 8873   2.304   4.025   7.501 -0.0993  1.5057  0.9805
   91SAPS  H13S 8874   2.403   4.118   7.609  0.3886 -0.3052 -0.0123
   91SAPS  C214 8875   2.283   3.971   7.707 -0.4179 -0.1660 -0.0557
   91SAPS  H14R 8876   2.177   3.960   7.682 -0.7274 -0.9067  1.4435
   91SAPS  C215 8877   2.312   3.968   7.839 -0.5255  0.4633 -0.1569
   91SAPS  H15R 8878   2.225   3.959   7.905  0.8830  0.1113  1.7139
   91SAPS  C216 8879   2.442   4.006   7.912 -0.3975 -0.2590  0.0809
   91SAPS  H16R 8880   2.440   4.081   7.993 -0.6197  2.3763 -2.2043
   91SAPS  H16S 8881   2.523   4.037   7.842  0.3039 -0.0571  0.9601
   91SAPS  C217 8882   2.480   3.874   7.980 -0.1522 -0.0073  0.2745
   91SAPS  H17R 8883   2.496   3.790   7.909  4.7689  0.0670  0.9341
   91SAPS  H17S 8884   2.396   3.849   8.049  0.0874 -2.2624 -0.1990
   91SAPS  C218 8885   2.602   3.874   8.077  0.2103  0.1323  0.5207
   91SAPS  H18R 8886   2.589   3.776   8.127 -0.4338 -0.4918 -0.8078
   91SAPS  H18S 8887   2.589   3.954   8.153 -0.8089 -0.0939  0.6038
   91SAPS  C219 8888   2.737   3.873   7.998 -0.2086  0.6156 -0.4538
   91SAPS  H19R 8889   2.752   3.971   7.949 -0.0175  0.6671 -0.2957
   91SAPS  H19S 8890   2.746   3.790   7.926 -1.1960  0.1447 -0.0596
   91SAPS  C220 8891   2.845   3.876   8.112 -0.1884 -0.4348  0.9045
   91SAPS  H20R 8892   2.853   3.780   8.167  1.5473 -0.3042  0.9426
   91SAPS  H20S 8893   2.820   3.956   8.185 -2.8833  0.4374 -0.7970
   91SAPS  H20T 8894   2.942   3.910   8.069 -0.8198  0.0435 -0.1966
   91SAPS   C33 8895   2.288   4.708   6.946  0.6428  0.3382 -0.1453
   91SAPS   H3X 8896   2.217   4.788   6.912 -0.4344 -1.3253 -2.0174
   91SAPS   H3Y 8897   2.379   4.729   6.887  0.2423 -2.3505 -1.8926
   91SAPS   C34 8898   2.309   4.705   7.095  0.1096  0.9420 -0.0996
   91SAPS   H4X 8899   2.358   4.613   7.131  0.0930  1.2929  0.8356
   91SAPS   H4Y 8900   2.210   4.689   7.142  0.4061 -0.3911  0.0928
   91SAPS   C35 8901   2.371   4.834   7.137 -0.0038 -0.4599  0.4265
   91SAPS   H5X 8902   2.301   4.916   7.110 -0.5116 -0.7210  0.9268
   91SAPS   H5Y 8903   2.465   4.837   7.078 -0.4571 -1.5547 -0.3798
   91SAPS   C36 8904   2.386   4.844   7.292 -0.0730 -0.8576 -0.1939
   91SAPS   H6X 8905   2.434   4.941   7.319 -0.6974 -1.0769  1.8547
   91SAPS   H6Y 8906   2.459   4.769   7.329 -0.3307 -0.7224  0.6100
   91SAPS   C37 8907   2.246   4.833   7.355 -0.2555 -0.3526  0.3268
   91SAPS   H7X 8908   2.211   4.729   7.343  0.3943 -0.5425  0.0156
   91SAPS   H7Y 8909   2.179   4.905   7.303  0.4277 -0.7883 -1.2254
   91SAPS   C38 8910   2.224   4.852   7.503  0.1723  0.4632 -0.6654
   91SAPS   H8X 8911   2.218   4.752   7.552 -0.7235 -0.1712 -1.9690
   91SAPS   H8Y 8912   2.130   4.909   7.520 -0.9706 -0.7871 -2.3757
   91SAPS   C39 8913   2.348   4.920   7.572  0.6396  0.3369 -0.1147
   91SAPS   H9X 8914   2.382   5.016   7.527  1.8606 -0.2281 -0.4466
   91SAPS   H9Y 8915   2.436   4.852   7.565  0.0958 -0.3374 -0.5250
   91SAPS  C310 8916   2.311   4.933   7.720  0.1188  0.8186  0.2298
   91SAPS  H10X 8917   2.282   4.834   7.761 -0.9648  0.5022 -1.2150
   91SAPS  H10Y 8918   2.221   4.992   7.746 -3.6529 -3.0610 -2.5626
   91SAPS  C311 8919   2.437   4.978   7.798 -0.1916  0.1131  0.6520
   91SAPS  H11X 8920   2.478   5.075   7.764 -0.2495 -0.8233 -2.3146
   91SAPS  H11Y 8921   2.511   4.896   7.789 -0.7053 -0.4293  1.2366
   91SAPS  C312 8922   2.419   4.979   7.953 -0.1839  0.4886  0.6501
   91SAPS  H12X 8923   2.389   4.877   7.984  1.1185  0.2412  1.1359
   91SAPS  H12Y 8924   2.341   5.054   7.979  0.6142  1.4273  0.4040
   91SAPS  C313 8925   2.546   5.007   8.020 -0.0725 -0.0786  0.0215
   91SAPS  H13X 8926   2.522   5.047   8.121  1.4545 -2.2910  1.3404
   91SAPS  H13Y 8927   2.600   5.092   7.972 -0.2999 -0.7392 -1.4538
   91SAPS  C314 8928   2.648   4.889   8.034 -0.6039  0.8418 -0.4877
   91SAPS  H14X 8929   2.666   4.860   7.929 -3.1213  0.1584 -0.8076
   91SAPS  H14Y 8930   2.613   4.804   8.097  1.6076 -0.9198 -1.5104
   91SAPS  C315 8931   2.780   4.932   8.094  0.2285 -0.1416 -0.0865
   91SAPS  H15X 8932   2.764   5.008   8.174  0.8248  0.5135 -0.5762
   91SAPS  H15Y 8933   2.836   4.979   8.011 -2.4217  1.6889 -0.9875
   91SAPS  C316 8934   2.858   4.818   8.165 -0.3788  0.5621 -0.2042
   91SAPS  H16X 8935   2.878   4.740   8.088  0.9808  0.6067  0.0886
   91SAPS  H16Y 8936   2.801   4.758   8.239  0.6933 -0.5796 -0.2603
   91SAPS  C317 8937   2.989   4.866   8.217 -0.5213  0.5007  0.0276
   91SAPS  H17X 8938   2.977   4.956   8.282 -3.2350  0.5779 -0.4736
   91SAPS  H17Y 8939   3.054   4.894   8.131  0.3074  0.1041  0.5059
   91SAPS  C318 8940   3.051   4.765   8.310 -0.0179 -0.1663 -0.1960
   91SAPS  H18X 8941   2.973   4.727   8.380 -0.9010  0.1778 -0.9670
   91SAPS  H18Y 8942   3.131   4.810   8.373  0.1274 -1.0288  0.2537
   91SAPS  H18Z 8943   3.094   4.680   8.253  1.6964  0.8470 -0.4773
   92SAPS     N 8944   1.144   4.505   6.277  0.4576 -0.2292  0.7188
   92SAPS   HN1 8945   1.184   4.529   6.370 -0.5987 -1.9790  1.6821
   92SAPS   HN2 8946   1.097   4.591   6.244 -1.4072 -1.3641  0.2767
   92SAPS   HN3 8947   1.076   4.429   6.296 -0.5247  0.8470  1.6038
   92SAPS   C12 8948   1.246   4.474   6.181 -0.2650  0.5287  0.4917
   92SAPS  H12A 8949   1.287   4.380   6.214  0.5358  1.1872  1.4151
   92SAPS   C13 8950   1.201   4.452   6.036 -0.0986 -0.0182  0.2191
   92SAPS  O13A 8951   1.084   4.474   5.998 -0.0218  0.1154 -0.0191
   92SAPS  O13B 8952   1.295   4.408   5.958  0.7125 -0.3168  0.3838
   92SAPS   C11 8953   1.360   4.585   6.188 -0.1451 -0.3515 -0.1068
   92SAPS  H11A 8954   1.308   4.679   6.158  1.8024  1.5057  1.9694
   92SAPS  H11B 8955   1.441   4.571   6.114 -0.7295  0.5616 -0.9500
   92SAPS     P 8956   1.563   4.568   6.344 -0.1046 -0.0555 -0.2754
   92SAPS   O13 8957   1.592   4.433   6.293 -0.0461 -0.9646  0.2375
   92SAPS   O14 8958   1.637   4.680   6.280  0.3197  0.2353 -0.2188
   92SAPS   O12 8959   1.406   4.597   6.325  0.8268  0.3051 -0.0485
   92SAPS   O11 8960   1.579   4.565   6.501 -0.3529  0.0608  0.2922
   92SAPS    C1 8961   1.575   4.431   6.562 -0.2597 -0.7158 -0.2106
   92SAPS    HA 8962   1.484   4.381   6.521 -0.7428  1.7415 -2.5159
   92SAPS    HB 8963   1.663   4.384   6.514 -0.1834  0.3286 -1.1620
   92SAPS    C2 8964   1.577   4.431   6.717  0.6806  0.0958  0.1817
   92SAPS    HS 8965   1.483   4.480   6.749 -0.8161 -1.7121 -1.2322
   92SAPS   O21 8966   1.693   4.506   6.766 -0.2297 -0.3027 -0.6913
   92SAPS   C21 8967   1.690   4.545   6.886  0.1681  0.5563 -0.4199
   92SAPS   O22 8968   1.596   4.525   6.967 -0.7639  0.4455 -0.0442
   92SAPS   C22 8969   1.808   4.625   6.927  0.1874 -0.3773  0.1381
   92SAPS   H2R 8970   1.883   4.624   6.844 -0.9994  0.0255 -0.9764
   92SAPS   H2S 8971   1.782   4.733   6.932  3.4798  0.4988  1.0235
   92SAPS    C3 8972   1.560   4.283   6.767 -0.1407 -0.6810 -0.2084
   92SAPS    HX 8973   1.468   4.241   6.722 -0.2388  0.1382 -0.7872
   92SAPS    HY 8974   1.547   4.278   6.877 -1.3819  2.4621 -0.1270
   92SAPS   O31 8975   1.672   4.201   6.726 -0.4002 -0.5116 -0.2063
   92SAPS   C31 8976   1.769   4.179   6.820 -1.1382 -0.0613 -0.1491
   92SAPS   O32 8977   1.760   4.215   6.934  0.0725  0.7012  0.4048
   92SAPS   C32 8978   1.899   4.129   6.764  0.1540  0.1064 -0.1505
   92SAPS   H2X 8979   1.965   4.210   6.727 -2.1809  1.2089 -2.1593
   92SAPS   H2Y 8980   1.872   4.067   6.676  1.2515  2.6689 -2.4474
   92SAPS   C23 8981   1.867   4.572   7.064  0.0634  0.0828  0.2897
   92SAPS   H3R 8982   1.973   4.604   7.078 -0.0742  0.6863  0.0168
   92SAPS   H3S 8983   1.860   4.462   7.072 -0.9925  0.1018 -0.2257
   92SAPS   C24 8984   1.797   4.621   7.189 -0.2385 -0.1261  0.1881
   92SAPS   H4R 8985   1.687   4.607   7.182 -0.0439 -1.2797 -1.1970
   92SAPS   H4S 8986   1.810   4.731   7.185 -0.1501 -0.1456 -0.1202
   92SAPS   C25 8987   1.852   4.559   7.314  0.0464  0.0753 -0.2224
   92SAPS   H5R 8988   1.871   4.451   7.310  0.1824  0.0988 -0.2170
   92SAPS   C26 8989   1.893   4.621   7.423 -0.7479 -0.0860 -0.3966
   92SAPS   H6R 8990   1.945   4.565   7.502  2.2404  3.8504  0.7521
   92SAPS   C27 8991   1.899   4.770   7.440  0.2920  0.8169 -0.3125
   92SAPS   H7R 8992   1.942   4.815   7.348 -1.1103 -0.2434 -1.5233
   92SAPS   H7S 8993   1.958   4.788   7.533 -2.1411  0.8924  1.3003
   92SAPS   C28 8994   1.758   4.834   7.456 -0.9510  0.8449 -0.4586
   92SAPS   H8R 8995   1.678   4.785   7.398 -0.1691 -0.3233 -0.5722
   92SAPS   C29 8996   1.721   4.921   7.549 -0.5457 -0.5601  0.8192
   92SAPS   H9R 8997   1.615   4.952   7.544 -0.0817  1.2566  1.4528
   92SAPS  C210 8998   1.799   4.989   7.658  1.5396  0.0681 -0.2453
   92SAPS  H10R 8999   1.797   5.099   7.643  2.0614  0.7504  3.6294
   92SAPS  H10S 9000   1.905   4.957   7.646  1.8253 -0.6060  3.0126
   92SAPS  C211 9001   1.748   4.969   7.801  0.9420  0.5087  0.0122
   92SAPS  H11R 9002   1.647   5.009   7.819  0.5430  0.0379 -1.0950
   92SAPS  C212 9003   1.808   4.896   7.900 -0.1955  0.1315  0.3512
   92SAPS  H12R 9004   1.768   4.899   8.002  0.5559 -0.1464  0.6671
   92SAPS  C213 9005   1.943   4.820   7.890 -0.2402  0.4950  0.2430
   92SAPS  H13R 9006   2.012   4.873   7.959 -0.8772  0.2156  1.1135
   92SAPS  H13S 9007   1.996   4.829   7.793  0.1619 -1.4354  0.2575
   92SAPS  C214 9008   1.925   4.671   7.926 -0.0967 -0.4604 -0.0485
   92SAPS  H14R 9009   1.904   4.604   7.840 -2.0182 -0.8990  0.7048
   92SAPS  C215 9010   1.923   4.611   8.046  0.0602 -0.2179  0.1745
   92SAPS  H15R 9011   1.910   4.502   8.042  0.3587 -0.2720  0.5958
   92SAPS  C216 9012   1.929   4.684   8.175 -0.1541  0.3324  0.3151
   92SAPS  H16R 9013   1.843   4.754   8.179 -0.6846 -0.1863 -1.2459
   92SAPS  H16S 9014   2.028   4.735   8.184  0.1108 -0.2065  0.5076
   92SAPS  C217 9015   1.919   4.587   8.292  1.1658 -0.1838 -0.7033
   92SAPS  H17R 9016   1.994   4.506   8.290  2.1877  0.7429 -2.0327
   92SAPS  H17S 9017   1.824   4.530   8.286  1.2111 -0.3479  0.0748
   92SAPS  C218 9018   1.910   4.661   8.433  0.2112 -0.2279 -0.1181
   92SAPS  H18R 9019   1.827   4.734   8.434  1.5655  1.3761 -0.7319
   92SAPS  H18S 9020   2.006   4.716   8.437 -0.7947  1.5052  1.4457
   92SAPS  C219 9021   1.911   4.561   8.553 -0.1064  0.1886 -0.1274
   92SAPS  H19R 9022   1.819   4.498   8.550 -1.2289  1.7763 -0.4739
   92SAPS  H19S 9023   1.904   4.635   8.636  0.4555  1.8237 -1.4863
   92SAPS  C220 9024   2.020   4.466   8.575 -0.9391  0.8678  0.4676
   92SAPS  H20R 9025   2.036   4.386   8.499 -0.7809 -0.7637  2.1502
   92SAPS  H20S 9026   2.016   4.408   8.669 -0.6111  1.4145  0.8288
   92SAPS  H20T 9027   2.118   4.519   8.581 -2.0644  3.1566 -0.2082
   92SAPS   C33 9028   1.983   4.046   6.871  0.5000 -0.1866  0.0877
   92SAPS   H3X 9029   2.052   3.976   6.819  1.5230  0.4941  0.5123
   92SAPS   H3Y 9030   1.910   3.989   6.932  0.1552  2.0871  1.9163
   92SAPS   C34 9031   2.048   4.138   6.968  0.8032 -0.1657  0.5317
   92SAPS   H4X 9032   1.974   4.214   7.002  0.5093 -0.7397  1.2139
   92SAPS   H4Y 9033   2.127   4.199   6.921 -0.9244  1.2508 -0.6866
   92SAPS   C35 9034   2.094   4.081   7.098 -0.5529  0.6582 -0.1722
   92SAPS   H5X 9035   2.150   3.987   7.082 -0.0307  1.0507 -0.7269
   92SAPS   H5Y 9036   2.003   4.063   7.159  0.2363 -0.7309  0.6367
   92SAPS   C36 9037   2.185   4.178   7.182 -0.3933  0.3340  1.0337
   92SAPS   H6X 9038   2.288   4.192   7.143  0.1695 -2.8845  1.0750
   92SAPS   H6Y 9039   2.208   4.126   7.278  0.0429  0.3020  0.9144
   92SAPS   C37 9040   2.123   4.310   7.211  0.1516  0.0104 -0.0634
   92SAPS   H7X 9041   2.034   4.287   7.274  0.3208 -0.2377  0.0894
   92SAPS   H7Y 9042   2.091   4.370   7.124  0.9666  0.8283  0.1819
   92SAPS   C38 9043   2.209   4.391   7.309 -0.1709 -0.4944  0.4678
   92SAPS   H8X 9044   2.209   4.499   7.282  0.8661 -0.1962  1.5576
   92SAPS   H8Y 9045   2.313   4.357   7.291 -0.0635 -0.8446  1.6272
   92SAPS   C39 9046   2.184   4.359   7.461 -0.5844  0.3806 -0.2039
   92SAPS   H9X 9047   2.164   4.250   7.467  0.1218  0.1775 -1.3852
   92SAPS   H9Y 9048   2.086   4.406   7.486 -0.5356 -0.9397  2.9241
   92SAPS  C310 9049   2.290   4.409   7.562  0.2637  0.1607  0.0045
   92SAPS  H10X 9050   2.304   4.515   7.532 -0.6700  0.2993  0.0021
   92SAPS  H10Y 9051   2.389   4.367   7.534 -0.7627 -0.2880 -3.4695
   92SAPS  C311 9052   2.252   4.383   7.700 -0.1311 -0.2622 -0.1969
   92SAPS  H11X 9053   2.249   4.275   7.729 -2.0947 -0.1888  0.0130
   92SAPS  H11Y 9054   2.147   4.418   7.708 -0.3271 -0.0296 -2.8899
   92SAPS  C312 9055   2.333   4.474   7.799 -0.2327  0.4269 -0.2059
   92SAPS  H12X 9056   2.318   4.578   7.764 -1.0437  0.0825 -0.9450
   92SAPS  H12Y 9057   2.439   4.444   7.784 -0.6811 -0.8400 -1.0270
   92SAPS  C313 9058   2.297   4.458   7.949  0.4158 -0.2383  0.8975
   92SAPS  H13X 9059   2.303   4.350   7.974  0.3705 -0.0881  1.5769
   92SAPS  H13Y 9060   2.192   4.494   7.953  0.5771  0.5050 -0.5660
   92SAPS  C314 9061   2.385   4.539   8.037 -0.1469  0.1003 -0.2387
   92SAPS  H14X 9062   2.383   4.640   7.992  0.7767 -0.9139 -2.7514
   92SAPS  H14Y 9063   2.489   4.501   8.035 -0.1221 -0.0278 -4.1442
   92SAPS  C315 9064   2.341   4.532   8.182  0.8004  0.5913 -0.6580
   92SAPS  H15X 9065   2.376   4.431   8.214  0.0398  0.3003 -0.7373
   92SAPS  H15Y 9066   2.231   4.531   8.195  1.0342 -0.4386  1.8010
   92SAPS  C316 9067   2.394   4.649   8.265 -0.4135 -0.1609  0.4478
   92SAPS  H16X 9068   2.344   4.745   8.239 -0.6923 -0.3167  0.4109
   92SAPS  H16Y 9069   2.505   4.662   8.257 -0.4408 -0.0901  0.1629
   92SAPS  C317 9070   2.361   4.623   8.415 -0.0393  0.0007 -0.0382
   92SAPS  H17X 9071   2.255   4.654   8.432  0.1542 -0.0261  1.2859
   92SAPS  H17Y 9072   2.426   4.697   8.465 -0.1665  0.6585 -0.8227
   92SAPS  C318 9073   2.412   4.492   8.462  0.2548 -0.3889  0.0319
   92SAPS  H18X 9074   2.407   4.494   8.573 -0.7390  2.9014  0.0235
   92SAPS  H18Y 9075   2.513   4.463   8.425  0.9951 -1.1617  2.4344
   92SAPS  H18Z 9076   2.340   4.416   8.424 -1.4509  0.8375  0.7100
   93SAPS     N 9077   3.903   2.563   6.330  0.8165  0.0732 -0.0560
   93SAPS   HN1 9078   3.933   2.479   6.276 -0.3445  0.3168 -1.1554
   93SAPS   HN2 9079   3.962   2.578   6.413  0.1725 -2.0385  0.8476
   93SAPS   HN3 9080   3.806   2.533   6.353  0.4882 -0.4023 -1.8819
   93SAPS   C12 9081   3.900   2.679   6.238 -0.3683 -0.2924  0.5439
   93SAPS  H12A 9082   4.001   2.682   6.198 -1.2485  2.4261 -1.8638
   93SAPS   C13 9083   3.817   2.677   6.112  0.1756 -0.8046  0.2566
   93SAPS  O13A 9084   3.770   2.571   6.070  0.2765 -0.5200 -0.0731
   93SAPS  O13B 9085   3.826   2.779   6.034 -0.6301 -0.2862  0.1484
   93SAPS   C11 9086   3.878   2.808   6.314 -0.7367  0.1758  0.6774
   93SAPS  H11A 9087   3.893   2.900   6.254 -2.2098  1.1308  1.7061
   93SAPS  H11B 9088   3.964   2.823   6.383 -0.2688  0.5332  0.0217
   93SAPS     P 9089   3.718   2.916   6.481  0.0706 -0.2429 -0.6203
   93SAPS   O13 9090   3.748   3.048   6.423  0.9812 -0.0136  0.5483
   93SAPS   O14 9091   3.575   2.907   6.519 -0.7156  0.5709 -0.2234
   93SAPS   O12 9092   3.756   2.798   6.390 -0.1349  0.3915 -0.9783
   93SAPS   O11 9093   3.818   2.896   6.606 -0.6229 -0.3930 -0.2053
   93SAPS    C1 9094   3.816   2.773   6.675 -0.3953  1.0080 -0.4018
   93SAPS    HA 9095   3.772   2.690   6.616  1.8755 -0.9727  0.4967
   93SAPS    HB 9096   3.920   2.737   6.692  0.3129  2.8698 -0.5427
   93SAPS    C2 9097   3.739   2.779   6.810  0.0849  0.1250  0.6063
   93SAPS    HS 9098   3.631   2.796   6.788  0.1392  2.6376  1.8727
   93SAPS   O21 9099   3.793   2.892   6.885  0.5464 -0.3259  0.1639
   93SAPS   C21 9100   3.741   3.011   6.859 -0.3872 -0.6737  0.4625
   93SAPS   O22 9101   3.640   3.026   6.792  0.2507  0.3080 -0.4043
   93SAPS   C22 9102   3.813   3.126   6.942  0.3634 -0.0570 -0.0416
   93SAPS   H2R 9103   3.835   3.083   7.042  0.3295  2.6057  1.1768
   93SAPS   H2S 9104   3.909   3.148   6.890  0.0691 -1.7093 -1.3966
   93SAPS    C3 9105   3.748   2.651   6.891 -0.1470 -0.1973 -0.2403
   93SAPS    HX 9106   3.855   2.620   6.895  0.1996  0.7804 -1.2590
   93SAPS    HY 9107   3.696   2.567   6.840  1.8719 -0.8670 -1.3121
   93SAPS   O31 9108   3.688   2.676   7.019 -0.0637 -0.5011 -0.4335
   93SAPS   C31 9109   3.560   2.700   7.022  0.0507  0.7371 -0.4379
   93SAPS   O32 9110   3.482   2.693   6.929 -0.1090 -0.0531 -0.2730
   93SAPS   C32 9111   3.519   2.769   7.156  0.0066 -0.3242 -1.0004
   93SAPS   H2X 9112   3.609   2.828   7.186 -0.2326 -0.4132 -0.0783
   93SAPS   H2Y 9113   3.504   2.682   7.223  3.1672 -1.9158 -2.1264
   93SAPS   C23 9114   3.732   3.260   6.954  0.0965  0.6031  0.6066
   93SAPS   H3R 9115   3.624   3.252   6.980  0.0340  4.1008  1.9928
   93SAPS   H3S 9116   3.733   3.315   6.858  1.1247 -0.0130  0.2521
   93SAPS   C24 9117   3.792   3.350   7.060  0.3848  0.0843 -0.4548
   93SAPS   H4R 9118   3.781   3.320   7.167 -0.0650  3.2921  0.5106
   93SAPS   H4S 9119   3.730   3.442   7.062 -1.6777 -1.2392  0.0046
   93SAPS   C25 9120   3.932   3.396   7.036  0.2179 -0.2195  0.5834
   93SAPS   H5R 9121   3.944   3.445   6.938  0.6010  0.4560  0.9612
   93SAPS   C26 9122   4.034   3.409   7.124  0.4656  0.2401  0.0496
   93SAPS   H6R 9123   4.129   3.452   7.088  0.6798 -0.4385 -0.2142
   93SAPS   C27 9124   4.030   3.378   7.275 -0.1642  0.3132 -0.3799
   93SAPS   H7R 9125   3.934   3.342   7.318  1.0512 -1.3996  1.0505
   93SAPS   H7S 9126   4.069   3.461   7.339  0.2767  0.2895 -0.6083
   93SAPS   C28 9127   4.124   3.261   7.300 -0.3964 -1.0485  0.5927
   93SAPS   H8R 9128   4.176   3.233   7.206  0.3926  0.5755  0.5040
   93SAPS   C29 9129   4.163   3.203   7.412  0.7308  0.1950  0.2167
   93SAPS   H9R 9130   4.231   3.117   7.401  1.1640  0.6021 -0.3046
   93SAPS  C210 9131   4.113   3.227   7.554  0.4405 -0.1963  0.2962
   93SAPS  H10R 9132   4.123   3.137   7.618  3.4710  0.8658  1.4738
   93SAPS  H10S 9133   4.002   3.232   7.556  0.3246  0.2906 -2.7226
   93SAPS  C211 9134   4.181   3.350   7.618  0.0368  0.5202 -0.2891
   93SAPS  H11R 9135   4.129   3.444   7.593 -2.2215 -0.9558 -1.4821
   93SAPS  C212 9136   4.273   3.345   7.708 -0.0961 -0.1153 -0.2683
   93SAPS  H12R 9137   4.302   3.436   7.763  0.3027 -1.6877  2.3188
   93SAPS  C213 9138   4.342   3.218   7.759 -0.0745  0.0311 -0.8029
   93SAPS  H13R 9139   4.452   3.232   7.761  0.1169 -1.3982 -0.6829
   93SAPS  H13S 9140   4.319   3.122   7.709  0.9961 -0.8256  0.2849
   93SAPS  C214 9141   4.292   3.197   7.906 -0.7888  0.5582 -0.1773
   93SAPS  H14R 9142   4.186   3.217   7.927 -1.2027 -0.1757 -1.4922
   93SAPS  C215 9143   4.363   3.152   8.014  0.2947  0.8586  0.4997
   93SAPS  H15R 9144   4.305   3.153   8.107  0.3014  1.7631  0.5062
   93SAPS  C216 9145   4.507   3.101   8.012  1.0190 -0.1551  0.5026
   93SAPS  H16R 9146   4.567   3.115   7.919  0.9661 -0.2539  0.4530
   93SAPS  H16S 9147   4.500   2.993   8.036  2.1493 -0.6574 -1.2170
   93SAPS  C217 9148   4.591   3.160   8.128  0.1441  0.0632 -0.2398
   93SAPS  H17R 9149   4.529   3.170   8.220  1.1171  0.4636  0.3961
   93SAPS  H17S 9150   4.625   3.263   8.105  0.4238 -0.0155 -0.1809
   93SAPS  C218 9151   4.708   3.073   8.158 -0.6364  0.0841  0.9573
   93SAPS  H18R 9152   4.757   3.053   8.060  2.7215 -3.4903  3.0793
   93SAPS  H18S 9153   4.682   2.970   8.191 -0.3231 -0.2409  0.2128
   93SAPS  C219 9154   4.807   3.120   8.261  0.3056  0.3791 -0.2236
   93SAPS  H19R 9155   4.898   3.056   8.256  0.2906  0.4693 -1.8902
   93SAPS  H19S 9156   4.770   3.097   8.364  3.6519 -2.2778  0.5916
   93SAPS  C220 9157   4.845   3.270   8.240 -0.3009 -0.1571  0.1731
   93SAPS  H20R 9158   4.760   3.330   8.279 -0.4177 -0.3393  0.1964
   93SAPS  H20S 9159   4.858   3.291   8.132  1.1173  2.2239  0.7081
   93SAPS  H20T 9160   4.932   3.307   8.299 -1.0175 -0.3528  1.3834
   93SAPS   C33 9161   3.394   2.862   7.147 -0.8059  0.0116  0.6870
   93SAPS   H3X 9162   3.302   2.810   7.114 -0.4162  0.3338 -1.0122
   93SAPS   H3Y 9163   3.417   2.940   7.071  3.0634  0.8841  2.4933
   93SAPS   C34 9164   3.359   2.945   7.271  0.1503 -0.6084 -0.6380
   93SAPS   H4X 9165   3.422   2.914   7.358  0.1001 -1.5374 -0.9176
   93SAPS   H4Y 9166   3.256   2.927   7.306 -0.1022  0.6758 -0.6805
   93SAPS   C35 9167   3.362   3.096   7.245 -0.1061 -0.1762 -0.8329
   93SAPS   H5X 9168   3.294   3.116   7.160  0.6243 -1.4735 -1.7754
   93SAPS   H5Y 9169   3.463   3.142   7.241  1.0611 -2.2843  1.2996
   93SAPS   C36 9170   3.297   3.187   7.358 -0.0145  0.1723 -0.9267
   93SAPS   H6X 9171   3.318   3.289   7.320 -1.1578  0.9573  0.4858
   93SAPS   H6Y 9172   3.365   3.185   7.446  0.8840  2.9331 -1.4725
   93SAPS   C37 9173   3.154   3.169   7.394  0.3280 -0.6041 -1.0766
   93SAPS   H7X 9174   3.139   3.070   7.442 -1.1087  0.6583  1.2630
   93SAPS   H7Y 9175   3.088   3.164   7.304  2.0963  3.6107 -2.8336
   93SAPS   C38 9176   3.094   3.277   7.479  0.5904  0.9324 -0.0525
   93SAPS   H8X 9177   2.985   3.287   7.465  0.5741  0.9042  0.0545
   93SAPS   H8Y 9178   3.138   3.376   7.454  0.7944  0.6541 -0.8107
   93SAPS   C39 9179   3.096   3.248   7.632 -0.0886  0.2836 -0.1899
   93SAPS   H9X 9180   3.201   3.253   7.667 -1.0501  1.8567  2.7855
   93SAPS   H9Y 9181   3.035   3.158   7.655  0.8409 -0.3194 -0.0505
   93SAPS  C310 9182   3.039   3.364   7.710  0.2786 -0.0144  0.5281
   93SAPS  H10X 9183   2.946   3.394   7.658  1.0530  2.5652  0.4802
   93SAPS  H10Y 9184   3.104   3.454   7.698  0.4381 -0.2497 -0.4232
   93SAPS  C311 9185   3.016   3.339   7.863  0.6672 -0.2061 -0.5849
   93SAPS  H11X 9186   3.112   3.324   7.917 -0.5194 -1.6852  1.2507
   93SAPS  H11Y 9187   2.954   3.248   7.877 -0.3592  0.8677  2.6874
   93SAPS  C312 9188   2.957   3.470   7.917  0.3566  0.3107 -0.1250
   93SAPS  H12X 9189   2.855   3.497   7.882  0.5220  2.0632  0.6355
   93SAPS  H12Y 9190   3.022   3.554   7.884  1.9974 -1.1630 -0.8173
   93SAPS  C313 9191   2.933   3.476   8.068  1.0475  0.3066  0.6212
   93SAPS  H13X 9192   2.861   3.395   8.094  0.5951  0.4411 -0.1695
   93SAPS  H13Y 9193   2.895   3.575   8.100  1.3731  0.3223  0.9620
   93SAPS  C314 9194   3.058   3.440   8.147  0.5493  0.2054  0.4697
   93SAPS  H14X 9195   3.138   3.499   8.098  0.4251  1.2001  1.4291
   93SAPS  H14Y 9196   3.084   3.333   8.129 -3.7498 -0.9400 -0.0398
   93SAPS  C315 9197   3.055   3.483   8.297 -0.4209  0.3343 -0.0753
   93SAPS  H15X 9198   2.990   3.415   8.355  1.1843 -1.5609 -0.3901
   93SAPS  H15Y 9199   3.015   3.587   8.293  0.9947  1.1072  2.7354
   93SAPS  C316 9200   3.193   3.475   8.376 -0.0610 -0.1537 -0.7614
   93SAPS  H16X 9201   3.264   3.551   8.336  1.7525 -1.1580  0.4067
   93SAPS  H16Y 9202   3.243   3.379   8.351  0.4476 -0.0276 -0.2510
   93SAPS  C317 9203   3.181   3.491   8.528  0.5893  0.0854  0.3490
   93SAPS  H17X 9204   3.157   3.393   8.575  2.5461 -0.5160  0.1848
   93SAPS  H17Y 9205   3.095   3.559   8.548  0.6240  0.2774 -0.1371
   93SAPS  C318 9206   3.305   3.546   8.601 -0.2974 -0.0395 -0.0484
   93SAPS  H18X 9207   3.314   3.656   8.585  0.7627 -0.3765 -2.2052
   93SAPS  H18Y 9208   3.398   3.498   8.564  0.6829  1.0565  0.9010
   93SAPS  H18Z 9209   3.301   3.535   8.711 -1.3649 -0.1753 -0.0922
   94SAPS     N 9210   4.089   6.482   5.704 -0.2276  0.3532 -0.3542
   94SAPS   HN1 9211   3.992   6.464   5.673  1.3655 -2.2168 -4.8370
   94SAPS   HN2 9212   4.091   6.568   5.763  0.1371 -0.4587  0.8521
   94SAPS   HN3 9213   4.147   6.503   5.620  1.3672 -1.2557  0.2808
   94SAPS   C12 9214   4.137   6.362   5.775  0.1369 -0.9437  0.4523
   94SAPS  H12A 9215   4.137   6.277   5.707  0.9842 -1.0290  0.5488
   94SAPS   C13 9216   4.284   6.377   5.825 -0.6254  0.1592 -0.1132
   94SAPS  O13A 9217   4.345   6.491   5.811 -0.2134  0.1755 -0.0817
   94SAPS  O13B 9218   4.351   6.278   5.863 -0.8112  0.2706 -0.0082
   94SAPS   C11 9219   4.049   6.318   5.891  0.3501 -0.2417  0.5017
   94SAPS  H11A 9220   4.035   6.403   5.961 -0.6157 -0.5184  0.6561
   94SAPS  H11B 9221   4.092   6.239   5.957 -0.4091 -1.7294 -0.7270
   94SAPS     P 9222   3.862   6.137   5.882 -0.2841  0.2993 -0.0774
   94SAPS   O13 9223   3.785   6.091   5.767 -0.9563 -0.0134  0.7401
   94SAPS   O14 9224   3.961   6.043   5.941 -0.3932  0.4853 -0.2538
   94SAPS   O12 9225   3.924   6.276   5.845  0.0773  0.0271  0.6427
   94SAPS   O11 9226   3.752   6.174   5.989 -0.2794 -0.8716 -0.2938
   94SAPS    C1 9227   3.656   6.276   5.969  0.5736  0.4089 -0.2662
   94SAPS    HA 9228   3.693   6.380   5.970 -1.5145  1.2184  2.2933
   94SAPS    HB 9229   3.590   6.260   5.880 -0.4330  1.5982  0.2373
   94SAPS    C2 9230   3.566   6.276   6.097 -0.0848 -0.0840  0.9588
   94SAPS    HS 9231   3.484   6.350   6.086 -0.6128 -0.5910  1.4159
   94SAPS   O21 9232   3.655   6.309   6.206  0.6233  0.4111 -0.2651
   94SAPS   C21 9233   3.594   6.347   6.314 -0.1217 -0.3724 -0.5415
   94SAPS   O22 9234   3.480   6.398   6.319  0.1046  0.3959  0.5937
   94SAPS   C22 9235   3.688   6.328   6.432  0.5179 -0.0142 -0.2285
   94SAPS   H2R 9236   3.704   6.218   6.445  2.3755  0.2056 -0.3977
   94SAPS   H2S 9237   3.789   6.364   6.406  0.0177  2.9282  1.4855
   94SAPS    C3 9238   3.491   6.134   6.102 -0.5322 -0.1325 -0.2837
   94SAPS    HX 9239   3.573   6.060   6.091 -1.3871 -1.4697  1.6619
   94SAPS    HY 9240   3.429   6.118   6.011  0.1542  1.9061 -1.1648
   94SAPS   O31 9241   3.431   6.105   6.233 -0.2495 -0.3359 -0.2513
   94SAPS   C31 9242   3.302   6.149   6.241 -0.4480 -0.5412 -0.2163
   94SAPS   O32 9243   3.250   6.208   6.151  0.0621  0.4145  0.0538
   94SAPS   C32 9244   3.252   6.116   6.378 -0.3131 -0.1586  0.4908
   94SAPS   H2X 9245   3.318   6.037   6.417  0.1255 -0.5268 -0.9323
   94SAPS   H2Y 9246   3.151   6.073   6.358 -0.0072 -0.1180 -1.3737
   94SAPS   C23 9247   3.654   6.406   6.562 -0.0931  0.3119 -0.1975
   94SAPS   H3R 9248   3.549   6.380   6.584  0.2287 -0.4235  0.5183
   94SAPS   H3S 9249   3.645   6.514   6.537  0.0123  0.2701 -0.4192
   94SAPS   C24 9250   3.764   6.397   6.673 -0.8527 -0.3986  0.0266
   94SAPS   H4R 9251   3.767   6.492   6.732 -0.2416  2.3398 -4.0108
   94SAPS   H4S 9252   3.867   6.380   6.637  0.4256  1.1210  2.6115
   94SAPS   C25 9253   3.724   6.279   6.758  0.5426 -0.3295 -0.3689
   94SAPS   H5R 9254   3.659   6.206   6.706  2.6018 -2.6919  0.2031
   94SAPS   C26 9255   3.748   6.247   6.884  0.2241 -0.0628 -0.3706
   94SAPS   H6R 9256   3.721   6.150   6.928  0.2553  0.7061  1.4491
   94SAPS   C27 9257   3.836   6.322   6.975 -0.8048  0.2439  0.1735
   94SAPS   H7R 9258   3.893   6.398   6.917  0.2517 -0.3706  0.3797
   94SAPS   H7S 9259   3.909   6.245   7.006  0.0417  1.5465  1.5396
   94SAPS   C28 9260   3.766   6.380   7.090  0.2857 -0.5325 -0.2997
   94SAPS   H8R 9261   3.752   6.310   7.173 -1.6327 -0.1530 -0.2656
   94SAPS   C29 9262   3.736   6.510   7.108  1.1377 -0.5624  0.7345
   94SAPS   H9R 9263   3.691   6.537   7.205  0.4071  1.2641 -0.0676
   94SAPS  C210 9264   3.760   6.634   7.017  0.0545  0.1825  0.4553
   94SAPS  H10R 9265   3.720   6.607   6.917  2.3855  0.4617 -0.6054
   94SAPS  H10S 9266   3.870   6.638   7.006 -0.0383  1.6460 -0.1261
   94SAPS  C211 9267   3.702   6.766   7.054 -0.6349 -0.1414 -0.2928
   94SAPS  H11R 9268   3.661   6.811   6.962  1.1310 -0.5691 -1.3262
   94SAPS  C212 9269   3.712   6.839   7.170  0.5258 -0.3379 -0.2901
   94SAPS  H12R 9270   3.666   6.939   7.168  0.4040 -0.2467  2.5225
   94SAPS  C213 9271   3.782   6.799   7.292 -0.1034 -0.4098  0.6261
   94SAPS  H13R 9272   3.850   6.714   7.268  1.0038  0.0802  1.8961
   94SAPS  H13S 9273   3.700   6.773   7.362 -1.6750  1.7213 -0.3153
   94SAPS  C214 9274   3.846   6.926   7.347 -0.8048  0.2706 -0.1606
   94SAPS  H14R 9275   3.887   7.005   7.281 -1.0190 -0.2721 -0.9519
   94SAPS  C215 9276   3.871   6.931   7.481  0.2961  0.4451 -0.3607
   94SAPS  H15R 9277   3.893   7.029   7.525 -0.5352  1.5425 -2.2644
   94SAPS  C216 9278   3.849   6.827   7.586  0.2088 -0.0108  0.0979
   94SAPS  H16R 9279   3.814   6.731   7.542 -1.5503  0.3461  0.6537
   94SAPS  H16S 9280   3.774   6.851   7.664  0.7195 -0.8414  0.8596
   94SAPS  C217 9281   3.980   6.788   7.661 -0.1909  0.2300 -0.4510
   94SAPS  H17R 9282   4.035   6.877   7.697 -1.0526  0.1589  1.1404
   94SAPS  H17S 9283   4.040   6.726   7.591 -1.0608 -2.2015  0.8292
   94SAPS  C218 9284   3.972   6.702   7.787  0.2163 -0.5861  0.6614
   94SAPS  H18R 9285   4.073   6.701   7.831 -0.6778  1.5485  2.9933
   94SAPS  H18S 9286   3.933   6.599   7.767 -2.4739  0.3189  0.7555
   94SAPS  C219 9287   3.893   6.771   7.896 -0.0763 -0.9490  0.3476
   94SAPS  H19R 9288   3.787   6.781   7.863  0.7814  1.9973 -2.0903
   94SAPS  H19S 9289   3.923   6.878   7.896  0.3517 -1.0548 -0.5044
   94SAPS  C220 9290   3.918   6.699   8.031 -0.6876  0.0067  0.1216
   94SAPS  H20R 9291   4.025   6.710   8.061 -1.0862 -0.9197  2.0788
   94SAPS  H20S 9292   3.903   6.589   8.021 -0.9123  0.0705 -0.2626
   94SAPS  H20T 9293   3.853   6.727   8.116 -1.7700 -0.9215 -0.3701
   94SAPS   C33 9294   3.243   6.235   6.479  0.2446  1.1501  0.5181
   94SAPS   H3X 9295   3.143   6.282   6.461 -1.5570 -1.8524  1.9133
   94SAPS   H3Y 9296   3.325   6.310   6.473 -0.4300  1.8687 -0.0224
   94SAPS   C34 9297   3.231   6.177   6.621 -0.7180  0.3720 -0.5378
   94SAPS   H4X 9298   3.172   6.083   6.627  0.5620 -0.4109  0.4797
   94SAPS   H4Y 9299   3.184   6.260   6.678  0.8112 -0.2858  1.8629
   94SAPS   C35 9300   3.366   6.144   6.691  0.4983 -0.1781  0.1295
   94SAPS   H5X 9301   3.400   6.245   6.723 -0.4251  0.0129  0.5475
   94SAPS   H5Y 9302   3.431   6.121   6.604 -0.3124  1.1180 -0.8382
   94SAPS   C36 9303   3.364   6.050   6.810 -0.4888  0.2468  0.3703
   94SAPS   H6X 9304   3.461   6.003   6.836 -1.6074 -1.7181  1.1864
   94SAPS   H6Y 9305   3.307   5.958   6.785  0.3655 -1.2675  3.5613
   94SAPS   C37 9306   3.307   6.105   6.938  0.5460 -0.0327  0.3793
   94SAPS   H7X 9307   3.198   6.125   6.928  0.3925  0.4155  2.3867
   94SAPS   H7Y 9308   3.354   6.203   6.961 -0.0947  0.3639  0.0277
   94SAPS   C38 9309   3.344   6.010   7.051 -0.4157 -0.4523  0.3960
   94SAPS   H8X 9310   3.451   5.985   7.034  0.1442  1.2839  1.1229
   94SAPS   H8Y 9311   3.271   5.926   7.046 -0.5300 -0.3092 -0.5587
   94SAPS   C39 9312   3.328   6.060   7.196 -0.2830 -0.2412 -0.3561
   94SAPS   H9X 9313   3.221   6.075   7.224 -0.6263 -0.1488 -1.6518
   94SAPS   H9Y 9314   3.381   6.157   7.201 -1.9247  0.6328  2.8411
   94SAPS  C310 9315   3.380   5.956   7.303 -0.4914 -0.6591 -0.6253
   94SAPS  H10X 9316   3.479   5.920   7.268  1.2061  1.4571  1.6656
   94SAPS  H10Y 9317   3.315   5.866   7.311 -1.4322  0.0050 -0.6028
   94SAPS  C311 9318   3.402   6.009   7.447  0.2990 -0.9356  0.4188
   94SAPS  H11X 9319   3.448   6.110   7.441 -1.4748  0.0004  1.6303
   94SAPS  H11Y 9320   3.477   5.952   7.506  2.0149  0.4777 -0.2887
   94SAPS  C312 9321   3.272   6.017   7.532 -1.5591 -0.2634  0.3955
   94SAPS  H12X 9322   3.246   5.914   7.562 -1.3095  0.2293  2.5079
   94SAPS  H12Y 9323   3.187   6.049   7.467 -1.2378  3.3960  1.5440
   94SAPS  C313 9324   3.288   6.102   7.658 -0.0080 -0.2651  0.4065
   94SAPS  H13X 9325   3.200   6.073   7.720  0.9937 -1.7431  1.1909
   94SAPS  H13Y 9326   3.289   6.210   7.633 -0.9791 -0.1357  0.8897
   94SAPS  C314 9327   3.401   6.060   7.755  0.1475 -0.5926  0.2597
   94SAPS  H14X 9328   3.498   6.096   7.714 -1.1016  1.1455 -1.3690
   94SAPS  H14Y 9329   3.405   5.949   7.758  0.5765 -0.5692  0.7944
   94SAPS  C315 9330   3.380   6.114   7.894  0.8058 -0.8839 -0.2712
   94SAPS  H15X 9331   3.426   6.043   7.966  2.0980 -0.8552 -1.0336
   94SAPS  H15Y 9332   3.272   6.118   7.919  0.7975  0.5043 -0.4951
   94SAPS  C316 9333   3.455   6.249   7.920  0.4459  0.1202 -0.0522
   94SAPS  H16X 9334   3.385   6.327   7.883  0.2400 -0.4127 -0.8028
   94SAPS  H16Y 9335   3.547   6.257   7.857 -0.1945  0.5952 -0.9522
   94SAPS  C317 9336   3.485   6.266   8.067 -0.7506 -0.7210 -0.7085
   94SAPS  H17X 9337   3.558   6.194   8.110 -0.1506 -1.1703 -2.4130
   94SAPS  H17Y 9338   3.393   6.273   8.129 -1.0116 -0.1720 -1.1494
   94SAPS  C318 9339   3.558   6.406   8.084  0.5432  0.4658 -0.5011
   94SAPS  H18X 9340   3.528   6.445   8.184 -1.2745  2.4238 -1.7371
   94SAPS  H18Y 9341   3.524   6.480   8.008  3.1917  2.6301  0.2868
   94SAPS  H18Z 9342   3.668   6.398   8.075  0.7751 -0.6799  2.2775
   95SAPS     N 9343   5.841   3.269   6.282 -0.1653 -0.2996  0.1698
   95SAPS   HN1 9344   5.761   3.203   6.282 -1.3616  1.0771 -1.6834
   95SAPS   HN2 9345   5.902   3.247   6.364  0.2236 -0.2062 -0.0890
   95SAPS   HN3 9346   5.799   3.364   6.284 -0.3006 -0.3577  0.0719
   95SAPS   C12 9347   5.917   3.235   6.154  0.7925  0.2112  0.3802
   95SAPS  H12A 9348   5.860   3.268   6.067  0.9632  1.2733  0.6574
   95SAPS   C13 9349   6.047   3.313   6.139 -0.1485 -0.3172  0.0717
   95SAPS  O13A 9350   6.079   3.402   6.224 -0.1234 -0.2377 -0.1758
   95SAPS  O13B 9351   6.114   3.292   6.039 -0.0188  0.2179 -0.7428
   95SAPS   C11 9352   5.934   3.082   6.157 -0.4293  0.3209 -0.0005
   95SAPS  H11A 9353   5.976   3.044   6.061 -2.9695  0.3661 -1.2085
   95SAPS  H11B 9354   5.831   3.042   6.166 -0.1557 -0.3507  0.1889
   95SAPS     P 9355   5.983   2.903   6.346  0.6226  0.2169  0.1342
   95SAPS   O13 9356   5.840   2.904   6.379  0.5684 -0.4832  0.1934
   95SAPS   O14 9357   6.028   2.799   6.254 -0.8140  1.1095  0.0331
   95SAPS   O12 9358   6.010   3.041   6.268 -0.0744 -0.7561 -0.1978
   95SAPS   O11 9359   6.074   2.895   6.476  0.3050  0.2630 -0.1315
   95SAPS    C1 9360   6.068   2.767   6.546 -0.2064  0.7401 -0.1453
   95SAPS    HA 9361   6.016   2.684   6.492 -0.6348 -0.2659  1.7324
   95SAPS    HB 9362   6.174   2.736   6.559  0.2659  0.9384 -2.8463
   95SAPS    C2 9363   5.989   2.788   6.677  0.2189 -0.5682  0.5319
   95SAPS    HS 9364   5.904   2.857   6.660  0.5525 -0.0941  0.7556
   95SAPS   O21 9365   6.077   2.822   6.786 -0.3532  0.1415 -0.0091
   95SAPS   C21 9366   6.046   2.935   6.849  0.4628  0.3210 -0.3295
   95SAPS   O22 9367   5.965   3.022   6.820  0.8071  0.1642 -0.5336
   95SAPS   C22 9368   6.120   2.933   6.980  0.0257 -0.0348  0.0281
   95SAPS   H2R 9369   6.100   2.839   7.035 -0.0552 -0.0617 -0.0459
   95SAPS   H2S 9370   6.228   2.943   6.955 -0.2731  0.5206 -1.1476
   95SAPS    C3 9371   5.921   2.649   6.707  0.4911  0.3108  0.2959
   95SAPS    HX 9372   6.003   2.575   6.690  1.1722  1.1360 -0.0980
   95SAPS    HY 9373   5.841   2.630   6.633  0.5996 -2.8406  0.8399
   95SAPS   O31 9374   5.890   2.635   6.849  0.3242  0.8679  0.0175
   95SAPS   C31 9375   5.754   2.633   6.876  0.0119 -0.1061  0.1083
   95SAPS   O32 9376   5.669   2.645   6.790 -0.3479  0.1063 -0.2493
   95SAPS   C32 9377   5.739   2.616   7.026  0.3105 -0.6105  0.0009
   95SAPS   H2X 9378   5.827   2.656   7.080  0.0971  0.3557 -0.3413
   95SAPS   H2Y 9379   5.727   2.508   7.050 -1.7367  0.0636  2.5059
   95SAPS   C23 9380   6.089   3.045   7.080 -0.8386 -0.1391  0.2992
   95SAPS   H3R 9381   6.084   3.145   7.032 -1.2459  0.7557  2.0982
   95SAPS   H3S 9382   6.154   3.055   7.169 -1.1343  1.1212  0.3866
   95SAPS   C24 9383   5.953   3.010   7.148  0.1659  0.2047  0.2593
   95SAPS   H4R 9384   5.890   2.988   7.059  1.4493 -0.8449 -0.4184
   95SAPS   H4S 9385   5.911   3.104   7.190  1.1416  0.0506  1.6686
   95SAPS   C25 9386   5.960   2.901   7.246 -0.2908  0.5920 -0.8034
   95SAPS   H5R 9387   5.920   2.806   7.208  1.3509 -0.4586 -0.0211
   95SAPS   C26 9388   5.992   2.909   7.377 -0.0185  0.3763  0.1590
   95SAPS   H6R 9389   5.992   2.813   7.431 -1.2644  0.0333 -0.4034
   95SAPS   C27 9390   6.043   3.033   7.442 -0.3789 -0.0391  0.1625
   95SAPS   H7R 9391   6.082   3.100   7.362 -0.6292  1.2147  1.0501
   95SAPS   H7S 9392   6.134   2.999   7.496 -0.0768 -0.8738 -0.8478
   95SAPS   C28 9393   5.956   3.102   7.541  0.8757 -0.4530  0.7099
   95SAPS   H8R 9394   5.926   3.202   7.505 -1.1317 -2.0498 -2.5745
   95SAPS   C29 9395   5.920   3.062   7.664  0.3891  1.0113  1.1567
   95SAPS   H9R 9396   5.837   3.116   7.711 -1.1597 -0.3606  0.0977
   95SAPS  C210 9397   5.957   2.926   7.721  0.2798 -0.4443 -0.0546
   95SAPS  H10R 9398   6.054   2.894   7.676  1.4681  1.7882  0.7580
   95SAPS  H10S 9399   5.882   2.848   7.699 -1.5717  1.8064 -2.3066
   95SAPS  C211 9400   5.966   2.927   7.871 -1.2814 -0.0629  0.2786
   95SAPS  H11R 9401   5.871   2.933   7.927 -1.4800 -2.0152  0.2389
   95SAPS  C212 9402   6.075   2.922   7.949  0.9593  0.3920 -0.1853
   95SAPS  H12R 9403   6.065   2.900   8.056 -0.6090  1.4670 -0.0760
   95SAPS  C213 9404   6.218   2.911   7.892 -0.0825  0.2627  0.4130
   95SAPS  H13R 9405   6.266   3.009   7.908 -0.6813  0.8142 -1.0553
   95SAPS  H13S 9406   6.233   2.903   7.783 -0.7706  1.7642  0.1817
   95SAPS  C214 9407   6.296   2.794   7.954 -0.2059  0.0045  0.1048
   95SAPS  H14R 9408   6.243   2.701   7.926 -0.3311  0.7242 -2.2520
   95SAPS  C215 9409   6.399   2.796   8.040  0.3473  0.2783 -0.1105
   95SAPS  H15R 9410   6.431   2.696   8.075 -2.0847 -0.2497  0.7840
   95SAPS  C216 9411   6.474   2.910   8.091 -0.5244  0.1149  0.6812
   95SAPS  H16R 9412   6.420   2.959   8.175  2.3999  1.6579  1.8384
   95SAPS  H16S 9413   6.487   2.987   8.013 -1.0325  0.7454  1.2003
   95SAPS  C217 9414   6.607   2.866   8.155  0.4841  0.3178 -0.6255
   95SAPS  H17R 9415   6.671   2.816   8.080  0.2340 -2.0087  0.6156
   95SAPS  H17S 9416   6.585   2.782   8.225 -0.9808 -0.1625 -1.5974
   95SAPS  C218 9417   6.666   2.969   8.249  0.4770  0.3791  0.2809
   95SAPS  H18R 9418   6.617   2.964   8.348 -0.1580 -1.1168 -0.0896
   95SAPS  H18S 9419   6.659   3.065   8.194  0.9407 -0.3223 -1.0663
   95SAPS  C219 9420   6.818   2.951   8.280  0.0037  0.0698  0.3451
   95SAPS  H19R 9421   6.836   2.850   8.322 -1.4983 -0.7201 -0.7855
   95SAPS  H19S 9422   6.840   3.023   8.362 -3.0812  1.4771  0.1152
   95SAPS  C220 9423   6.913   2.953   8.160  0.2824 -0.1039 -0.2877
   95SAPS  H20R 9424   7.013   2.931   8.203 -1.2112 -1.4568  2.8616
   95SAPS  H20S 9425   6.913   3.048   8.103  0.7737  0.2477  0.2868
   95SAPS  H20T 9426   6.882   2.877   8.086  0.6128 -0.2415 -0.2847
   95SAPS   C33 9427   5.612   2.691   7.074 -0.2571  0.1544  0.4075
   95SAPS   H3X 9428   5.528   2.661   7.009  1.3814 -2.4068 -0.7023
   95SAPS   H3Y 9429   5.633   2.800   7.063  1.9281 -0.3441 -1.0237
   95SAPS   C34 9430   5.549   2.648   7.212 -0.0343 -0.2894  0.8249
   95SAPS   H4X 9431   5.556   2.537   7.207 -0.1364 -0.2397 -1.2803
   95SAPS   H4Y 9432   5.440   2.664   7.208  0.1656  1.5520  1.7917
   95SAPS   C35 9433   5.622   2.688   7.335 -0.0670 -0.0947  0.4799
   95SAPS   H5X 9434   5.636   2.799   7.338 -1.5588  0.1066  1.4457
   95SAPS   H5Y 9435   5.721   2.640   7.329 -0.4952 -1.1465  1.5462
   95SAPS   C36 9436   5.564   2.642   7.475 -0.8215 -0.3060 -0.4801
   95SAPS   H6X 9437   5.592   2.539   7.507  1.4131  0.9184  1.8808
   95SAPS   H6Y 9438   5.453   2.644   7.473 -0.9107 -0.5447  1.6725
   95SAPS   C37 9439   5.628   2.722   7.591  0.1797 -0.2007  1.4716
   95SAPS   H7X 9440   5.611   2.832   7.594  3.3361  0.4221  0.8641
   95SAPS   H7Y 9441   5.739   2.721   7.578  0.0563 -3.4007 -0.0763
   95SAPS   C38 9442   5.596   2.650   7.727  0.4359 -1.2342 -0.1585
   95SAPS   H8X 9443   5.653   2.555   7.731  0.6282 -1.0677  2.3279
   95SAPS   H8Y 9444   5.486   2.641   7.722  0.2343  0.8106 -0.2251
   95SAPS   C39 9445   5.605   2.743   7.852  0.2029  0.4172 -0.2742
   95SAPS   H9X 9446   5.537   2.830   7.842 -0.7224  0.1112  2.5288
   95SAPS   H9Y 9447   5.713   2.767   7.848  0.5635 -1.2892 -2.0816
   95SAPS  C310 9448   5.562   2.662   7.978 -0.3388  0.4883 -0.0274
   95SAPS  H10X 9449   5.611   2.562   7.978  0.9857  1.1066  1.1964
   95SAPS  H10Y 9450   5.451   2.659   7.981 -0.3170 -2.1948  1.4847
   95SAPS  C311 9451   5.604   2.726   8.114  0.3428  1.2447 -0.4215
   95SAPS  H11X 9452   5.555   2.825   8.122  0.3380  1.3277 -1.4104
   95SAPS  H11Y 9453   5.715   2.736   8.114  0.5377 -0.4113  0.8265
   95SAPS  C312 9454   5.560   2.650   8.240 -0.0711  0.1256  0.2288
   95SAPS  H12X 9455   5.615   2.683   8.330  1.0416  1.5648 -0.9189
   95SAPS  H12Y 9456   5.582   2.542   8.229  0.8551  0.2135  1.0781
   95SAPS  C313 9457   5.408   2.648   8.266  0.0457 -0.2935  0.5060
   95SAPS  H13X 9458   5.357   2.591   8.185 -1.8831  3.5672 -1.2641
   95SAPS  H13Y 9459   5.373   2.753   8.257  2.5081  0.7200  1.8106
   95SAPS  C314 9460   5.391   2.597   8.409  0.4212  0.4732 -0.3250
   95SAPS  H14X 9461   5.448   2.651   8.488 -0.2013  0.2646  0.2858
   95SAPS  H14Y 9462   5.432   2.494   8.402 -0.2222  0.1084  0.8762
   95SAPS  C315 9463   5.245   2.583   8.454  0.3836 -0.2954  0.2437
   95SAPS  H15X 9464   5.238   2.523   8.547  2.1992 -1.6232 -0.4127
   95SAPS  H15Y 9465   5.204   2.521   8.371 -0.0757  1.3482 -0.7948
   95SAPS  C316 9466   5.162   2.711   8.460 -0.0333 -0.1920 -0.6330
   95SAPS  H16X 9467   5.060   2.695   8.418  0.0475 -0.5884 -0.6789
   95SAPS  H16Y 9468   5.202   2.790   8.393  1.5721  0.5546  1.1263
   95SAPS  C317 9469   5.149   2.761   8.606  0.3739 -0.2157  0.6957
   95SAPS  H17X 9470   5.250   2.771   8.651  0.1920 -0.1449  1.0956
   95SAPS  H17Y 9471   5.093   2.683   8.662  1.1568 -1.1273  0.2276
   95SAPS  C318 9472   5.076   2.899   8.618  0.1020 -0.4407 -0.2329
   95SAPS  H18X 9473   5.122   2.976   8.552  2.0204 -2.7611 -1.7942
   95SAPS  H18Y 9474   5.094   2.935   8.722  0.3371 -2.9145  0.6575
   95SAPS  H18Z 9475   4.967   2.891   8.602  0.2382  0.2628 -1.5988
   96SAPS     N 9476   0.830   4.379   6.025 -0.0740  0.4072 -0.5177
   96SAPS   HN1 9477   0.787   4.331   5.943 -1.2156 -0.6543  0.6719
   96SAPS   HN2 9478   0.931   4.403   6.010 -0.0889  1.5208  0.9526
   96SAPS   HN3 9479   0.832   4.309   6.101  2.0911  0.1736 -0.7179
   96SAPS   C12 9480   0.749   4.497   6.058 -0.0872 -0.4864  0.2184
   96SAPS  H12A 9481   0.815   4.565   6.109  1.0437 -1.8970  0.7203
   96SAPS   C13 9482   0.680   4.566   5.930 -0.1241  0.3344  0.3737
   96SAPS  O13A 9483   0.710   4.513   5.814  0.1489 -0.1259  0.5933
   96SAPS  O13B 9484   0.607   4.666   5.942  0.4319 -0.3897  0.3528
   96SAPS   C11 9485   0.641   4.444   6.159 -0.1242 -0.2413 -0.5141
   96SAPS  H11A 9486   0.554   4.403   6.104  1.2424 -0.8826 -2.2606
   96SAPS  H11B 9487   0.607   4.536   6.213  1.9379  0.1496  0.2092
   96SAPS     P 9488   0.608   4.237   6.306  0.3357  0.1017 -0.1865
   96SAPS   O13 9489   0.536   4.175   6.193  0.5166 -0.9238  0.5797
   96SAPS   O14 9490   0.671   4.150   6.401 -0.2442 -0.0725 -0.6793
   96SAPS   O12 9491   0.703   4.346   6.250 -0.9303 -0.2187  0.3331
   96SAPS   O11 9492   0.506   4.322   6.397  0.2882 -0.2414 -0.4373
   96SAPS    C1 9493   0.550   4.401   6.510  1.0432  0.1204 -0.6131
   96SAPS    HA 9494   0.656   4.436   6.505  1.9403 -1.9667  1.5075
   96SAPS    HB 9495   0.500   4.499   6.520  1.3249  0.1349  0.9405
   96SAPS    C2 9496   0.531   4.314   6.637  0.2817 -0.3840 -0.6265
   96SAPS    HS 9497   0.611   4.238   6.647  1.4417  0.9658  0.7915
   96SAPS   O21 9498   0.395   4.265   6.639 -0.2076  0.1946 -0.0815
   96SAPS   C21 9499   0.386   4.155   6.714  0.4985 -0.3069  0.2945
   96SAPS   O22 9500   0.484   4.099   6.755 -0.0302 -0.2282 -0.0985
   96SAPS   C22 9501   0.239   4.130   6.742  0.4655 -0.7701  0.2518
   96SAPS   H2R 9502   0.190   4.218   6.787 -0.1635 -1.5121  1.0702
   96SAPS   H2S 9503   0.176   4.119   6.652  1.7577  1.0721 -0.9390
   96SAPS    C3 9504   0.553   4.411   6.761  0.4543 -0.3089 -0.4215
   96SAPS    HX 9505   0.482   4.496   6.755  0.2175 -0.4679  0.1418
   96SAPS    HY 9506   0.654   4.459   6.760  0.3509 -0.0499  0.6309
   96SAPS   O31 9507   0.526   4.349   6.888  0.5502 -0.1737  0.0399
   96SAPS   C31 9508   0.627   4.277   6.940 -0.7747 -0.3715 -0.3248
   96SAPS   O32 9509   0.738   4.263   6.881  0.3256  0.2403  0.1642
   96SAPS   C32 9510   0.595   4.230   7.083 -0.3512  0.3425  0.3704
   96SAPS   H2X 9511   0.517   4.152   7.067  0.4055 -0.2354 -0.6433
   96SAPS   H2Y 9512   0.557   4.314   7.145 -0.0292  0.1761  0.7976
   96SAPS   C23 9513   0.222   4.007   6.833  0.1028  0.5402  0.3065
   96SAPS   H3R 9514   0.285   4.022   6.923 -0.7713 -0.7182  1.1720
   96SAPS   H3S 9515   0.255   3.915   6.779 -0.0481  1.7674 -1.9704
   96SAPS   C24 9516   0.074   3.983   6.875 -0.1295  0.4437  0.1066
   96SAPS   H4R 9517  -0.002   3.988   6.794  1.3499 -1.5668 -1.4945
   96SAPS   H4S 9518   0.041   4.056   6.952 -0.2619 -0.3118  0.7802
   96SAPS   C25 9519   0.046   3.842   6.928  0.0954 -0.1357 -0.3963
   96SAPS   H5R 9520  -0.002   3.776   6.854  1.7370  0.7652 -2.3817
   96SAPS   C26 9521   0.075   3.797   7.055 -0.0029  0.2808 -0.3622
   96SAPS   H6R 9522   0.044   3.693   7.073  0.2690  0.0727 -1.0597
   96SAPS   C27 9523   0.145   3.875   7.169  0.0003 -0.5141  0.1043
   96SAPS   H7R 9524   0.080   3.864   7.259  0.9386  0.4154  0.9266
   96SAPS   H7S 9525   0.164   3.981   7.144  3.3007 -1.8470 -4.1266
   96SAPS   C28 9526   0.276   3.817   7.193 -0.2987 -0.1091  0.2186
   96SAPS   H8R 9527   0.331   3.778   7.106 -0.7888 -0.6527  0.1484
   96SAPS   C29 9528   0.339   3.806   7.311 -0.2945 -0.0397 -0.0178
   96SAPS   H9R 9529   0.433   3.750   7.320 -1.3473 -1.7997  0.5099
   96SAPS  C210 9530   0.284   3.840   7.448  0.0840 -0.1069 -0.5555
   96SAPS  H10R 9531   0.195   3.774   7.458  1.2040 -1.6565 -0.4336
   96SAPS  H10S 9532   0.253   3.947   7.452  2.0007  0.4774  3.3111
   96SAPS  C211 9533   0.371   3.810   7.568 -0.0526 -0.0012  0.1675
   96SAPS  H11R 9534   0.475   3.787   7.541 -0.7035 -1.0652 -1.6031
   96SAPS  C212 9535   0.329   3.823   7.699  0.1951  0.5222  0.1348
   96SAPS  H12R 9536   0.397   3.785   7.777 -0.9356  0.7394  1.2413
   96SAPS  C213 9537   0.197   3.856   7.755  0.5155  0.0222 -0.0761
   96SAPS  H13R 9538   0.153   3.760   7.788 -0.2513  1.4041  3.2644
   96SAPS  H13S 9539   0.125   3.905   7.686  1.4436  1.4953 -0.0634
   96SAPS  C214 9540   0.221   3.948   7.873  0.0518  0.2396  0.3103
   96SAPS  H14R 9541   0.222   4.056   7.850 -0.9913  0.7579  2.3885
   96SAPS  C215 9542   0.218   3.911   8.003 -0.3996 -0.4679 -0.7575
   96SAPS  H15R 9543   0.235   3.992   8.076  0.3534  1.0817 -2.5736
   96SAPS  C216 9544   0.200   3.770   8.061  0.0478 -0.5452 -0.3938
   96SAPS  H16R 9545   0.148   3.704   7.989 -0.3390 -1.7258  0.9247
   96SAPS  H16S 9546   0.133   3.776   8.149  2.0306 -1.8061  1.3002
   96SAPS  C217 9547   0.335   3.703   8.099 -0.5291 -0.5557 -0.4685
   96SAPS  H17R 9548   0.377   3.684   7.998 -0.7607 -0.4740 -0.5820
   96SAPS  H17S 9549   0.312   3.611   8.156 -0.5625 -0.5626 -0.4938
   96SAPS  C218 9550   0.436   3.789   8.173  0.2879  0.6843  0.1655
   96SAPS  H18R 9551   0.390   3.807   8.272  1.0835 -0.8102  0.8517
   96SAPS  H18S 9552   0.458   3.880   8.114  0.1370  0.3845 -0.3706
   96SAPS  C219 9553   0.578   3.730   8.181  0.2166  0.0924  1.1414
   96SAPS  H19R 9554   0.624   3.719   8.080 -0.4733 -2.1203  1.0146
   96SAPS  H19S 9555   0.570   3.623   8.210 -1.4244 -0.3770 -0.7895
   96SAPS  C220 9556   0.675   3.789   8.279 -0.5683 -0.4406  1.1528
   96SAPS  H20R 9557   0.712   3.888   8.244  0.1645 -0.8826  0.6622
   96SAPS  H20S 9558   0.764   3.723   8.290  0.8303  1.2040  0.2520
   96SAPS  H20T 9559   0.626   3.801   8.377  0.1225 -1.6588  1.6687
   96SAPS   C33 9560   0.706   4.159   7.162 -0.7259  0.0106 -0.0988
   96SAPS   H3X 9561   0.781   4.228   7.205  0.2195 -0.6298 -0.6846
   96SAPS   H3Y 9562   0.764   4.091   7.096 -1.2087 -1.5963  1.0650
   96SAPS   C34 9563   0.649   4.068   7.267 -0.4889  0.4694  0.4824
   96SAPS   H4X 9564   0.576   3.997   7.222 -0.3720  0.4482  0.3280
   96SAPS   H4Y 9565   0.596   4.127   7.345  1.8218 -0.9829  3.3466
   96SAPS   C35 9566   0.774   4.009   7.332 -0.3674 -0.7477 -0.1930
   96SAPS   H5X 9567   0.837   4.081   7.388  0.1354  0.0554 -1.7388
   96SAPS   H5Y 9568   0.830   3.968   7.246  0.2631 -0.1852 -0.0569
   96SAPS   C36 9569   0.734   3.900   7.432 -0.9459  0.8984  0.1751
   96SAPS   H6X 9570   0.708   3.809   7.373 -0.8114  0.1998  1.1509
   96SAPS   H6Y 9571   0.654   3.923   7.506 -1.8783 -0.8562 -0.2355
   96SAPS   C37 9572   0.856   3.844   7.514 -0.5205  0.0003  0.4632
   96SAPS   H7X 9573   0.943   3.842   7.444 -0.2174 -1.6229  0.8500
   96SAPS   H7Y 9574   0.837   3.745   7.560  1.4347 -0.5180  0.2561
   96SAPS   C38 9575   0.895   3.946   7.617 -0.0594 -0.0524 -0.5365
   96SAPS   H8X 9576   0.813   3.960   7.691  1.3991 -1.1814  1.3882
   96SAPS   H8Y 9577   0.928   4.044   7.577 -0.1706  1.1442  2.0599
   96SAPS   C39 9578   1.009   3.897   7.709  0.1859  0.3063  0.4784
   96SAPS   H9X 9579   1.105   3.877   7.656  0.4321  0.0318  1.0176
   96SAPS   H9Y 9580   0.976   3.796   7.741 -0.5409  0.1202 -0.7921
   96SAPS  C310 9581   1.027   3.968   7.843  0.1504 -0.3679 -0.7771
   96SAPS  H10X 9582   0.932   3.981   7.899 -0.3412  1.9585 -1.9982
   96SAPS  H10Y 9583   1.066   4.072   7.834 -0.3057 -0.0943  0.2577
   96SAPS  C311 9584   1.119   3.884   7.926 -0.4222  0.6496  0.0146
   96SAPS  H11X 9585   1.221   3.927   7.926  0.8222 -2.0587 -1.6374
   96SAPS  H11Y 9586   1.142   3.783   7.885  3.4195  1.6011 -0.5822
   96SAPS  C312 9587   1.082   3.863   8.078 -0.2620  1.0587  0.3906
   96SAPS  H12X 9588   1.171   3.820   8.128 -0.0039  1.5083  0.3253
   96SAPS  H12Y 9589   1.011   3.778   8.076  0.7379  0.1350  2.2156
   96SAPS  C313 9590   1.062   3.991   8.151 -0.1690  0.1904 -0.2035
   96SAPS  H13X 9591   1.025   3.973   8.254 -1.7122  0.8919 -0.6046
   96SAPS  H13Y 9592   0.982   4.048   8.098 -1.8614 -0.3693  1.6404
   96SAPS  C314 9593   1.188   4.084   8.176 -0.2832  0.3946 -0.5952
   96SAPS  H14X 9594   1.153   4.189   8.181  0.8934  0.7446  1.1557
   96SAPS  H14Y 9595   1.253   4.086   8.086  1.1055  2.3427  0.3700
   96SAPS  C315 9596   1.272   4.051   8.297 -0.2718 -0.1179  0.4141
   96SAPS  H15X 9597   1.307   3.946   8.284 -0.3972 -0.1365  0.2227
   96SAPS  H15Y 9598   1.211   4.037   8.389  0.2638  0.5271  0.8792
   96SAPS  C316 9599   1.391   4.141   8.327 -0.2200 -0.3783  0.4643
   96SAPS  H16X 9600   1.451   4.100   8.410 -2.3556 -2.0241  1.2688
   96SAPS  H16Y 9601   1.356   4.240   8.362 -1.3386 -0.3902 -0.5542
   96SAPS  C317 9602   1.480   4.169   8.204  0.0946 -0.1603  0.3042
   96SAPS  H17X 9603   1.408   4.228   8.143 -0.2090 -1.5030 -0.6848
   96SAPS  H17Y 9604   1.519   4.079   8.151  0.2979  0.2300 -0.2285
   96SAPS  C318 9605   1.596   4.256   8.247  0.2548 -0.2684  0.5187
   96SAPS  H18X 9606   1.553   4.357   8.265 -1.7003 -0.8785 -0.4895
   96SAPS  H18Y 9607   1.676   4.264   8.171 -0.2920  1.9424  0.1013
   96SAPS  H18Z 9608   1.637   4.216   8.342  0.4099 -0.9156  0.1786
   97SAPS     N 9609   1.411   3.218   6.544  0.0936  0.2841 -1.0673
   97SAPS   HN1 9610   1.408   3.320   6.563  1.6189  0.4893 -1.7685
   97SAPS   HN2 9611   1.348   3.165   6.607 -0.0242  0.0155 -1.4029
   97SAPS   HN3 9612   1.509   3.190   6.563  0.0975  0.7218 -0.4234
   97SAPS   C12 9613   1.372   3.177   6.413  0.1753  0.3137  1.3153
   97SAPS  H12A 9614   1.274   3.220   6.396  0.6513  0.1140 -2.9692
   97SAPS   C13 9615   1.468   3.220   6.298 -0.5697  0.2388 -0.4484
   97SAPS  O13A 9616   1.568   3.285   6.325 -0.5968 -0.4147  0.1361
   97SAPS  O13B 9617   1.430   3.213   6.179 -0.3996 -0.0597 -0.2870
   97SAPS   C11 9618   1.364   3.019   6.418  0.5535  1.0357 -0.1263
   97SAPS  H11A 9619   1.456   2.980   6.466 -0.8787 -1.1392  1.0432
   97SAPS  H11B 9620   1.365   2.970   6.319  0.1304  0.2386  0.2538
   97SAPS     P 9621   1.111   2.952   6.443 -0.2781 -0.1914  0.1973
   97SAPS   O13 9622   1.090   3.052   6.332 -0.5110 -0.0452 -0.7883
   97SAPS   O14 9623   1.077   2.812   6.418  0.2379  0.2341 -0.6220
   97SAPS   O12 9624   1.255   2.965   6.493 -0.2982 -0.1279  0.5007
   97SAPS   O11 9625   1.033   2.999   6.571  0.3471 -0.6334 -0.4435
   97SAPS    C1 9626   1.093   3.081   6.678  0.3113  0.0409 -0.0758
   97SAPS    HA 9627   1.181   3.137   6.639 -0.8585  0.8323 -1.7327
   97SAPS    HB 9628   1.015   3.158   6.696  0.9651  1.3758 -2.4385
   97SAPS    C2 9629   1.108   3.003   6.814  0.1839 -0.1947  0.2792
   97SAPS    HS 9630   1.139   3.079   6.889  1.5242 -0.6425  0.2036
   97SAPS   O21 9631   1.203   2.899   6.813  0.5082 -0.3523  0.1874
   97SAPS   C21 9632   1.328   2.932   6.788  0.3499  0.1531  0.2990
   97SAPS   O22 9633   1.368   3.045   6.779 -0.2819 -0.2312  0.3126
   97SAPS   C22 9634   1.409   2.801   6.796 -0.6500  1.0743 -0.1896
   97SAPS   H2R 9635   1.345   2.712   6.785 -0.3108  0.4889  2.0509
   97SAPS   H2S 9636   1.479   2.816   6.711 -1.9023  3.4621 -0.8855
   97SAPS    C3 9637   0.971   2.940   6.847  0.5882  0.3828  0.5906
   97SAPS    HX 9638   0.959   2.845   6.790  0.2680 -0.2361  1.6476
   97SAPS    HY 9639   0.895   3.012   6.812  1.8881  1.1226 -0.8378
   97SAPS   O31 9640   0.958   2.925   6.991  0.1183  0.3962  0.7765
   97SAPS   C31 9641   1.004   2.806   7.034 -0.2598  0.1529 -0.0624
   97SAPS   O32 9642   1.049   2.712   6.969  0.7979  0.0629 -0.2015
   97SAPS   C32 9643   0.983   2.803   7.184  0.4671  0.0792 -0.0921
   97SAPS   H2X 9644   0.890   2.863   7.191 -0.5143 -0.8679 -3.1797
   97SAPS   H2Y 9645   1.065   2.862   7.230 -0.1746  1.6311 -0.8625
   97SAPS   C23 9646   1.500   2.779   6.926  0.3914 -0.2419 -0.5543
   97SAPS   H3R 9647   1.576   2.859   6.914  1.3150 -1.2187 -1.4789
   97SAPS   H3S 9648   1.545   2.677   6.918  2.0022  0.3699  0.2713
   97SAPS   C24 9649   1.417   2.783   7.059 -0.7743 -0.0599 -0.6542
   97SAPS   H4R 9650   1.357   2.691   7.079  1.0590 -1.1249  0.2858
   97SAPS   H4S 9651   1.343   2.864   7.043 -0.0727  0.8747  0.7293
   97SAPS   C25 9652   1.502   2.807   7.185 -0.1719 -0.3425  0.1142
   97SAPS   H5R 9653   1.566   2.897   7.179 -0.1774 -0.4169 -2.1588
   97SAPS   C26 9654   1.496   2.741   7.300  0.2573 -0.3233  0.7922
   97SAPS   H6R 9655   1.562   2.764   7.385  3.1760  0.4200 -1.5062
   97SAPS   C27 9656   1.404   2.625   7.332 -0.1849 -0.4716  0.4744
   97SAPS   H7R 9657   1.411   2.555   7.247  2.3552  0.3545 -0.0609
   97SAPS   H7S 9658   1.295   2.646   7.336 -0.3028 -0.4527 -1.7089
   97SAPS   C28 9659   1.446   2.542   7.453 -0.1797  0.2742  0.8407
   97SAPS   H8R 9660   1.514   2.463   7.419 -1.0338  0.1868 -0.7450
   97SAPS   C29 9661   1.428   2.564   7.585  0.3051 -0.4112  0.7154
   97SAPS   H9R 9662   1.485   2.507   7.660  1.5659  0.8757  0.7622
   97SAPS  C210 9663   1.344   2.680   7.631 -0.1658  0.4393 -0.4744
   97SAPS  H10R 9664   1.255   2.642   7.685  0.5156  1.8573  1.8013
   97SAPS  H10S 9665   1.300   2.741   7.549 -1.5071  1.9847  1.3129
   97SAPS  C211 9666   1.422   2.778   7.720 -0.0195 -0.3575  0.9440
   97SAPS  H11R 9667   1.475   2.855   7.663  1.0173 -1.5535  0.2453
   97SAPS  C212 9668   1.424   2.783   7.851 -0.0657 -0.2844  0.2540
   97SAPS  H12R 9669   1.489   2.862   7.892  0.6632 -0.2098 -1.0310
   97SAPS  C213 9670   1.367   2.678   7.949  0.2310 -0.2833  0.4334
   97SAPS  H13R 9671   1.338   2.587   7.892  2.5563 -0.9671  0.2400
   97SAPS  H13S 9672   1.267   2.712   7.983 -0.9190 -1.4170 -1.6086
   97SAPS  C214 9673   1.464   2.649   8.053  0.2713  0.4927 -0.8084
   97SAPS  H14R 9674   1.527   2.736   8.077 -0.7547  0.9960  0.1552
   97SAPS  C215 9675   1.462   2.541   8.131  0.6062 -0.3665 -0.1293
   97SAPS  H15R 9676   1.535   2.527   8.212  0.9032  0.7292 -0.1919
   97SAPS  C216 9677   1.366   2.425   8.108 -0.9880 -0.8160 -0.2193
   97SAPS  H16R 9678   1.275   2.450   8.049 -0.2177 -2.6638 -2.3880
   97SAPS  H16S 9679   1.337   2.397   8.211 -0.0480 -2.9617 -0.4811
   97SAPS  C217 9680   1.433   2.304   8.036  0.4093 -0.6294 -0.7448
   97SAPS  H17R 9681   1.504   2.250   8.103  0.8725 -0.6231 -1.2342
   97SAPS  H17S 9682   1.488   2.336   7.946  2.7034 -0.6348  0.5765
   97SAPS  C218 9683   1.321   2.204   7.988 -0.3684 -0.1813 -0.3680
   97SAPS  H18R 9684   1.256   2.256   7.914  0.0173 -0.0245 -0.6022
   97SAPS  H18S 9685   1.269   2.163   8.077  2.6860 -3.4008  0.1398
   97SAPS  C219 9686   1.385   2.083   7.906 -0.1414 -0.0761  0.5803
   97SAPS  H19R 9687   1.456   2.131   7.835 -0.9382  1.9084  1.0529
   97SAPS  H19S 9688   1.307   2.032   7.846 -0.0940 -1.9611  2.0532
   97SAPS  C220 9689   1.458   1.983   7.997  0.4301 -0.2174 -0.5038
   97SAPS  H20R 9690   1.561   2.022   8.015  0.8007 -1.7167  0.8152
   97SAPS  H20S 9691   1.464   1.882   7.951  1.3350 -0.2320 -0.3844
   97SAPS  H20T 9692   1.401   1.969   8.091 -1.4800 -0.8359 -1.6887
   97SAPS   C33 9693   0.952   2.661   7.234  0.4513 -0.7522  0.0784
   97SAPS   H3X 9694   1.044   2.606   7.260 -1.0907 -2.1457  3.1145
   97SAPS   H3Y 9695   0.895   2.591   7.169 -2.6156  0.3671  1.3251
   97SAPS   C34 9696   0.874   2.661   7.372 -1.4116  0.0758 -0.4185
   97SAPS   H4X 9697   0.850   2.554   7.388 -1.7608  0.2930  0.6015
   97SAPS   H4Y 9698   0.783   2.724   7.363 -1.1639  0.1824 -2.9019
   97SAPS   C35 9699   0.964   2.732   7.480 -0.3507  0.5142  0.5196
   97SAPS   H5X 9700   0.988   2.838   7.456  2.8426 -0.8755 -3.6894
   97SAPS   H5Y 9701   1.061   2.678   7.486 -1.0846 -1.4966 -3.0549
   97SAPS   C36 9702   0.908   2.731   7.628 -0.0898 -0.5123  0.2463
   97SAPS   H6X 9703   0.907   2.625   7.661 -0.3093  0.0428  2.1465
   97SAPS   H6Y 9704   0.805   2.773   7.626 -0.2265 -0.8820 -1.1650
   97SAPS   C37 9705   0.989   2.823   7.726  0.5864 -0.4226  0.0734
   97SAPS   H7X 9706   0.974   2.925   7.685  2.4591  0.6366  1.8494
   97SAPS   H7Y 9707   1.097   2.797   7.727  1.2716  2.1867 -0.1885
   97SAPS   C38 9708   0.933   2.818   7.872 -0.0566  0.2365  0.2080
   97SAPS   H8X 9709   0.971   2.720   7.907 -2.7509 -1.4500 -1.2354
   97SAPS   H8Y 9710   0.823   2.803   7.875 -0.0038 -1.4629 -2.9931
   97SAPS   C39 9711   0.959   2.941   7.959  0.0982 -0.5138  0.1799
   97SAPS   H9X 9712   0.906   3.027   7.913  1.0747  0.6262  1.1312
   97SAPS   H9Y 9713   1.068   2.963   7.968  0.0292 -0.2566  0.3944
   97SAPS  C310 9714   0.899   2.926   8.100 -0.1028  0.0923 -0.2594
   97SAPS  H10X 9715   0.944   2.837   8.151  1.7766 -0.5782 -2.8605
   97SAPS  H10Y 9716   0.792   2.896   8.106  0.3357 -1.3890  1.1012
   97SAPS  C311 9717   0.936   3.041   8.197 -0.1578 -0.4805  0.6554
   97SAPS  H11X 9718   0.885   3.133   8.161 -1.1818 -1.2068  0.2150
   97SAPS  H11Y 9719   1.046   3.057   8.198 -0.3279  0.9142  0.1204
   97SAPS  C312 9720   0.897   3.005   8.333  0.2212 -0.1635  0.1404
   97SAPS  H12X 9721   0.938   3.076   8.408  1.3316  2.6921 -2.9289
   97SAPS  H12Y 9722   0.916   2.896   8.345 -2.8923 -1.0997 -2.1801
   97SAPS  C313 9723   0.746   2.991   8.357  0.5703 -1.0685 -0.6387
   97SAPS  H13X 9724   0.696   2.910   8.299  0.7918 -0.6345 -1.4426
   97SAPS  H13Y 9725   0.692   3.082   8.323 -0.8058 -1.8123 -0.5197
   97SAPS  C314 9726   0.701   2.968   8.506 -0.3523  0.0092  0.6404
   97SAPS  H14X 9727   0.754   2.874   8.531  0.1634 -0.1819 -1.0673
   97SAPS  H14Y 9728   0.591   2.953   8.501 -0.9935  2.6602  3.5481
   97SAPS  C315 9729   0.724   3.089   8.601 -0.0314 -0.7119 -0.0866
   97SAPS  H15X 9730   0.680   3.176   8.547  0.8053 -0.1186  0.1716
   97SAPS  H15Y 9731   0.833   3.110   8.605 -0.2420  0.4176  0.0050
   97SAPS  C316 9732   0.670   3.076   8.742  0.1277  0.7195  0.5903
   97SAPS  H16X 9733   0.700   2.980   8.789 -0.9089  0.6883  1.2094
   97SAPS  H16Y 9734   0.560   3.086   8.740 -0.1838 -1.9852  0.9461
   97SAPS  C317 9735   0.743   3.173   8.843 -0.3409  0.3308 -0.1368
   97SAPS  H17X 9736   0.751   3.272   8.794  0.7333  0.4662  0.2794
   97SAPS  H17Y 9737   0.850   3.144   8.852  0.4800  2.6191 -1.5371
   97SAPS  C318 9738   0.665   3.201   8.973 -0.4467  0.6458 -0.0943
   97SAPS  H18X 9739   0.559   3.228   8.953 -0.4149  0.9932  0.1776
   97SAPS  H18Y 9740   0.716   3.288   9.021  0.0023  2.7660 -4.0466
   97SAPS  H18Z 9741   0.663   3.113   9.041 -2.5689  0.1844 -0.7133
   98SAPS     N 9742   6.022   0.906   6.162 -0.6749 -0.1566 -0.0277
   98SAPS   HN1 9743   6.033   0.958   6.251 -1.4300 -0.5645  0.3124
   98SAPS   HN2 9744   5.924   0.913   6.129 -1.0291  1.6785  1.2719
   98SAPS   HN3 9745   6.035   0.805   6.187  1.6425 -0.4177 -1.8624
   98SAPS   C12 9746   6.117   0.945   6.055  0.4584  1.2169  0.6860
   98SAPS  H12A 9747   6.215   0.936   6.099  0.1846 -1.9819  0.8981
   98SAPS   C13 9748   6.130   0.846   5.934  0.1235  0.6777 -0.6293
   98SAPS  O13A 9749   6.043   0.757   5.923  0.1510  0.0131 -0.1965
   98SAPS  O13B 9750   6.229   0.856   5.857  0.2862 -0.4535  0.2032
   98SAPS   C11 9751   6.077   1.092   6.017  0.4949 -0.5079  0.3662
   98SAPS  H11A 9752   5.985   1.085   5.955 -0.2032 -1.0661  1.4421
   98SAPS  H11B 9753   6.165   1.124   5.957  0.0502 -1.1628 -0.6679
   98SAPS     P 9754   6.062   1.332   6.114 -0.4255  0.0344 -0.1511
   98SAPS   O13 9755   6.197   1.399   6.119 -0.2216 -0.1677 -0.0643
   98SAPS   O14 9756   5.969   1.358   5.999  0.0213  0.0222 -0.1332
   98SAPS   O12 9757   6.068   1.168   6.139 -0.3349  0.0556 -0.6598
   98SAPS   O11 9758   5.986   1.391   6.240 -0.3186 -0.3903  0.0850
   98SAPS    C1 9759   5.879   1.316   6.305 -0.3562 -0.4613  0.2548
   98SAPS    HA 9760   5.784   1.351   6.259  1.3982  1.1524 -2.4326
   98SAPS    HB 9761   5.894   1.206   6.298  1.0745 -0.2131 -1.7323
   98SAPS    C2 9762   5.875   1.353   6.453 -0.3483  0.2676 -0.3814
   98SAPS    HS 9763   5.815   1.284   6.516  0.1372 -0.6004 -0.8640
   98SAPS   O21 9764   5.836   1.485   6.483 -0.2477  0.0359  0.4466
   98SAPS   C21 9765   5.708   1.512   6.467 -0.7401 -0.0111  0.5903
   98SAPS   O22 9766   5.623   1.429   6.434 -0.1054 -0.0817 -0.4011
   98SAPS   C22 9767   5.686   1.657   6.488 -0.2142  0.6026 -0.7377
   98SAPS   H2R 9768   5.673   1.670   6.597  1.0661  0.4661 -0.5552
   98SAPS   H2S 9769   5.772   1.716   6.450  0.4676 -0.5951 -1.1230
   98SAPS    C3 9770   6.022   1.346   6.507 -0.0282  0.1194 -0.5660
   98SAPS    HX 9771   6.092   1.420   6.464  0.4777 -1.5582 -2.7880
   98SAPS    HY 9772   6.058   1.246   6.474 -0.4941 -0.3844  0.3961
   98SAPS   O31 9773   6.033   1.360   6.652 -0.4733 -0.5686  0.1316
   98SAPS   C31 9774   6.007   1.259   6.726 -0.0224 -0.0479  0.1549
   98SAPS   O32 9775   5.960   1.158   6.682  0.3084 -0.0639  0.1888
   98SAPS   C32 9776   6.018   1.288   6.880  0.2973 -0.2498 -0.4789
   98SAPS   H2X 9777   6.116   1.335   6.905  0.9366 -1.6094 -0.2856
   98SAPS   H2Y 9778   6.017   1.187   6.927  0.5594 -0.1986 -0.3624
   98SAPS   C23 9779   5.556   1.716   6.423 -0.0218 -0.6502 -0.1813
   98SAPS   H3R 9780   5.499   1.639   6.366 -5.2261  1.7434  1.1976
   98SAPS   H3S 9781   5.591   1.801   6.361  1.4411  0.0031  1.4372
   98SAPS   C24 9782   5.454   1.783   6.518 -0.8435  0.5858  0.5028
   98SAPS   H4R 9783   5.414   1.695   6.573  0.1126  0.6971  1.4151
   98SAPS   H4S 9784   5.369   1.820   6.457  0.1151  0.3837 -0.9925
   98SAPS   C25 9785   5.512   1.881   6.614 -1.0082 -0.9569 -0.3541
   98SAPS   H5R 9786   5.557   1.970   6.567 -0.3975 -0.6768  0.7286
   98SAPS   C26 9787   5.519   1.886   6.750 -0.3529  0.6348  0.9078
   98SAPS   H6R 9788   5.574   1.971   6.792  2.1355  0.0860 -1.0418
   98SAPS   C27 9789   5.455   1.774   6.829 -0.4060 -1.0884 -0.3140
   98SAPS   H7R 9790   5.375   1.730   6.765 -1.5527  1.0610 -0.4425
   98SAPS   H7S 9791   5.401   1.831   6.907 -0.3199  1.3771 -1.9546
   98SAPS   C28 9792   5.554   1.676   6.881  0.4352  0.1394 -0.7716
   98SAPS   H8R 9793   5.644   1.721   6.924 -0.2698 -1.5897  2.9131
   98SAPS   C29 9794   5.544   1.546   6.893  0.1993 -0.1361  0.4138
   98SAPS   H9R 9795   5.630   1.489   6.931  0.7558 -1.2684 -2.3127
   98SAPS  C210 9796   5.419   1.469   6.866  0.0876 -0.2081 -0.8406
   98SAPS  H10R 9797   5.342   1.533   6.818 -0.6111 -0.3229  0.1059
   98SAPS  H10S 9798   5.377   1.438   6.964 -2.8464  0.0592 -1.9197
   98SAPS  C211 9799   5.460   1.344   6.784  0.1960 -0.5230 -0.2692
   98SAPS  H11R 9800   5.454   1.345   6.674  1.0782  2.9480 -0.3982
   98SAPS  C212 9801   5.488   1.229   6.846 -0.7013  0.4702 -0.6080
   98SAPS  H12R 9802   5.516   1.144   6.782  0.7332 -0.7177  1.4684
   98SAPS  C213 9803   5.498   1.192   6.992  0.0290  0.0996 -0.0503
   98SAPS  H13R 9804   5.543   1.282   7.038 -0.0116 -1.1919  2.6940
   98SAPS  H13S 9805   5.581   1.121   7.015 -0.8608 -0.3922  1.8153
   98SAPS  C214 9806   5.372   1.139   7.058 -0.0033 -0.2036 -0.5196
   98SAPS  H14R 9807   5.321   1.051   7.016 -1.8203  0.4930  0.1054
   98SAPS  C215 9808   5.324   1.186   7.180  0.5165 -0.8773 -0.2216
   98SAPS  H15R 9809   5.241   1.136   7.231  0.4156  0.8829  1.4567
   98SAPS  C216 9810   5.380   1.294   7.272 -0.4720 -0.5872  0.3104
   98SAPS  H16R 9811   5.476   1.336   7.235 -0.9299  1.0791  0.9391
   98SAPS  H16S 9812   5.417   1.252   7.369  0.7198  1.1165  0.6360
   98SAPS  C217 9813   5.270   1.406   7.293 -0.5448  0.1770 -0.7662
   98SAPS  H17R 9814   5.203   1.380   7.378  1.3474  0.8331  1.0123
   98SAPS  H17S 9815   5.203   1.429   7.207 -2.3667 -0.8682  0.3053
   98SAPS  C218 9816   5.331   1.542   7.335 -0.2696  0.0089  0.9831
   98SAPS  H18R 9817   5.405   1.522   7.415  2.4135 -1.2199 -1.6084
   98SAPS  H18S 9818   5.257   1.601   7.392 -0.0195  0.8702  0.4387
   98SAPS  C219 9819   5.388   1.626   7.216 -0.6404  0.1164 -0.2172
   98SAPS  H19R 9820   5.301   1.618   7.147 -0.2340  0.7517 -0.8132
   98SAPS  H19S 9821   5.473   1.572   7.168 -1.3742 -1.1706 -0.1239
   98SAPS  C220 9822   5.441   1.765   7.258 -0.1269  0.1927 -0.4746
   98SAPS  H20R 9823   5.492   1.824   7.178 -0.8394  0.7795 -0.5018
   98SAPS  H20S 9824   5.522   1.746   7.332 -0.4592  0.3964 -0.0555
   98SAPS  H20T 9825   5.363   1.825   7.309 -0.2806 -0.7138  0.3689
   98SAPS   C33 9826   5.902   1.381   6.937  0.1272 -0.1146 -0.0259
   98SAPS   H3X 9827   5.811   1.330   6.899  0.2729 -0.3936 -0.0015
   98SAPS   H3Y 9828   5.909   1.484   6.897  0.1236  0.7134  1.9976
   98SAPS   C34 9829   5.919   1.372   7.091  0.1024  0.2080  0.0430
   98SAPS   H4X 9830   6.015   1.420   7.121 -0.0642  0.6601 -0.1281
   98SAPS   H4Y 9831   5.938   1.266   7.119 -2.4933  0.2301  2.2276
   98SAPS   C35 9832   5.802   1.428   7.160  0.4331  0.1848 -0.2782
   98SAPS   H5X 9833   5.713   1.376   7.117  0.4042  1.2097 -1.5137
   98SAPS   H5Y 9834   5.799   1.535   7.131  0.5324  0.0942 -0.6377
   98SAPS   C36 9835   5.804   1.408   7.311 -0.5545  0.1163 -0.6339
   98SAPS   H6X 9836   5.908   1.419   7.347 -0.5329 -0.8440 -0.3787
   98SAPS   H6Y 9837   5.776   1.303   7.330  0.0542 -0.0285 -0.5259
   98SAPS   C37 9838   5.704   1.495   7.392  0.0678 -0.0842  0.0221
   98SAPS   H7X 9839   5.606   1.470   7.347  0.5181  0.7592 -1.4978
   98SAPS   H7Y 9840   5.724   1.602   7.370 -1.6310 -0.3202 -3.2480
   98SAPS   C38 9841   5.695   1.456   7.545 -0.1254 -0.0253  0.2773
   98SAPS   H8X 9842   5.703   1.346   7.556  0.0087  0.0122  0.5759
   98SAPS   H8Y 9843   5.590   1.482   7.569 -0.5454 -1.5200  0.1566
   98SAPS   C39 9844   5.806   1.526   7.626 -0.8981  0.0806  0.1167
   98SAPS   H9X 9845   5.844   1.619   7.578 -1.7831  0.7563  0.6921
   98SAPS   H9Y 9846   5.892   1.458   7.642 -0.5314  0.3411 -0.7507
   98SAPS  C310 9847   5.750   1.553   7.771 -0.2372  0.3181 -0.3187
   98SAPS  H10X 9848   5.663   1.622   7.770 -0.8215 -0.4148 -0.5530
   98SAPS  H10Y 9849   5.837   1.601   7.822  0.0220  1.2347 -1.5856
   98SAPS  C311 9850   5.721   1.420   7.840  0.2394 -0.9076  1.0238
   98SAPS  H11X 9851   5.812   1.356   7.850  0.2178 -0.8444  1.6703
   98SAPS  H11Y 9852   5.634   1.365   7.797  0.2755 -1.2945  1.4318
   98SAPS  C312 9853   5.673   1.461   7.989  0.4118  0.4476 -0.1200
   98SAPS  H12X 9854   5.586   1.529   7.978 -1.2015 -1.6095 -0.8509
   98SAPS  H12Y 9855   5.763   1.510   8.032  2.0264 -2.3970  0.0027
   98SAPS  C313 9856   5.653   1.339   8.089  0.1986  0.3166 -0.0453
   98SAPS  H13X 9857   5.658   1.368   8.196 -0.7777  0.1711  0.0495
   98SAPS  H13Y 9858   5.744   1.277   8.070  0.2409  0.2028  0.5015
   98SAPS  C314 9859   5.521   1.249   8.062 -0.2582 -0.0103 -0.9175
   98SAPS  H14X 9860   5.537   1.216   7.957  0.2430 -0.9791 -0.5457
   98SAPS  H14Y 9861   5.426   1.306   8.058 -0.1751  0.1086 -1.2564
   98SAPS  C315 9862   5.501   1.130   8.155 -1.0867 -0.6276 -0.0371
   98SAPS  H15X 9863   5.597   1.089   8.193  0.8938  2.2436 -1.5236
   98SAPS  H15Y 9864   5.434   1.059   8.101 -0.5919 -1.3989  0.3472
   98SAPS  C316 9865   5.418   1.164   8.278 -0.2438  0.1576 -0.1948
   98SAPS  H16X 9866   5.319   1.116   8.258 -0.7216 -0.6828  3.5520
   98SAPS  H16Y 9867   5.397   1.273   8.277 -2.4520 -0.1926  0.5706
   98SAPS  C317 9868   5.481   1.125   8.412 -0.5468 -0.5305  0.3839
   98SAPS  H17X 9869   5.523   1.023   8.407 -1.1150 -0.7546 -0.0003
   98SAPS  H17Y 9870   5.399   1.129   8.487 -0.7976  0.2996  0.0788
   98SAPS  C318 9871   5.600   1.211   8.457  0.8615  0.0317  0.3965
   98SAPS  H18X 9872   5.564   1.312   8.488  1.4462 -0.1881  1.8524
   98SAPS  H18Y 9873   5.659   1.225   8.364 -1.5950  0.1696 -1.2434
   98SAPS  H18Z 9874   5.657   1.175   8.545 -1.0228 -0.3511  1.5110
   99SAPS     N 9875   5.947   0.522   6.016 -0.1372 -0.2281  0.3759
   99SAPS   HN1 9876   5.890   0.559   6.095  0.8921  0.9426  0.6022
   99SAPS   HN2 9877   6.042   0.488   6.043  0.4022 -0.6389 -1.8367
   99SAPS   HN3 9878   5.966   0.596   5.946 -1.3620 -0.9573 -0.7649
   99SAPS   C12 9879   5.863   0.414   5.957 -0.1357  0.2932  0.5427
   99SAPS  H12A 9880   5.780   0.467   5.914 -0.8599  0.0215  1.5682
   99SAPS   C13 9881   5.937   0.335   5.852  0.0604  0.3987 -0.5809
   99SAPS  O13A 9882   6.057   0.362   5.827  0.5419  0.0692 -0.5505
   99SAPS  O13B 9883   5.869   0.254   5.790  0.3176 -0.5147  0.2963
   99SAPS   C11 9884   5.801   0.318   6.072  0.3292 -0.1273 -0.7058
   99SAPS  H11A 9885   5.728   0.249   6.023  2.0541 -2.8372  0.3200
   99SAPS  H11B 9886   5.750   0.385   6.145  0.9990 -1.4764  1.0569
   99SAPS     P 9887   5.970   0.276   6.279 -0.1841  0.1264  0.0067
   99SAPS   O13 9888   6.091   0.193   6.298 -0.1616 -0.0238  0.2787
   99SAPS   O14 9889   5.983   0.422   6.290  0.2531  0.3327  0.4519
   99SAPS   O12 9890   5.898   0.233   6.139  0.1422  0.0210 -0.6417
   99SAPS   O11 9891   5.862   0.223   6.380 -0.9238 -0.2828  0.3382
   99SAPS    C1 9892   5.832   0.081   6.385  1.1366  1.8323  0.7572
   99SAPS    HA 9893   5.730   0.050   6.354  2.5213 -1.7108 -0.7314
   99SAPS    HB 9894   5.904   0.029   6.319  1.1575  0.3413  1.8970
   99SAPS    C2 9895   5.849   0.002   6.517  0.0514 -0.3373 -0.0823
   99SAPS    HS 9896   5.836  -0.104   6.487 -2.1692 -0.0147 -0.4332
   99SAPS   O21 9897   5.755   0.059   6.614  0.2649  0.1042 -0.2621
   99SAPS   C21 9898   5.662  -0.031   6.651  0.2768  0.4160 -0.6864
   99SAPS   O22 9899   5.657  -0.150   6.617 -0.4315 -0.1277 -0.6255
   99SAPS   C22 9900   5.576   0.030   6.768  0.0678 -0.3491  0.6229
   99SAPS   H2R 9901   5.655   0.045   6.845 -0.8143 -0.8846  1.6531
   99SAPS   H2S 9902   5.543   0.134   6.747  1.4547 -0.0020  0.0568
   99SAPS    C3 9903   6.000   0.030   6.558  0.0383  0.1843  0.0594
   99SAPS    HX 9904   6.033   0.135   6.572 -2.8320  1.1691  0.1063
   99SAPS    HY 9905   6.056  -0.008   6.470  2.0602  0.3293  1.2376
   99SAPS   O31 9906   6.039  -0.061   6.655  0.1030  0.0487  0.1805
   99SAPS   C31 9907   6.014  -0.040   6.774 -0.0675  0.1829  0.8170
   99SAPS   O32 9908   5.961   0.061   6.818  0.6541 -0.4456 -0.8129
   99SAPS   C32 9909   6.046  -0.160   6.866 -0.0346  0.0906 -0.0958
   99SAPS   H2X 9910   6.112  -0.227   6.807 -0.5759 -0.2212 -0.3506
   99SAPS   H2Y 9911   5.954  -0.217   6.887 -0.7849  0.8521 -1.2146
   99SAPS   C23 9912   5.465  -0.064   6.826  0.0695  0.3379  0.1246
   99SAPS   H3R 9913   5.454  -0.158   6.768 -2.5132 -1.0349  2.6267
   99SAPS   H3S 9914   5.369  -0.007   6.823 -0.0951  0.0389 -1.6976
   99SAPS   C24 9915   5.478  -0.103   6.975  0.1873 -0.4476 -0.1088
   99SAPS   H4R 9916   5.392  -0.159   7.016  0.8195 -2.6472 -1.6355
   99SAPS   H4S 9917   5.497  -0.011   7.035  1.2765 -1.1060  0.6093
   99SAPS   C25 9918   5.601  -0.195   7.002 -0.3700  0.1191 -0.4094
   99SAPS   H5R 9919   5.663  -0.226   6.916 -0.2024 -0.6954 -0.0031
   99SAPS   C26 9920   5.644  -0.262   7.114 -0.5992 -0.7735 -0.6285
   99SAPS   H6R 9921   5.730  -0.327   7.093  0.3669  0.3901 -0.3770
   99SAPS   C27 9922   5.578  -0.257   7.249  0.3990  0.6059 -0.3638
   99SAPS   H7R 9923   5.557  -0.154   7.286 -0.4209 -0.4519  2.4036
   99SAPS   H7S 9924   5.645  -0.309   7.321 -0.4382 -2.2621 -1.5119
   99SAPS   C28 9925   5.445  -0.328   7.254 -0.3191  0.3062 -0.1076
   99SAPS   H8R 9926   5.448  -0.415   7.187  2.8518  0.9966 -1.0112
   99SAPS   C29 9927   5.329  -0.292   7.313 -0.0988 -0.2391 -0.4331
   99SAPS   H9R 9928   5.238  -0.355   7.314 -0.8230  0.7824 -0.1402
   99SAPS  C210 9929   5.309  -0.167   7.394  0.3635  0.5449  0.8224
   99SAPS  H10R 9930   5.393  -0.095   7.380 -0.0860  1.2386  1.6039
   99SAPS  H10S 9931   5.309  -0.193   7.502 -1.6870  1.6719  1.1324
   99SAPS  C211 9932   5.181  -0.100   7.351 -0.0090 -0.3776  0.2913
   99SAPS  H11R 9933   5.187  -0.062   7.248  0.6783 -0.6185  0.2399
   99SAPS  C212 9934   5.070  -0.088   7.428  0.2155  0.0684  0.4919
   99SAPS  H12R 9935   4.980  -0.042   7.383  0.4419 -0.2855 -0.3389
   99SAPS  C213 9936   5.058  -0.132   7.573 -0.6173  0.0517 -0.4741
   99SAPS  H13R 9937   5.103  -0.234   7.579  0.1778  0.1898 -2.8231
   99SAPS  H13S 9938   4.949  -0.139   7.589 -0.9030  2.4708 -1.0373
   99SAPS  C214 9939   5.115  -0.033   7.673  0.2711 -0.2074 -0.1320
   99SAPS  H14R 9940   5.204   0.026   7.648 -0.4856  0.7498 -0.6008
   99SAPS  C215 9941   5.053  -0.016   7.790 -0.6244  0.3270 -0.3287
   99SAPS  H15R 9942   5.078   0.071   7.853 -0.9586  0.6101 -0.5821
   99SAPS  C216 9943   4.928  -0.089   7.841  0.1169  0.6942  1.1288
   99SAPS  H16R 9944   4.934  -0.198   7.821 -0.4452  0.3458  2.6881
   99SAPS  H16S 9945   4.835  -0.058   7.787  0.5671  1.3498  0.7100
   99SAPS  C217 9946   4.913  -0.080   7.991  0.1568 -0.2709 -0.3117
   99SAPS  H17R 9947   4.999  -0.077   8.062 -0.2470  0.8930  0.1439
   99SAPS  H17S 9948   4.858  -0.169   8.028 -2.9943  0.8549 -1.9894
   99SAPS  C218 9949   4.838   0.046   8.036 -0.0174  0.3627 -0.2234
   99SAPS  H18R 9950   4.741   0.048   7.981 -0.0035  1.5148 -0.2341
   99SAPS  H18S 9951   4.901   0.133   8.006 -0.1335  0.3399 -0.5413
   99SAPS  C219 9952   4.800   0.031   8.190  0.3947 -0.7920  0.5577
   99SAPS  H19R 9953   4.876   0.064   8.264 -0.5062 -0.7055  1.4475
   99SAPS  H19S 9954   4.774  -0.073   8.217 -2.6279 -0.9203 -2.2007
   99SAPS  C220 9955   4.675   0.122   8.230 -0.3279  0.6653  0.9111
   99SAPS  H20R 9956   4.669   0.127   8.341  0.3724  2.2895  0.9102
   99SAPS  H20S 9957   4.586   0.092   8.171  0.7147  0.3849 -0.5384
   99SAPS  H20T 9958   4.690   0.224   8.189  1.3978 -0.7912 -2.4539
   99SAPS   C33 9959   6.112  -0.128   7.003  0.1181 -0.0892 -0.2067
   99SAPS   H3X 9960   6.190  -0.052   6.982 -0.6083  0.5329 -0.7577
   99SAPS   H3Y 9961   6.154  -0.225   7.037 -2.4399 -1.3884 -0.5027
   99SAPS   C34 9962   6.013  -0.084   7.115 -0.5100 -0.2906 -0.2043
   99SAPS   H4X 9963   5.938  -0.166   7.125 -1.4481  0.8508  4.8588
   99SAPS   H4Y 9964   5.962   0.014   7.102 -1.8315 -0.6510  1.7078
   99SAPS   C35 9965   6.079  -0.075   7.257  0.6377  0.6280 -0.3488
   99SAPS   H5X 9966   6.152   0.008   7.265 -1.2306  2.2148  1.2325
   99SAPS   H5Y 9967   6.126  -0.175   7.273  1.3917  0.4572 -3.2523
   99SAPS   C36 9968   5.969  -0.050   7.367 -1.1335 -0.7749  0.1488
   99SAPS   H6X 9969   5.928  -0.149   7.397 -0.2111 -1.8299 -1.8960
   99SAPS   H6Y 9970   5.878   0.002   7.330 -1.0249  0.7728  1.9402
   99SAPS   C37 9971   6.014   0.039   7.486  0.3863  0.1478  0.3248
   99SAPS   H7X 9972   5.929   0.075   7.548  1.5745  1.7240  1.1089
   99SAPS   H7Y 9973   6.064   0.128   7.444 -0.9077  0.6051 -0.2833
   99SAPS   C38 9974   6.119  -0.023   7.585  0.0188 -0.1036  0.5658
   99SAPS   H8X 9975   6.209  -0.057   7.530  0.4812  1.7725  0.0736
   99SAPS   H8Y 9976   6.074  -0.110   7.637 -0.7527  0.6972  1.2580
   99SAPS   C39 9977   6.162   0.085   7.687  0.0881  0.3174  0.7648
   99SAPS   H9X 9978   6.073   0.131   7.735 -0.4695 -2.4683  2.6524
   99SAPS   H9Y 9979   6.220   0.167   7.638  2.5974 -1.0450  1.2861
   99SAPS  C310 9980   6.249   0.028   7.802 -0.6189 -0.4319  0.5083
   99SAPS  H10X 9981   6.346  -0.002   7.755 -1.2615 -1.7077 -0.0583
   99SAPS  H10Y 9982   6.189  -0.053   7.848  0.9553 -1.0245  1.5929
   99SAPS  C311 9983   6.289   0.135   7.911  0.6173  0.5029 -1.0942
   99SAPS  H11X 9984   6.196   0.184   7.949  0.8424 -0.8574  1.4004
   99SAPS  H11Y 9985   6.353   0.213   7.865 -0.5840  1.8195 -0.6243
   99SAPS  C312 9986   6.358   0.072   8.027  0.3604 -0.5265 -0.1175
   99SAPS  H12X 9987   6.429   0.007   7.972  1.2329  1.2035 -1.1461
   99SAPS  H12Y 9988   6.287   0.011   8.087  1.8264 -2.0724  0.1058
   99SAPS  C313 9989   6.433   0.176   8.112 -0.1891 -0.0848 -0.1283
   99SAPS  H13X 9990   6.356   0.249   8.145 -1.0353 -1.1805  0.4020
   99SAPS  H13Y 9991   6.511   0.226   8.052 -0.4167 -0.7420 -0.9899
   99SAPS  C314 9992   6.474   0.124   8.248 -0.3498  0.6722 -0.6000
   99SAPS  H14X 9993   6.559   0.053   8.242  0.3817  1.5275 -0.5383
   99SAPS  H14Y 9994   6.388   0.067   8.290  2.2984 -1.7426  1.9954
   99SAPS  C315 9995   6.500   0.237   8.352 -0.3860 -0.9087  0.4949
   99SAPS  H15X 9996   6.401   0.267   8.392  0.9003  0.5930  2.8041
   99SAPS  H15Y 9997   6.540   0.331   8.308 -0.6958 -0.3188  1.4361
   99SAPS  C316 9998   6.583   0.195   8.470 -0.9068  0.0071  0.8084
   99SAPS  H16X 9999   6.690   0.174   8.451 -0.5469  0.5409  2.1449
   99SAPS  H16Y10000   6.541   0.096   8.499 -1.3527 -0.0196  0.0966
   99SAPS  C31710001   6.581   0.291   8.589 -0.3858  0.4443 -0.1506
   99SAPS  H17X10002   6.630   0.243   8.677 -1.8342  0.4068  0.6615
   99SAPS  H17Y10003   6.474   0.302   8.616 -0.7241 -0.7456 -0.9432
   99SAPS  C31810004   6.645   0.427   8.564 -0.5098  0.6170  0.1564
   99SAPS  H18X10005   6.570   0.492   8.513  0.8744  2.5728  0.5178
   99SAPS  H18Y10006   6.729   0.427   8.492  0.8910  0.9713  1.7310
   99SAPS  H18Z10007   6.689   0.478   8.652  0.1459  1.0274 -0.4095
  100SAPS     N10008   2.258   2.235   6.364 -0.5533  0.1732  0.2139
  100SAPS   HN110009   2.241   2.221   6.466  0.9949  0.7386  0.5722
  100SAPS   HN210010   2.334   2.169   6.340 -2.1672 -1.4795 -0.6091
  100SAPS   HN310011   2.298   2.330   6.347  0.9922 -0.7515 -1.5885
  100SAPS   C1210012   2.117   2.214   6.312 -0.7084 -0.0335  0.2100
  100SAPS  H12A10013   2.117   2.243   6.208  0.8490 -0.6876 -0.0117
  100SAPS   C1310014   2.052   2.079   6.312 -0.6121  0.0561 -0.3387
  100SAPS  O13A10015   2.110   1.982   6.372 -0.4658 -0.6733  0.3791
  100SAPS  O13B10016   1.944   2.068   6.249  0.2109  0.1313 -0.2999
  100SAPS   C1110017   2.032   2.312   6.394  0.3120  0.0642  0.5307
  100SAPS  H11A10018   2.037   2.282   6.501  0.0481 -1.4538  0.1484
  100SAPS  H11B10019   1.930   2.294   6.352  0.8407 -2.4884  0.1690
  100SAPS     P10020   1.976   2.555   6.334  0.3282  0.0990  0.1373
  100SAPS   O1310021   2.039   2.686   6.361 -0.0265 -0.1075  0.2166
  100SAPS   O1410022   1.944   2.526   6.191  0.7035  0.1531  0.1484
  100SAPS   O1210023   2.078   2.444   6.382 -0.2124  0.1123 -0.0474
  100SAPS   O1110024   1.846   2.535   6.421 -0.3886  0.1655 -0.0824
  100SAPS    C110025   1.817   2.630   6.523 -0.0047 -0.4117  0.0442
  100SAPS    HA10026   1.833   2.734   6.488 -1.3047 -0.7179 -1.5767
  100SAPS    HB10027   1.707   2.633   6.540  0.0888  0.8702  0.4970
  100SAPS    C210028   1.891   2.602   6.654 -0.1665  0.6684  0.9833
  100SAPS    HS10029   2.000   2.592   6.633 -0.3343 -4.3207  1.3278
  100SAPS   O2110030   1.828   2.490   6.712  0.3761 -0.0743 -0.2303
  100SAPS   C2110031   1.910   2.411   6.783 -0.5931 -0.8921 -0.3342
  100SAPS   O2210032   2.034   2.410   6.781  0.5883 -0.3561 -0.4122
  100SAPS   C2210033   1.822   2.327   6.881  0.0860  0.0731 -1.1502
  100SAPS   H2R10034   1.714   2.334   6.859 -0.3081  1.3340  0.8149
  100SAPS   H2S10035   1.851   2.220   6.877  0.3243 -0.1084  2.2101
  100SAPS    C310036   1.869   2.724   6.742  0.2269  0.0146 -0.4090
  100SAPS    HX10037   1.763   2.759   6.735  0.6387  1.0448 -2.0042
  100SAPS    HY10038   1.920   2.815   6.704  0.4252  0.6360  1.2518
  100SAPS   O3110039   1.909   2.688   6.879  0.3608 -0.0592  0.3562
  100SAPS   C3110040   2.041   2.721   6.899  0.4198 -1.2520  0.0234
  100SAPS   O3210041   2.126   2.740   6.813 -0.2551  0.1253 -0.5053
  100SAPS   C3210042   2.067   2.716   7.047  0.4865 -0.7998 -0.1499
  100SAPS   H2X10043   2.160   2.773   7.071 -0.9403  0.4477  2.9319
  100SAPS   H2Y10044   2.086   2.607   7.060  1.1790 -0.8147 -1.1683
  100SAPS   C2310045   1.835   2.370   7.032 -0.3800  0.6410  0.8560
  100SAPS   H3R10046   1.791   2.473   7.033  3.2032  2.3838 -1.0030
  100SAPS   H3S10047   1.940   2.370   7.068 -0.7409 -0.4215  1.9655
  100SAPS   C2410048   1.762   2.280   7.137 -0.9768 -0.3141 -0.7802
  100SAPS   H4R10049   1.821   2.187   7.154  1.2193  0.5603 -3.0982
  100SAPS   H4S10050   1.667   2.238   7.097 -0.9487 -1.9522  0.7443
  100SAPS   C2510051   1.739   2.364   7.257 -0.0770 -0.1532 -0.3360
  100SAPS   H5R10052   1.689   2.461   7.245 -3.0608 -1.2956  1.6711
  100SAPS   C2610053   1.769   2.337   7.389  0.9383 -0.8019  0.2462
  100SAPS   H6R10054   1.766   2.416   7.466  1.6729  1.8428 -2.2812
  100SAPS   C2710055   1.830   2.209   7.447  0.8679 -0.9381  0.5921
  100SAPS   H7R10056   1.839   2.125   7.375  1.9712  0.2003 -0.6367
  100SAPS   H7S10057   1.767   2.171   7.531  0.9702 -1.9594  0.2279
  100SAPS   C2810058   1.966   2.222   7.499 -0.1944 -0.3260 -0.2700
  100SAPS   H8R10059   2.029   2.276   7.427 -1.6947 -0.4940 -1.7767
  100SAPS   C2910060   2.013   2.178   7.623 -0.2747 -0.7021  0.0010
  100SAPS   H9R10061   2.117   2.202   7.649 -0.3089 -0.8585  0.2854
  100SAPS  C21010062   1.928   2.103   7.727 -0.7131  0.3361 -0.1821
  100SAPS  H10R10063   1.854   2.041   7.672  0.3244 -1.0885 -0.0202
  100SAPS  H10S10064   1.871   2.177   7.788  0.1397  0.8293  0.0411
  100SAPS  C21110065   2.002   2.008   7.815 -0.1785 -0.9627  1.2965
  100SAPS  H11R10066   2.036   1.917   7.764 -2.9842 -1.1200 -0.4642
  100SAPS  C21210067   2.036   2.032   7.940 -0.1395  0.0469  0.1053
  100SAPS  H12R10068   2.086   1.954   7.998  0.3305 -0.2914 -0.7326
  100SAPS  C21310069   1.989   2.155   8.019  0.4036  0.5129  0.6317
  100SAPS  H13R10070   1.958   2.244   7.960 -2.1659  0.0965  1.2058
  100SAPS  H13S10071   2.074   2.181   8.085  0.0065  1.6220  0.7173
  100SAPS  C21410072   1.869   2.134   8.096  0.1248  0.1478 -0.1070
  100SAPS  H14R10073   1.786   2.121   8.025  1.1165  1.4722 -1.5889
  100SAPS  C21510074   1.860   2.141   8.227 -0.3650  0.4978  0.1253
  100SAPS  H15R10075   1.762   2.121   8.275 -1.5409  0.1887 -2.2728
  100SAPS  C21610076   1.967   2.168   8.333 -0.5715  0.7469  0.2438
  100SAPS  H16R10077   2.056   2.213   8.284  0.0998 -0.0836  0.6613
  100SAPS  H16S10078   2.007   2.075   8.379 -0.1285  0.3887 -0.8557
  100SAPS  C21710079   1.925   2.246   8.459 -0.2956 -0.6270  0.0440
  100SAPS  H17R10080   2.013   2.252   8.528  0.6259 -1.0295 -1.0537
  100SAPS  H17S10081   1.843   2.190   8.508  0.3146 -1.3684  0.2357
  100SAPS  C21810082   1.898   2.397   8.433 -0.2125 -0.3969 -0.7154
  100SAPS  H18R10083   1.811   2.413   8.366  0.7106  2.4373 -1.3896
  100SAPS  H18S10084   1.982   2.441   8.374 -2.2671  3.3449 -1.1617
  100SAPS  C21910085   1.893   2.482   8.560 -0.0793 -0.6235  0.1910
  100SAPS  H19R10086   1.993   2.516   8.594 -0.2666  2.4832 -1.9198
  100SAPS  H19S10087   1.858   2.415   8.641  0.5501 -1.1682  0.0228
  100SAPS  C22010088   1.803   2.606   8.539  0.4238 -0.4384  0.4900
  100SAPS  H20R10089   1.811   2.658   8.637  1.2768  0.6323 -0.1367
  100SAPS  H20S10090   1.698   2.580   8.513  0.0905 -0.6222  1.9154
  100SAPS  H20T10091   1.852   2.660   8.456  2.7603  0.4604  2.3244
  100SAPS   C3310092   1.944   2.758   7.138 -0.2760  0.6912 -0.5892
  100SAPS   H3X10093   1.858   2.691   7.117 -0.6709 -0.0267  2.7828
  100SAPS   H3Y10094   1.910   2.863   7.124 -1.8557  0.3440  0.4083
  100SAPS   C3410095   1.973   2.729   7.289 -0.2130 -0.7626  1.0205
  100SAPS   H4X10096   2.055   2.793   7.326 -2.6112  1.0969  3.4801
  100SAPS   H4Y10097   2.008   2.624   7.301  1.0065 -0.4047  0.7757
  100SAPS   C3510098   1.850   2.751   7.377 -0.0708 -0.1308 -0.4356
  100SAPS   H5X10099   1.763   2.700   7.331 -0.3362  2.7820 -3.5088
  100SAPS   H5Y10100   1.814   2.856   7.377  1.3602  0.3989 -1.9721
  100SAPS   C3610101   1.870   2.702   7.521 -0.4627  0.0502  0.1737
  100SAPS   H6X10102   1.964   2.745   7.560 -0.2170 -0.5098  0.2110
  100SAPS   H6Y10103   1.895   2.595   7.502  0.6134  0.2551  0.3919
  100SAPS   C3710104   1.754   2.711   7.626 -0.1744  0.8637 -0.2413
  100SAPS   H7X10105   1.665   2.669   7.575  0.4698  1.2326 -1.7211
  100SAPS   H7Y10106   1.729   2.816   7.652  0.5984  0.7409  1.1168
  100SAPS   C3810107   1.772   2.640   7.760 -0.2226  0.3428  1.2986
  100SAPS   H8X10108   1.789   2.533   7.736 -1.4134 -0.0372  2.0648
  100SAPS   H8Y10109   1.683   2.655   7.825 -0.9297  3.3824 -0.1849
  100SAPS   C3910110   1.886   2.699   7.842 -0.4277 -0.4519  0.8571
  100SAPS   H9X10111   1.863   2.807   7.852 -0.5501 -0.2985 -0.8085
  100SAPS   H9Y10112   1.985   2.699   7.793  1.1769 -0.9221  3.8504
  100SAPS  C31010113   1.908   2.645   7.989 -0.4374 -0.1745 -0.0470
  100SAPS  H10X10114   1.901   2.534   7.991 -1.8340 -0.0922  0.2906
  100SAPS  H10Y10115   1.828   2.683   8.056 -0.2627  0.3687 -0.1430
  100SAPS  C31110116   2.043   2.689   8.059  0.1541  0.0084  0.4448
  100SAPS  H11X10117   2.044   2.799   8.052  0.7777 -0.0534 -0.8514
  100SAPS  H11Y10118   2.123   2.650   7.993 -0.4481 -0.2710 -0.1288
  100SAPS  C31210119   2.061   2.637   8.201  0.6114  0.1860 -0.1392
  100SAPS  H12X10120   2.062   2.526   8.196  1.3167  0.2547 -2.2789
  100SAPS  H12Y10121   1.973   2.664   8.264 -0.4479 -0.7939 -1.1640
  100SAPS  C31310122   2.191   2.668   8.265  0.2066 -0.4148  0.1155
  100SAPS  H13X10123   2.216   2.773   8.237  2.0747 -0.7501  0.4153
  100SAPS  H13Y10124   2.278   2.608   8.231  0.8236  1.0795 -1.0811
  100SAPS  C31410125   2.199   2.681   8.420 -0.1141 -0.0996  0.0625
  100SAPS  H14X10126   2.209   2.575   8.454  0.3986 -0.0892 -0.0327
  100SAPS  H14Y10127   2.113   2.736   8.462 -0.1444  0.4013 -0.6341
  100SAPS  C31510128   2.333   2.737   8.463  0.8301 -0.3458  0.5552
  100SAPS  H15X10129   2.332   2.846   8.441  0.4709 -0.0222  2.0211
  100SAPS  H15Y10130   2.417   2.700   8.401 -1.4328  0.6936 -3.4936
  100SAPS  C31610131   2.370   2.711   8.616  0.0430 -0.0957  0.3804
  100SAPS  H16X10132   2.417   2.611   8.627 -4.3074 -2.2444  1.1572
  100SAPS  H16Y10133   2.277   2.695   8.674  0.2345 -2.6171  0.1048
  100SAPS  C31710134   2.465   2.806   8.675 -0.5928 -0.3781 -0.7711
  100SAPS  H17X10135   2.414   2.904   8.685  0.3205  0.0960 -0.7205
  100SAPS  H17Y10136   2.543   2.835   8.601  2.1343 -1.1472  1.6092
  100SAPS  C31810137   2.526   2.755   8.802  0.4012  0.1051 -0.4980
  100SAPS  H18X10138   2.589   2.827   8.857  0.2370  0.8410 -1.2480
  100SAPS  H18Y10139   2.587   2.666   8.776  0.8278  0.7734 -1.9041
  100SAPS  H18Z10140   2.444   2.724   8.870  0.7931  2.3301  1.0646
  101OSM      N10141   3.775   2.488  10.749  0.2790  0.6462 -0.6701
  101OSM    C1510142   3.709   2.507  10.612  0.6036 -0.1347 -0.2798
  101OSM   H15A10143   3.651   2.598  10.616  2.8869  1.3522  1.1134
  101OSM   H15B10144   3.651   2.420  10.587 -0.3213  1.1842 -3.1023
  101OSM   H15C10145   3.777   2.510  10.528  0.5636  0.3713 -0.2962
  101OSM    C1410146   3.815   2.340  10.766 -0.0403 -0.1052  0.3798
  101OSM   H14A10147   3.917   2.328  10.734 -0.1907  1.8295 -1.0098
  101OSM   H14B10148   3.761   2.281  10.694 -0.8203  0.3465  0.5771
  101OSM   H14C10149   3.803   2.294  10.863 -0.0905  0.9863  0.9064
  101OSM    C1310150   3.894   2.575  10.753 -0.0668 -0.1916  0.3282
  101OSM   H13A10151   3.937   2.583  10.852 -2.4409  2.0381  1.2829
  101OSM   H13B10152   3.873   2.674  10.716  0.9111  0.2674  0.9648
  101OSM   H13C10153   3.978   2.535  10.698 -1.2282  0.9443 -2.4257
  101OSM    C1210154   3.682   2.514  10.863  0.1708 -0.3056  0.2227
  101OSM   H12A10155   3.721   2.496  10.962 -0.3274  0.5407  0.5844
  101OSM   H12B10156   3.602   2.443  10.845 -0.5970  1.0739 -2.2996
  101OSM    C1110157   3.607   2.652  10.874  0.9745 -0.2763  0.2799
  101OSM   H11A10158   3.534   2.641  10.957  0.8528  0.9463  0.3452
  101OSM   H11B10159   3.546   2.662  10.781 -0.1692 -2.4495  0.7248
  101OSM      P10160   3.667   2.893  10.810 -0.1156 -0.0718 -0.2095
  101OSM    O1310161   3.522   2.912  10.808  0.1114 -0.1851  0.1394
  101OSM    O1410162   3.750   3.010  10.847 -0.1556  0.2158  0.4373
  101OSM    O1110163   3.703   2.852  10.667 -0.3029 -0.0243 -0.3228
  101OSM    O1210164   3.693   2.766  10.894 -0.3123  0.4654 -0.7287
  101OSM    C1S10165   3.756   2.942  10.575 -0.3644 -0.3107  0.6740
  101OSM    H1S10166   3.866   2.942  10.591 -0.4887 -1.9470  1.7233
  101OSM    H1T10167   3.728   3.048  10.594 -1.3134 -0.5357  0.5717
  101OSM     NF10168   3.776   3.006  10.343  0.5230 -0.4318 -0.2176
  101OSM    HNF10169   3.706   3.066  10.306  2.7167  0.9628 -2.3215
  101OSM    C2S10170   3.725   2.901  10.429 -1.0563 -0.3102 -0.2430
  101OSM    H2S10171   3.787   2.812  10.404  1.2055  0.9927  0.4283
  101OSM    C3S10172   3.579   2.868  10.396 -0.4457  0.1744  0.5638
  101OSM    H3S10173   3.521   2.954  10.436  0.9732  1.9470 -0.9983
  101OSM     O310174   3.532   2.762  10.470  0.0062  0.2302 -0.4429
  101OSM    HO310175   3.579   2.776  10.552 -0.7130  0.6190 -0.0925
  101OSM    C4S10176   3.558   2.846  10.246  0.0302 -0.0187  0.0155
  101OSM    H4S10177   3.510   2.932  10.196 -1.6920 -0.8530  0.1697
  101OSM    C5S10178   3.559   2.727  10.186 -0.4636 -0.5184  0.8159
  101OSM    H5S10179   3.589   2.644  10.252  0.2210  0.7241  2.1247
  101OSM    C6S10180   3.532   2.694  10.040  0.3662  0.3313 -0.2036
  101OSM    H6S10181   3.436   2.637  10.044 -0.7507  2.1429 -0.1105
  101OSM    H6T10182   3.613   2.629  10.002  0.3125 -0.5187  1.0530
  101OSM    C7S10183   3.504   2.811   9.946 -0.7073 -0.1892 -0.5435
  101OSM    H7S10184   3.598   2.867   9.926 -0.9268  0.2328 -0.4212
  101OSM    H7T10185   3.418   2.876   9.976  0.7649  1.8782 -0.5879
  101OSM    C8S10186   3.473   2.763   9.801  0.1486 -0.1301 -0.0139
  101OSM    H8S10187   3.387   2.693   9.806  0.5222 -0.5343  0.9258
  101OSM    H8T10188   3.553   2.692   9.771  0.8893  0.3547  0.7796
  101OSM    C9S10189   3.449   2.877   9.690 -0.0443  0.3274 -0.4675
  101OSM    H9S10190   3.549   2.915   9.661  0.3551 -0.4189 -0.0881
  101OSM    H9T10191   3.399   2.959   9.746 -0.8426 -0.2748 -0.2695
  101OSM   C10S10192   3.366   2.833   9.575 -0.1944  0.9385 -0.5157
  101OSM   H10S10193   3.265   2.813   9.618 -0.2784  1.4102 -0.4921
  101OSM   H10T10194   3.401   2.737   9.532 -0.1006  0.5200  0.4482
  101OSM   C11S10195   3.355   2.938   9.463  0.3016  0.5146  0.2585
  101OSM   H11S10196   3.452   2.960   9.411 -0.9780  3.2792 -1.2157
  101OSM   H11T10197   3.321   3.032   9.511 -1.9542 -1.0597  1.9739
  101OSM   C12S10198   3.245   2.897   9.358 -0.2630 -0.0991  0.0430
  101OSM   H12S10199   3.147   2.900   9.410  0.2280 -2.0449  1.2020
  101OSM   H12T10200   3.256   2.789   9.335  1.4393 -0.0253  0.3609
  101OSM   C13S10201   3.246   2.977   9.226 -0.1338  0.3118  0.2585
  101OSM   H13S10202   3.202   2.918   9.142  1.6355  0.2250 -0.6511
  101OSM   H13T10203   3.349   3.006   9.195  1.0160 -2.6111  1.0740
  101OSM   C14S10204   3.166   3.107   9.246  0.0694 -0.5286 -0.1098
  101OSM   H14S10205   3.184   3.151   9.346  0.2142 -1.0274  0.0835
  101OSM   H14T10206   3.061   3.073   9.239 -0.1184 -0.0907  0.5358
  101OSM   C15S10207   3.199   3.205   9.133  0.9355 -0.4710  0.6441
  101OSM   H15S10208   3.193   3.149   9.037  0.6120 -1.9781  1.4976
  101OSM   H15T10209   3.301   3.248   9.133  1.3989 -1.5383  0.5836
  101OSM   C16S10210   3.102   3.320   9.119 -0.7567  0.4766  0.6084
  101OSM   H16S10211   3.115   3.379   9.213  0.6562  0.0588  0.7066
  101OSM   H16T10212   2.994   3.296   9.115 -0.1306 -2.6229  0.2352
  101OSM   C17S10213   3.143   3.405   8.996 -0.1891  0.3531  0.3237
  101OSM   H17S10214   3.121   3.346   8.905 -1.9979 -1.3132  1.7557
  101OSM   H17T10215   3.254   3.417   8.995  0.1540 -2.2757 -1.0155
  101OSM   C18S10216   3.071   3.537   8.970 -0.6646 -0.2004 -0.6653
  101OSM   H18S10217   3.133   3.623   9.001  0.5160 -1.7195  1.4783
  101OSM   H18T10218   2.976   3.538   9.028 -0.5119 -1.7643 -0.3340
  101OSM   H18U10219   3.052   3.540   8.861 -3.5562  0.5332 -0.2100
  101OSM    C1F10220   3.898   3.055  10.336 -0.4585 -0.0991 -0.4613
  101OSM     OF10221   3.993   3.002  10.394 -0.0736  0.5299  0.0224
  101OSM    C2F10222   3.903   3.196  10.270 -0.1833  0.2107  0.0968
  101OSM    H2F10223   3.954   3.267  10.338  3.0681 -0.6099 -1.2815
  101OSM    H2G10224   3.799   3.223  10.241 -0.2556 -1.1929 -1.0662
  101OSM    C3F10225   4.000   3.180  10.149 -0.5582 -0.1297  0.5289
  101OSM    H3F10226   4.101   3.159  10.190  0.0358 -0.2272 -0.9304
  101OSM    H3G10227   4.018   3.273  10.091  0.5724 -1.0038 -0.5672
  101OSM    C4F10228   3.953   3.075  10.054 -0.6827  0.5308 -0.0115
  101OSM    H4F10229   3.848   3.100  10.030 -0.3402  2.3779  0.3347
  101OSM    H4G10230   3.961   2.978  10.108  3.1519  1.2055  0.8895
  101OSM    C5F10231   4.052   3.047   9.928 -0.6592 -0.5565 -0.4788
  101OSM    H5F10232   4.027   2.963   9.860 -1.3824 -1.5288  0.9319
  101OSM    H5G10233   4.151   3.020   9.970 -0.4763 -0.9268 -1.1419
  101OSM    C6F10234   4.075   3.172   9.843  0.2659  0.0543  0.3926
  101OSM    H6F10235   4.143   3.244   9.894  0.8421 -1.8458  2.4471
  101OSM    H6G10236   3.975   3.216   9.821 -0.6786 -2.5067 -0.8619
  101OSM    C7F10237   4.159   3.132   9.718 -0.1271  0.3781 -0.5779
  101OSM    H7F10238   4.100   3.059   9.658 -0.3412  1.1467 -1.3240
  101OSM    H7G10239   4.252   3.085   9.756  0.8991  2.1945 -0.6925
  101OSM    C8F10240   4.193   3.252   9.626  0.5590 -0.5264 -0.1585
  101OSM    H8F10241   4.292   3.238   9.576  0.8117 -0.0597  0.1940
  101OSM    H8G10242   4.222   3.343   9.684  3.3224 -0.9802 -0.6648
  101OSM    C9F10243   4.086   3.301   9.536  0.2195  0.2633  0.1902
  101OSM    H9F10244   4.033   3.390   9.573 -4.2211 -1.6872 -0.8053
  101OSM   C10F10245   4.036   3.242   9.419 -0.3567  0.0046  0.8538
  101OSM   H10F10246   3.957   3.289   9.358 -1.3060 -2.7504 -0.1955
  101OSM   C11F10247   4.087   3.108   9.370  0.3487 -0.1100 -0.0426
  101OSM   H11F10248   4.148   3.058   9.449 -0.3811  1.3686  1.5063
  101OSM   H11G10249   4.145   3.121   9.276  1.0646 -3.3277 -0.1781
  101OSM   C12F10250   3.983   2.995   9.342  0.1396 -0.1265  0.4377
  101OSM   H12F10251   3.940   2.971   9.442 -0.9306  3.5747  1.0333
  101OSM   H12G10252   4.028   2.900   9.305 -0.4298 -0.5946  0.9350
  101OSM   C13F10253   3.867   3.025   9.250 -0.3067 -0.4236  0.0556
  101OSM   H13F10254   3.912   3.026   9.149 -0.2280  0.0325  0.0933
  101OSM   H13G10255   3.830   3.129   9.267  1.0425 -0.0091  0.5485
  101OSM   C14F10256   3.751   2.930   9.258  0.4111  0.1854  0.4599
  101OSM   H14F10257   3.716   2.903   9.360 -0.3834  0.2838  0.2223
  101OSM   H14G10258   3.778   2.837   9.204 -0.1096  1.1148 -1.5191
  101OSM   C15F10259   3.628   2.985   9.181 -0.1792 -0.2420 -0.4031
  101OSM   H15F10260   3.609   3.083   9.230 -0.5597 -1.3529  1.8281
  101OSM   H15G10261   3.545   2.915   9.204 -1.4174  1.2508 -0.1552
  101OSM   C16F10262   3.638   2.979   9.026 -0.7564  0.4277  0.2524
  101OSM   H16F10263   3.628   2.874   8.990  2.7576  0.1663 -0.3867
  101OSM   H16G10264   3.742   3.005   8.997 -0.3714 -1.1865  0.0751
  101OSM   C17F10265   3.533   3.067   8.967 -0.0466 -1.0968  0.6130
  101OSM   H17F10266   3.439   3.071   9.027 -0.8739 -1.1296 -0.6395
  101OSM   H17G10267   3.508   3.033   8.864  1.6177  1.8289 -0.8843
  101OSM   C18F10268   3.581   3.210   8.942 -0.4539 -0.1117  0.1368
  101OSM   H18F10269   3.653   3.210   8.857  0.2510 -1.2369  0.7093
  101OSM   H18G10270   3.632   3.262   9.026 -0.1935 -0.6941  0.3469
  101OSM   H18H10271   3.492   3.268   8.909  0.4200  1.6532  0.7737
  102OSM      N10272   1.902   3.340  10.943 -0.9978 -0.0301 -0.3592
  102OSM    C1510273   1.824   3.282  11.054  0.5218  0.0096  0.4517
  102OSM   H15A10274   1.728   3.331  11.060  1.0308  1.3210 -1.1885
  102OSM   H15B10275   1.866   3.300  11.152  2.1943  1.2908 -0.4475
  102OSM   H15C10276   1.769   3.191  11.036  0.3379 -0.2942  2.3472
  102OSM    C1410277   1.827   3.324  10.817  0.0153 -0.0859  0.5706
  102OSM   H14A10278   1.740   3.385  10.801  1.5955  1.6782 -2.1900
  102OSM   H14B10279   1.786   3.224  10.817 -0.3830  0.0772  0.7450
  102OSM   H14C10280   1.889   3.337  10.729  1.1714 -1.9569  1.0576
  102OSM    C1310281   1.934   3.482  10.959  0.3419  0.0915 -0.1924
  102OSM   H13A10282   1.954   3.499  11.064  0.3580  2.2428 -0.5125
  102OSM   H13B10283   1.857   3.548  10.922 -0.6535 -0.4456  0.8467
  102OSM   H13C10284   2.023   3.518  10.911  1.2973  2.0772  2.7418
  102OSM    C1210285   2.029   3.256  10.940 -0.3722  0.2724 -0.2166
  102OSM   H12A10286   2.003   3.153  10.917  0.8294  0.1801 -1.3261
  102OSM   H12B10287   2.077   3.257  11.036 -0.6298  1.9290 -0.0806
  102OSM    C1110288   2.136   3.299  10.844  0.1621 -0.0880  0.2303
  102OSM   H11A10289   2.236   3.267  10.878  1.1442 -0.0322 -2.3711
  102OSM   H11B10290   2.142   3.409  10.837  0.7983 -0.1043  0.4999
  102OSM      P10291   2.156   3.107  10.660 -0.4184 -0.0802  0.4960
  102OSM    O1310292   2.295   3.085  10.702 -0.1769  0.0952  0.2133
  102OSM    O1410293   2.061   2.994  10.697 -0.5006  0.0102 -0.7410
  102OSM    O1110294   2.148   3.133  10.502 -0.0757 -0.3339  0.3482
  102OSM    O1210295   2.111   3.241  10.717 -0.0061 -0.2082  0.3029
  102OSM    C1S10296   2.022   3.125  10.438 -0.1440 -0.6562  0.2113
  102OSM    H1S10297   1.965   3.220  10.447  1.3566  0.2187  1.0743
  102OSM    H1T10298   1.963   3.039  10.477 -0.5505 -0.8346 -0.7715
  102OSM     NF10299   1.898   3.098  10.221 -0.5231  0.5742  0.9204
  102OSM    HNF10300   1.874   3.006  10.190  2.4527  0.1946 -0.6028
  102OSM    C2S10301   2.036   3.095  10.282 -0.6991 -0.0198 -0.0865
  102OSM    H2S10302   2.089   3.182  10.239  0.8308  0.0316  1.7801
  102OSM    C3S10303   2.110   2.966  10.255  0.6293 -0.7147  0.0161
  102OSM    H3S10304   2.048   2.887  10.303  0.2823  1.1574  2.8644
  102OSM     O310305   2.238   2.972  10.322  0.0959  0.4622  0.1859
  102OSM    HO310306   2.235   3.052  10.375  2.0803 -0.1933  1.4328
  102OSM    C4S10307   2.125   2.949  10.106  0.5460  0.1655  0.2811
  102OSM    H4S10308   2.189   3.026  10.060 -0.4059  0.9068  0.1587
  102OSM    C5S10309   2.068   2.861  10.023  0.2345  0.1980  0.0944
  102OSM    H5S10310   1.996   2.785  10.057 -0.2602 -0.2597 -1.7999
  102OSM    C6S10311   2.099   2.862   9.875  0.1345 -0.9819  0.0056
  102OSM    H6S10312   2.162   2.774   9.849  0.3244 -0.6485 -0.6854
  102OSM    H6T10313   2.157   2.948   9.835 -0.3436 -0.9624 -0.6489
  102OSM    C7S10314   1.965   2.847   9.799  0.1650  0.3464  0.6707
  102OSM    H7S10315   1.921   2.949   9.799 -1.1791 -0.2109  0.5910
  102OSM    H7T10316   1.894   2.778   9.850 -0.8145  0.7799 -0.0484
  102OSM    C8S10317   1.976   2.803   9.652 -0.3633 -0.0148 -0.2715
  102OSM    H8S10318   2.058   2.732   9.632 -1.2490 -0.9591 -0.6432
  102OSM    H8T10319   2.018   2.889   9.595 -1.5478 -0.3244 -1.6720
  102OSM    C9S10320   1.843   2.755   9.587 -0.1821  0.4516  0.0686
  102OSM    H9S10321   1.768   2.837   9.593  1.0539  1.7204 -1.0363
  102OSM    H9T10322   1.799   2.668   9.642 -1.2405  2.1825  2.1196
  102OSM   C10S10323   1.863   2.714   9.438  0.6427 -0.8740 -0.3964
  102OSM   H10S10324   1.927   2.623   9.438  1.9387  0.0129  0.4473
  102OSM   H10T10325   1.920   2.791   9.383  0.8622 -1.3657 -0.8723
  102OSM   C11S10326   1.735   2.688   9.352 -0.1154  0.1512 -0.3716
  102OSM   H11S10327   1.770   2.676   9.247 -1.0430  3.0569 -1.1243
  102OSM   H11T10328   1.672   2.780   9.348  0.8559  0.9010  0.9902
  102OSM   C12S10329   1.661   2.565   9.413  0.1902 -0.5121  0.7697
  102OSM   H12S10330   1.663   2.576   9.523  0.1076 -1.2677  0.8491
  102OSM   H12T10331   1.725   2.480   9.380  0.6164 -0.0558  0.3776
  102OSM   C13S10332   1.515   2.536   9.367  0.5352  0.2215  0.7631
  102OSM   H13S10333   1.510   2.551   9.257  1.1811 -1.6519  0.4343
  102OSM   H13T10334   1.455   2.611   9.422  0.8520  1.1741 -0.1493
  102OSM   C14S10335   1.462   2.393   9.401  0.0973 -0.0468  0.2756
  102OSM   H14S10336   1.361   2.383   9.357 -0.0570  2.0280  0.0561
  102OSM   H14T10337   1.456   2.386   9.512  4.1737  0.5230  0.7075
  102OSM   C15S10338   1.527   2.266   9.341 -0.0182 -0.4750  0.8614
  102OSM   H15S10339   1.636   2.268   9.358 -0.0679 -2.3346  1.6184
  102OSM   H15T10340   1.514   2.271   9.231  0.4643  1.8461  0.8612
  102OSM   C16S10341   1.463   2.140   9.396 -0.2218  0.7596 -0.4771
  102OSM   H16S10342   1.353   2.138   9.382 -0.3730  3.4952 -0.1744
  102OSM   H16T10343   1.486   2.129   9.505 -0.5654 -3.6606 -0.6724
  102OSM   C17S10344   1.519   2.017   9.323  0.0725 -0.1445 -0.3807
  102OSM   H17S10345   1.629   2.032   9.315  0.6104 -2.9371  0.6830
  102OSM   H17T10346   1.477   2.014   9.220  0.5473  0.0736 -0.5843
  102OSM   C18S10347   1.490   1.893   9.396 -0.0625 -0.4045 -0.8864
  102OSM   H18S10348   1.516   1.798   9.343 -3.2588 -0.9823 -1.6275
  102OSM   H18T10349   1.381   1.890   9.416 -0.0008 -1.2900 -0.6191
  102OSM   H18U10350   1.540   1.899   9.495  0.4419  0.5743 -1.1943
  102OSM    C1F10351   1.820   3.204  10.218  0.1601 -0.1664 -0.7307
  102OSM     OF10352   1.862   3.313  10.245 -0.3611  0.2277  0.4724
  102OSM    C2F10353   1.677   3.180  10.192 -0.4143 -0.2112 -0.1228
  102OSM    H2F10354   1.629   3.126  10.276 -0.9759 -2.1508 -1.6267
  102OSM    H2G10355   1.680   3.113  10.103 -0.9783 -0.5572  0.1163
  102OSM    C3F10356   1.594   3.302  10.180 -0.0590 -0.5363 -0.2353
  102OSM    H3F10357   1.637   3.380  10.113 -1.6203 -0.2048 -0.9026
  102OSM    H3G10358   1.587   3.357  10.276  0.1798 -1.2764  0.2104
  102OSM    C4F10359   1.457   3.279  10.112  0.0768 -0.4084 -0.3749
  102OSM    H4F10360   1.397   3.219  10.183 -0.4638 -0.9014 -1.2393
  102OSM    H4G10361   1.472   3.208  10.028  0.6559 -1.0231  0.2368
  102OSM    C5F10362   1.389   3.410  10.074 -0.0721 -0.1708 -0.3185
  102OSM    H5F10363   1.391   3.490  10.151  0.7134  1.5217 -2.0025
  102OSM    H5G10364   1.278   3.396  10.070 -0.2032  0.7237 -0.1833
  102OSM    C6F10365   1.425   3.482   9.938 -0.6405  0.0869 -0.3299
  102OSM    H6F10366   1.433   3.411   9.854  0.5814 -0.4175  0.1925
  102OSM    H6G10367   1.525   3.530   9.950 -0.2600 -1.0196  1.1182
  102OSM    C7F10368   1.343   3.606   9.906 -0.9604  0.5914 -0.0010
  102OSM    H7F10369   1.338   3.683   9.987 -0.9246  0.2834  0.2967
  102OSM    H7G10370   1.236   3.587   9.886 -1.3904  0.9081  1.8487
  102OSM    C8F10371   1.399   3.667   9.771  0.3308 -0.5017  0.0379
  102OSM    H8F10372   1.398   3.582   9.700 -1.2411 -1.9022  1.6176
  102OSM    H8G10373   1.507   3.689   9.790  0.1672 -0.5358  1.1004
  102OSM    C9F10374   1.329   3.788   9.718 -0.1599  0.0415 -0.6737
  102OSM    H9F10375   1.296   3.853   9.799  1.6722 -2.8386  2.6527
  102OSM   C10F10376   1.321   3.813   9.592  0.5674 -0.0495  0.0691
  102OSM   H10F10377   1.249   3.893   9.570  0.0668  0.0772  1.9866
  102OSM   C11F10378   1.367   3.732   9.470  0.3347  0.3279  0.3065
  102OSM   H11F10379   1.413   3.637   9.505 -1.6123 -1.0398 -0.6812
  102OSM   H11G10380   1.448   3.784   9.415 -0.2244  0.6387 -0.2383
  102OSM   C12F10381   1.253   3.717   9.365  0.1537  0.0651 -0.3044
  102OSM   H12F10382   1.200   3.812   9.343  0.4233  0.7838  1.9098
  102OSM   H12G10383   1.159   3.663   9.386 -0.9570  1.8700 -0.4366
  102OSM   C13F10384   1.293   3.650   9.230  0.4807  0.0139 -0.0358
  102OSM   H13F10385   1.319   3.542   9.241  0.2804 -0.1747 -1.2817
  102OSM   H13G10386   1.390   3.690   9.195  1.1262 -1.1055  0.4030
  102OSM   C14F10387   1.202   3.662   9.109  0.3909  0.2870  0.4090
  102OSM   H14F10388   1.178   3.770   9.098  0.6851  0.1640 -1.8305
  102OSM   H14G10389   1.104   3.615   9.130  0.5407 -0.1984  0.0448
  102OSM   C15F10390   1.282   3.625   8.983  0.0020 -0.2173 -0.2483
  102OSM   H15F10391   1.388   3.642   9.008  0.1028 -0.2656 -0.6394
  102OSM   H15G10392   1.263   3.684   8.891  0.5738  1.1263  0.4796
  102OSM   C16F10393   1.288   3.470   8.940  0.8660  0.5057 -0.2258
  102OSM   H16F10394   1.295   3.405   9.030 -0.1732  0.0780 -0.4319
  102OSM   H16G10395   1.379   3.461   8.878  0.7652 -0.8356 -0.2018
  102OSM   C17F10396   1.172   3.426   8.851 -0.0738  1.0982 -0.0642
  102OSM   H17F10397   1.176   3.494   8.763 -1.2670 -1.5768 -2.3435
  102OSM   H17G10398   1.081   3.450   8.909  0.3738  0.4558  0.9389
  102OSM   C18F10399   1.186   3.287   8.791  0.0258 -0.0658  0.1376
  102OSM   H18F10400   1.160   3.218   8.874 -0.7751  0.1547  0.0816
  102OSM   H18G10401   1.287   3.266   8.748 -0.4055  0.1090 -1.0053
  102OSM   H18H10402   1.105   3.257   8.722 -2.0378 -0.5045  2.6160
  103OSM      N10403   3.679   5.525  10.916  0.4081 -0.3475 -0.5718
  103OSM    C1510404   3.767   5.595  11.012 -1.4263  0.4579  0.2113
  103OSM   H15A10405   3.778   5.532  11.099  0.5415 -2.4977 -1.9563
  103OSM   H15B10406   3.732   5.694  11.039  0.6966  1.2790  0.1038
  103OSM   H15C10407   3.867   5.604  10.974 -0.8614 -1.3842  1.1317
  103OSM    C1410408   3.552   5.499  10.993  0.4104  0.0650  0.6825
  103OSM   H14A10409   3.556   5.414  11.061 -0.1316 -1.5737 -1.2191
  103OSM   H14B10410   3.473   5.469  10.925  2.4957 -0.5465 -1.5954
  103OSM   H14C10411   3.515   5.588  11.041  0.2607  0.7457 -0.6679
  103OSM    C1310412   3.633   5.621  10.805  0.5703  0.6219  0.2517
  103OSM   H13A10413   3.716   5.646  10.740 -0.7389  0.9815 -1.3280
  103OSM   H13B10414   3.595   5.713  10.845  1.4486  0.9891  0.2707
  103OSM   H13C10415   3.560   5.579  10.738 -0.0908 -0.5877  1.6606
  103OSM    C1210416   3.738   5.396  10.855 -0.1283 -0.1233 -0.3521
  103OSM   H12A10417   3.820   5.435  10.798 -0.0039  1.2967  0.7364
  103OSM   H12B10418   3.663   5.348  10.794 -0.7879  1.2397 -0.6564
  103OSM    C1110419   3.792   5.295  10.947 -0.2661 -1.0666 -0.2347
  103OSM   H11A10420   3.885   5.341  10.987 -1.4850  2.5407 -1.1880
  103OSM   H11B10421   3.815   5.221  10.867  2.6525  0.6274 -1.1157
  103OSM      P10422   3.595   5.145  11.016 -0.0647 -0.6187 -0.3855
  103OSM    O1310423   3.644   5.012  11.047 -0.2517  0.2889  0.4572
  103OSM    O1410424   3.473   5.184  11.085 -0.5720  0.2680 -0.0087
  103OSM    O1110425   3.579   5.163  10.866 -0.2682 -0.2481  0.2278
  103OSM    O1210426   3.709   5.254  11.051  0.3822  0.2051 -0.2676
  103OSM    C1S10427   3.457   5.192  10.807 -0.2956  0.1665  0.4253
  103OSM    H1S10428   3.418   5.290  10.840  0.7233  0.5178  0.6149
  103OSM    H1T10429   3.381   5.113  10.826  3.0227 -2.7192  3.0285
  103OSM     NF10430   3.347   5.246  10.602 -0.5724 -0.3170  0.1776
  103OSM    HNF10431   3.280   5.177  10.575 -1.8113  1.3000 -1.1656
  103OSM    C2S10432   3.473   5.202  10.654 -0.7003 -0.2363  0.7478
  103OSM    H2S10433   3.553   5.274  10.628  0.7733 -1.8619  0.5599
  103OSM    C3S10434   3.520   5.066  10.596  0.2362 -0.3231  0.5452
  103OSM    H3S10435   3.438   4.999  10.629  0.0309 -1.1475 -1.4985
  103OSM     O310436   3.646   5.026  10.650 -0.1637 -0.0363 -0.2797
  103OSM    HO310437   3.659   5.085  10.725 -0.4967 -1.5942  1.0450
  103OSM    C4S10438   3.522   5.064  10.444  0.6217  0.8670  0.3137
  103OSM    H4S10439   3.417   5.043  10.418  1.0170 -0.1823 -0.5005
  103OSM    C5S10440   3.618   5.090  10.355  0.8085  0.0193  0.0891
  103OSM    H5S10441   3.720   5.117  10.386  1.1481 -0.8276 -0.2441
  103OSM    C6S10442   3.597   5.071  10.207 -0.3524 -0.3457 -0.3429
  103OSM    H6S10443   3.601   5.165  10.148  1.3709 -2.0935 -3.2262
  103OSM    H6T10444   3.498   5.027  10.181 -0.2984 -0.9757  0.4698
  103OSM    C7S10445   3.709   4.980  10.159  0.3214  0.2377 -0.6258
  103OSM    H7S10446   3.719   4.886  10.216  0.5265 -0.4083 -1.7056
  103OSM    H7T10447   3.805   5.036  10.159  0.7351 -0.4427  0.3151
  103OSM    C8S10448   3.691   4.923  10.016 -0.5598 -0.7035 -1.0174
  103OSM    H8S10449   3.611   4.847  10.007 -0.5147 -1.1256  1.3726
  103OSM    H8T10450   3.788   4.870  10.001  0.2531 -0.1465  1.7020
  103OSM    C9S10451   3.671   5.039   9.911 -0.3640  0.7309  0.0982
  103OSM    H9S10452   3.761   5.103   9.920  0.7110 -0.7408 -0.0305
  103OSM    H9T10453   3.575   5.094   9.926 -1.6870 -1.1210 -1.1060
  103OSM   C10S10454   3.661   4.986   9.768  0.1351  0.1594 -0.2105
  103OSM   H10S10455   3.606   4.889   9.766 -1.2895  0.9261  0.8148
  103OSM   H10T10456   3.766   4.962   9.739  0.3852  0.0097  0.7742
  103OSM   C11S10457   3.593   5.076   9.665 -0.5067  0.0588 -0.2212
  103OSM   H11S10458   3.647   5.173   9.678  1.3858 -1.0242  0.4607
  103OSM   H11T10459   3.484   5.091   9.678 -0.3194  0.2055  1.4080
  103OSM   C12S10460   3.599   5.012   9.521 -1.0129  0.3232  0.0219
  103OSM   H12S10461   3.549   4.915   9.505 -1.9895  0.7859  0.2303
  103OSM   H12T10462   3.707   5.001   9.497 -1.4377 -2.1367 -1.0049
  103OSM   C13S10463   3.545   5.115   9.416  0.0717  0.0356 -0.0411
  103OSM   H13S10464   3.618   5.198   9.407  0.8471 -0.6112  0.1537
  103OSM   H13T10465   3.459   5.171   9.459  1.4492  1.5391  0.8831
  103OSM   C14S10466   3.502   5.062   9.278 -0.5995  0.2678  0.3989
  103OSM   H14S10467   3.410   5.002   9.294 -0.3638  0.3610  2.3886
  103OSM   H14T10468   3.585   4.997   9.244  1.7010  2.7205  0.9485
  103OSM   C15S10469   3.482   5.178   9.177  0.0268 -0.3755 -0.0402
  103OSM   H15S10470   3.571   5.244   9.182 -0.1444 -0.2330  3.6407
  103OSM   H15T10471   3.400   5.242   9.216 -2.1859 -2.0490 -1.7109
  103OSM   C16S10472   3.436   5.151   9.031  0.1572 -0.2760 -0.5658
  103OSM   H16S10473   3.327   5.131   9.031 -0.1103  1.0369 -1.4797
  103OSM   H16T10474   3.494   5.057   9.013  0.8258 -0.2738  1.3465
  103OSM   C17S10475   3.467   5.259   8.925  0.7495 -0.3674  0.2955
  103OSM   H17S10476   3.571   5.295   8.941  1.3796 -1.6317 -0.8049
  103OSM   H17T10477   3.398   5.344   8.948  0.2915 -0.2480 -1.3516
  103OSM   C18S10478   3.433   5.223   8.787 -0.1481 -1.0698  0.5679
  103OSM   H18S10479   3.515   5.166   8.737 -0.6696 -1.5035  0.1916
  103OSM   H18T10480   3.400   5.310   8.726  1.1223  0.2986  1.7431
  103OSM   H18U10481   3.344   5.158   8.777 -1.9236  1.1246  1.3887
  103OSM    C1F10482   3.303   5.369  10.602 -0.5821 -0.1984 -0.8411
  103OSM     OF10483   3.370   5.457  10.656  0.3291  0.0666  0.0282
  103OSM    C2F10484   3.166   5.402  10.547 -0.1818 -0.5247  0.1313
  103OSM    H2F10485   3.090   5.429  10.623 -0.6744  0.9373 -0.8261
  103OSM    H2G10486   3.120   5.314  10.497  0.4922 -0.4183 -0.6929
  103OSM    C3F10487   3.176   5.521  10.443 -0.3961  0.6728 -0.5499
  103OSM    H3F10488   3.204   5.613  10.498  0.5348 -0.5470  1.1124
  103OSM    H3G10489   3.079   5.553  10.399 -2.1428 -1.7201  1.2566
  103OSM    C4F10490   3.286   5.492  10.334  0.1778 -0.4945  0.5847
  103OSM    H4F10491   3.385   5.481  10.382  1.2160  1.8475 -0.8167
  103OSM    H4G10492   3.285   5.576  10.260  0.6167  1.2134  2.4354
  103OSM    C5F10493   3.267   5.366  10.248 -0.0915  0.1308  0.0656
  103OSM    H5F10494   3.160   5.373  10.220 -0.4783  1.9918  1.7939
  103OSM    H5G10495   3.282   5.266  10.295  1.1420 -0.4285 -1.4492
  103OSM    C6F10496   3.356   5.357  10.127 -0.4081 -0.6474  0.3822
  103OSM    H6F10497   3.465   5.345  10.139 -0.6810 -2.1946  1.5948
  103OSM    H6G10498   3.342   5.455  10.076 -0.4445  0.6147  2.6931
  103OSM    C7F10499   3.324   5.240  10.034  0.0367  0.5530  0.0801
  103OSM    H7F10500   3.355   5.146  10.083  0.0298 -0.9925 -2.6684
  103OSM    H7G10501   3.381   5.247   9.939 -1.9367 -0.6364 -1.2778
  103OSM    C8F10502   3.177   5.233   9.994 -0.6157  0.1489  0.1254
  103OSM    H8F10503   3.116   5.234  10.087 -0.3198 -1.2240  0.3661
  103OSM    H8G10504   3.158   5.128   9.960  1.6932 -0.5295  0.7395
  103OSM    C9F10505   3.140   5.336   9.888 -0.0765 -0.0599  0.2030
  103OSM    H9F10506   3.137   5.438   9.930  0.1182 -0.1292  0.3865
  103OSM   C10F10507   3.120   5.324   9.762  0.1080  0.0178  0.9494
  103OSM   H10F10508   3.077   5.412   9.712 -0.5231  0.4564  2.2108
  103OSM   C11F10509   3.137   5.195   9.680  0.3803 -0.0426 -0.5132
  103OSM   H11F10510   3.059   5.119   9.704 -0.8393  1.1726 -0.4765
  103OSM   H11G10511   3.230   5.141   9.708  0.3466  0.7729  1.3279
  103OSM   C12F10512   3.153   5.216   9.529  0.2025  0.4845  0.0612
  103OSM   H12F10513   3.182   5.115   9.491 -0.2716 -0.5976  2.3688
  103OSM   H12G10514   3.241   5.279   9.506  0.8817 -0.4139  0.1185
  103OSM   C13F10515   3.038   5.266   9.443  0.2816  0.3327 -0.5049
  103OSM   H13F10516   2.970   5.184   9.416 -0.0634  0.9104 -1.4199
  103OSM   H13G10517   2.978   5.336   9.505 -0.5425 -0.8366  0.0548
  103OSM   C14F10518   3.086   5.327   9.306 -0.8060 -0.4719 -0.0573
  103OSM   H14F10519   3.159   5.253   9.268  0.5667  0.9646 -0.3182
  103OSM   H14G10520   3.148   5.418   9.323 -1.2287 -0.4748  1.6748
  103OSM   C15F10521   2.978   5.349   9.195 -0.5882  0.0849  0.1072
  103OSM   H15F10522   2.902   5.426   9.218 -1.6944 -1.1518  0.7488
  103OSM   H15G10523   2.929   5.250   9.179 -1.0308  0.0704  1.4970
  103OSM   C16F10524   3.035   5.391   9.056  0.6686  0.2325 -0.0960
  103OSM   H16F10525   3.122   5.329   9.026 -0.9661 -0.3239 -4.3424
  103OSM   H16G10526   3.071   5.491   9.087  1.0707  0.1222 -0.2050
  103OSM   C17F10527   2.941   5.396   8.941  0.4198  0.1741  0.7951
  103OSM   H17F10528   2.844   5.446   8.964 -0.9658 -1.6202 -0.8610
  103OSM   H17G10529   2.915   5.292   8.913 -1.9567  1.4052 -2.2935
  103OSM   C18F10530   2.992   5.479   8.819  0.2359 -0.3378  0.4414
  103OSM   H18F10531   2.917   5.474   8.738 -0.2992  0.5772  0.8629
  103OSM   H18G10532   3.093   5.450   8.783  0.5086  0.1045  0.8335
  103OSM   H18H10533   3.007   5.584   8.851  0.0283  0.4155 -1.7740
  104OSM      N10534   0.291   5.135  10.916 -0.0603  0.0980  0.3105
  104OSM    C1510535   0.173   5.233  10.938 -0.9149 -0.3777 -0.2726
  104OSM   H15A10536   0.126   5.255  10.844 -1.8395 -1.5950 -0.1253
  104OSM   H15B10537   0.219   5.316  10.989 -0.0176 -1.3831  0.6136
  104OSM   H15C10538   0.098   5.200  11.008 -0.9148  3.7051  1.9707
  104OSM    C1410539   0.415   5.217  10.940  0.7069 -0.3300 -0.2644
  104OSM   H14A10540   0.511   5.175  10.912  1.5471  1.7684 -0.7882
  104OSM   H14B10541   0.423   5.252  11.042  0.6296  1.0580 -0.7155
  104OSM   H14C10542   0.401   5.313  10.892  0.4864  0.6285  1.6054
  104OSM    C1310543   0.278   5.033  11.022  0.0381  0.1352 -0.0550
  104OSM   H13A10544   0.369   4.976  11.032 -1.1163 -1.5760  1.2108
  104OSM   H13B10545   0.194   4.967  11.004 -1.2399  1.9372 -1.0401
  104OSM   H13C10546   0.259   5.080  11.117  1.9922 -0.3007  0.5859
  104OSM    C1210547   0.299   5.082  10.774  0.0132  0.0271  0.9359
  104OSM   H12A10548   0.218   5.013  10.754  1.0631 -1.0874  0.3726
  104OSM   H12B10549   0.385   5.019  10.760 -0.9239 -1.3440  1.1261
  104OSM    C1110550   0.297   5.182  10.653 -0.4271 -0.1101 -0.0425
  104OSM   H11A10551   0.295   5.124  10.559 -0.2923  1.9340 -1.3715
  104OSM   H11B10552   0.397   5.229  10.658 -0.5500  0.0429  2.1178
  104OSM      P10553   0.063   5.269  10.566  0.1110 -0.0534  0.3365
  104OSM    O1310554   0.010   5.138  10.605 -0.7093  0.0011  0.3622
  104OSM    O1410555  -0.017   5.388  10.598 -0.1517  0.0917  0.2925
  104OSM    O1110556   0.117   5.266  10.416 -0.2248 -0.4891 -0.0848
  104OSM    O1210557   0.197   5.285  10.648 -0.2044  0.0157  0.7914
  104OSM    C1S10558   0.190   5.378  10.374 -0.2520 -0.6280  0.0239
  104OSM    H1S10559   0.296   5.349  10.394  0.2498  0.4228 -0.9721
  104OSM    H1T10560   0.170   5.470  10.432  0.1963 -0.1920 -0.4943
  104OSM     NF10561   0.283   5.502  10.175  0.2025  0.6275  0.5080
  104OSM    HNF10562   0.253   5.597  10.183 -1.0518  0.2516  0.3685
  104OSM    C2S10563   0.180   5.410  10.221 -0.8819 -0.5768 -0.1614
  104OSM    H2S10564   0.183   5.313  10.168  0.1665 -1.2783  1.1293
  104OSM    C3S10565   0.038   5.464  10.198  0.3953 -0.2341 -0.2610
  104OSM    H3S10566   0.040   5.556  10.260  0.9836  0.6984 -1.6404
  104OSM     O310567  -0.057   5.368  10.252 -0.1746 -0.2825  0.0493
  104OSM    HO310568  -0.010   5.330  10.326 -0.4381 -0.9055 -0.0915
  104OSM    C4S10569   0.032   5.487  10.057  0.1245 -0.5197 -0.1755
  104OSM    H4S10570   0.102   5.568  10.030  1.8568 -2.0846 -0.5307
  104OSM    C5S10571  -0.032   5.412   9.962  0.2035 -0.3748 -0.1102
  104OSM    H5S10572  -0.084   5.322   9.998 -0.2899  0.2583  0.8178
  104OSM    C6S10573  -0.035   5.446   9.817 -0.2604 -0.2577 -0.2899
  104OSM    H6S10574  -0.004   5.551   9.797 -1.0937  0.2897  1.1435
  104OSM    H6T10575  -0.134   5.427   9.772  0.2161 -0.7419 -1.1596
  104OSM    C7S10576   0.061   5.347   9.741  0.6524  0.1824 -1.0347
  104OSM    H7S10577   0.045   5.239   9.759  3.8919 -0.4763 -1.4082
  104OSM    H7T10578   0.165   5.377   9.768  0.0031  0.5950  1.1618
  104OSM    C8S10579   0.043   5.366   9.588  0.2686 -0.0645  0.5347
  104OSM    H8S10580   0.070   5.470   9.559  0.5524 -1.0739 -3.2713
  104OSM    H8T10581  -0.065   5.357   9.567  0.3820  0.4181 -0.2873
  104OSM    C9S10582   0.133   5.284   9.499  0.6173  0.0411  0.4785
  104OSM    H9S10583   0.118   5.174   9.506  1.4659 -0.1393 -0.1811
  104OSM    H9T10584   0.234   5.296   9.545  1.3751 -0.2918 -1.0062
  104OSM   C10S10585   0.120   5.326   9.351 -0.2403 -0.2301  0.1566
  104OSM   H10S10586   0.223   5.331   9.308 -1.6265 -0.5774 -3.5500
  104OSM   H10T10587   0.077   5.428   9.352  0.0847 -0.0639  2.1701
  104OSM   C11S10588   0.032   5.237   9.266 -0.1896  0.3017  0.4259
  104OSM   H11S10589  -0.067   5.241   9.315 -0.2295  0.5822  0.3223
  104OSM   H11T10590   0.075   5.135   9.254  1.1822  1.0147 -1.2220
  104OSM   C12S10591  -0.001   5.300   9.135  0.4418 -0.3263 -1.0050
  104OSM   H12S10592   0.089   5.342   9.084 -0.5160  2.2623 -0.7301
  104OSM   H12T10593  -0.074   5.380   9.159 -0.3323 -1.2927 -0.0944
  104OSM   C13S10594  -0.060   5.201   9.041  0.1273  0.6853 -1.0255
  104OSM   H13S10595  -0.104   5.252   8.953 -1.7174 -0.1096 -0.6253
  104OSM   H13T10596  -0.140   5.136   9.083  1.1451  0.4677  0.6695
  104OSM   C14S10597   0.041   5.096   8.994  0.0080 -0.7497  0.3094
  104OSM   H14S10598   0.054   5.012   9.065  0.4010 -0.0885  1.0336
  104OSM   H14T10599   0.137   5.149   8.983 -0.3026 -0.6832 -3.1614
  104OSM   C15S10600   0.010   5.039   8.853  0.5175  0.1593  0.7169
  104OSM   H15S10601   0.026   5.114   8.772  3.4621 -2.1878 -1.0858
  104OSM   H15T10602  -0.100   5.026   8.853  0.1736  2.4613 -0.4288
  104OSM   C16S10603   0.089   4.903   8.819  0.5349 -0.4874 -0.8316
  104OSM   H16S10604   0.054   4.826   8.891  1.6719  0.4280  0.7873
  104OSM   H16T10605   0.197   4.910   8.843  0.5375  1.9218 -1.3292
  104OSM   C17S10606   0.073   4.851   8.671 -0.0584  1.0308 -0.9091
  104OSM   H17S10607  -0.035   4.854   8.643  0.0957 -3.0608 -2.6632
  104OSM   H17T10608   0.098   4.744   8.658 -2.0626  0.2130  1.2450
  104OSM   C18S10609   0.144   4.940   8.567 -0.3489  0.3955  0.4062
  104OSM   H18S10610   0.123   4.899   8.466  1.2169  1.5061 -0.4209
  104OSM   H18T10611   0.254   4.935   8.584 -0.5537  0.9856  2.0931
  104OSM   H18U10612   0.113   5.046   8.577 -1.6737  0.1545 -0.8318
  104OSM    C1F10613   0.406   5.471  10.158 -0.5373  1.3402  0.2241
  104OSM     OF10614   0.448   5.369  10.210  0.1990 -0.2321 -0.2756
  104OSM    C2F10615   0.503   5.563  10.107 -0.0314 -0.2257  0.2369
  104OSM    H2F10616   0.589   5.552  10.177  1.6807  0.5354 -1.6275
  104OSM    H2G10617   0.457   5.663  10.098  0.9032  0.0939 -1.4514
  104OSM    C3F10618   0.545   5.531   9.964  0.2094 -0.7236 -0.1785
  104OSM    H3F10619   0.596   5.432   9.963  0.9627 -0.3413 -1.2368
  104OSM    H3G10620   0.626   5.599   9.930 -0.5315 -0.7830 -2.1724
  104OSM    C4F10621   0.426   5.540   9.864 -0.3121  1.1283 -0.3638
  104OSM    H4F10622   0.366   5.631   9.885 -1.0865  0.5930 -0.2105
  104OSM    H4G10623   0.358   5.452   9.877 -0.6551  0.9460 -2.8766
  104OSM    C5F10624   0.464   5.536   9.717  0.0508  0.8919  0.0441
  104OSM    H5F10625   0.531   5.623   9.698  0.2312  0.8637  0.5505
  104OSM    H5G10626   0.376   5.519   9.652  0.0397 -0.1487  0.3197
  104OSM    C6F10627   0.553   5.419   9.676  0.4431 -0.0846 -0.1941
  104OSM    H6F10628   0.503   5.320   9.677  0.8737 -0.3438 -1.4776
  104OSM    H6G10629   0.646   5.421   9.736  1.8846  0.1446 -2.3050
  104OSM    C7F10630   0.610   5.433   9.524  0.1436 -0.2573  0.2697
  104OSM    H7F10631   0.699   5.367   9.516  0.8542  0.8887 -3.0004
  104OSM    H7G10632   0.645   5.537   9.507  0.0167 -0.5231 -1.9487
  104OSM    C8F10633   0.509   5.405   9.415  0.1784  0.4526  0.2138
  104OSM    H8F10634   0.415   5.464   9.425  1.1290  2.3126 -1.2178
  104OSM    H8G10635   0.483   5.298   9.406  1.9647  0.1902 -3.7942
  104OSM    C9F10636   0.562   5.472   9.289  0.3086  0.5266  0.1455
  104OSM    H9F10637   0.596   5.575   9.310  1.1749 -0.0540  1.7534
  104OSM   C10F10638   0.575   5.431   9.166  0.1240  0.3711  0.7118
  104OSM   H10F10639   0.632   5.504   9.106  0.7474 -0.1731  0.6296
  104OSM   C11F10640   0.526   5.291   9.119  0.7052 -0.9086 -0.3003
  104OSM   H11F10641   0.506   5.225   9.206  1.7238 -0.3471  0.3821
  104OSM   H11G10642   0.602   5.248   9.050  1.7792  1.9992 -1.0893
  104OSM   C12F10643   0.392   5.290   9.040 -0.0906  0.0509 -0.4398
  104OSM   H12F10644   0.311   5.338   9.098 -0.2185  0.2973 -0.8156
  104OSM   H12G10645   0.368   5.182   9.027  0.3022  0.2706 -4.3961
  104OSM   C13F10646   0.417   5.340   8.899  0.4780 -0.5471  0.1661
  104OSM   H13F10647   0.499   5.277   8.857  0.7828 -0.1188  0.1121
  104OSM   H13G10648   0.451   5.445   8.901  1.7198 -0.8381 -1.8634
  104OSM   C14F10649   0.293   5.353   8.809  0.9179 -0.0887 -1.1733
  104OSM   H14F10650   0.209   5.393   8.871  1.4913 -1.9867  0.9510
  104OSM   H14G10651   0.259   5.251   8.781  0.4641 -0.1197 -0.5520
  104OSM   C15F10652   0.303   5.439   8.686 -0.2352  0.3246  0.2617
  104OSM   H15F10653   0.316   5.542   8.724  0.5814  0.6702 -0.9004
  104OSM   H15G10654   0.205   5.436   8.633 -0.8489  0.6706  1.3433
  104OSM   C16F10655   0.413   5.412   8.584 -0.0449 -0.4637 -0.2100
  104OSM   H16F10656   0.494   5.357   8.636 -0.9374 -0.5931  1.1126
  104OSM   H16G10657   0.449   5.505   8.537  0.6671 -1.0126 -0.7719
  104OSM   C17F10658   0.361   5.325   8.477  0.7833 -0.5083  0.6089
  104OSM   H17F10659   0.275   5.370   8.423 -0.4537 -1.0459  2.0741
  104OSM   H17G10660   0.329   5.229   8.521 -2.8986 -0.2153 -1.0496
  104OSM   C18F10661   0.471   5.276   8.383 -0.7571 -0.6728 -0.1316
  104OSM   H18F10662   0.548   5.216   8.436 -0.5787  0.3068  0.7612
  104OSM   H18G10663   0.522   5.359   8.328  2.3336 -2.5605 -0.3950
  104OSM   H18H10664   0.428   5.213   8.302  1.3851 -0.9519 -1.1354
  105OSM      N10665   6.305   4.139  10.638  0.1009  0.1950  0.1470
  105OSM    C1510666   6.173   4.152  10.576 -0.0746 -0.5546  0.4873
  105OSM   H15A10667   6.096   4.134  10.650 -1.9356  0.8893 -0.9894
  105OSM   H15B10668   6.166   4.085  10.492  0.0921  0.6486 -0.5177
  105OSM   H15C10669   6.155   4.253  10.540 -1.8071 -0.5825  1.1620
  105OSM    C1410670   6.303   4.008  10.713  0.7783 -0.2974 -0.3321
  105OSM   H14A10671   6.235   4.014  10.796  1.5436 -0.3065  0.3107
  105OSM   H14B10672   6.400   3.985  10.756  0.9559 -0.2351 -0.6875
  105OSM   H14C10673   6.272   3.927  10.649  1.9595 -0.9174 -0.1557
  105OSM    C1310674   6.411   4.134  10.532 -0.2539 -0.2852 -0.1214
  105OSM   H13A10675   6.384   4.049  10.472  1.3333  1.3353 -3.3560
  105OSM   H13B10676   6.502   4.125  10.589 -0.2557  1.2468  0.1672
  105OSM   H13C10677   6.407   4.233  10.489 -0.6811  0.7633  2.1411
  105OSM    C1210678   6.335   4.252  10.737 -0.1190 -0.4925 -0.2164
  105OSM   H12A10679   6.428   4.229  10.786  1.1182  2.0191 -1.1946
  105OSM   H12B10680   6.252   4.245  10.806 -0.3403 -1.7655 -0.5794
  105OSM    C1110681   6.342   4.398  10.684  0.8114 -0.2801 -0.3170
  105OSM   H11A10682   6.313   4.464  10.769  1.0313 -1.8159  0.9809
  105OSM   H11B10683   6.263   4.414  10.607 -1.0035  0.1377  1.5297
  105OSM      P10684   6.590   4.451  10.729 -0.3303 -0.1922 -0.1611
  105OSM    O1310685   6.575   4.586  10.785  0.2437 -0.0512  0.0265
  105OSM    O1410686   6.604   4.347  10.832  0.0444  0.1093  0.6340
  105OSM    O1110687   6.712   4.460  10.629 -0.1693 -0.0252  0.5902
  105OSM    O1210688   6.471   4.425  10.634 -0.3268 -0.2390  0.3025
  105OSM    C1S10689   6.755   4.343  10.562 -0.8235  0.5333 -0.5013
  105OSM    H1S10690   6.675   4.270  10.539 -0.0109 -0.2481 -0.9194
  105OSM    H1T10691   6.836   4.297  10.623 -0.8613  1.4773  0.3021
  105OSM     NF10692   6.831   4.260  10.325 -0.0951 -0.2142 -0.3552
  105OSM    HNF10693   6.920   4.218  10.306  0.5888  0.1092  1.7682
  105OSM    C2S10694   6.824   4.376  10.424 -0.0956  0.6890 -0.2692
  105OSM    H2S10695   6.760   4.454  10.377  0.6100  1.7836  0.5428
  105OSM    C3S10696   6.966   4.439  10.444  0.0660  0.7978  0.4349
  105OSM    H3S10697   7.036   4.365  10.488  0.8293  0.6916 -0.8910
  105OSM     O310698   6.969   4.535  10.539  0.0158 -0.2923  0.0325
  105OSM    HO310699   6.886   4.514  10.584  0.1711 -0.3521  0.2935
  105OSM    C4S10700   7.026   4.481  10.310  0.0812  0.6699 -0.0603
  105OSM    H4S10701   7.091   4.402  10.270  0.8406 -0.9444  3.8942
  105OSM    C5S10702   7.012   4.607  10.261 -0.3909  0.0855  0.8552
  105OSM    H5S10703   6.955   4.677  10.323  0.4572  2.7552 -1.2003
  105OSM    C6S10704   7.071   4.668  10.141 -0.4885 -0.0273  0.0912
  105OSM    H6S10705   7.145   4.746  10.170  1.8657 -1.2564 -2.1353
  105OSM    H6T10706   6.986   4.696  10.076  0.4740  1.8276 -0.4154
  105OSM    C7S10707   7.160   4.578  10.056 -0.2062 -0.2829 -0.2285
  105OSM    H7S10708   7.229   4.530  10.129 -0.9772 -1.3180 -0.1507
  105OSM    H7T10709   7.232   4.625   9.986  0.4829 -0.6990  0.1929
  105OSM    C8S10710   7.086   4.463   9.992  0.4691  0.3297  0.9637
  105OSM    H8S10711   7.001   4.423  10.051  0.7034  0.3520  1.3209
  105OSM    H8T10712   7.158   4.381   9.975  2.9800  2.3761  1.1536
  105OSM    C9S10713   7.050   4.499   9.844  0.2939  0.2805  0.9243
  105OSM    H9S10714   7.135   4.546   9.791 -0.1174  2.3306  1.9969
  105OSM    H9T10715   6.974   4.580   9.853 -1.7519 -1.5164  0.8744
  105OSM   C10S10716   7.002   4.383   9.762  0.1161 -0.1930 -0.1643
  105OSM   H10S10717   6.926   4.335   9.827  0.0932  1.3541  1.0036
  105OSM   H10T10718   7.076   4.302   9.742  1.9955  1.1853  0.8898
  105OSM   C11S10719   6.936   4.427   9.631  0.2955  0.4795  0.0754
  105OSM   H11S10720   7.000   4.501   9.580 -1.2375  1.6392 -0.2519
  105OSM   H11T10721   6.842   4.481   9.658 -0.4906 -0.9347  0.2847
  105OSM   C12S10722   6.910   4.309   9.529  0.1055 -0.0369 -0.3548
  105OSM   H12S10723   6.833   4.233   9.556  0.0784 -0.2799 -1.0834
  105OSM   H12T10724   7.010   4.266   9.506  1.2233  2.7976 -1.2096
  105OSM   C13S10725   6.868   4.347   9.382 -0.1263  0.2650 -0.5046
  105OSM   H13S10726   6.927   4.427   9.332  0.8698  1.0601  1.7855
  105OSM   H13T10727   6.760   4.373   9.392 -0.4358 -0.1801 -2.3484
  105OSM   C14S10728   6.865   4.231   9.289 -0.3372 -0.7027 -0.3098
  105OSM   H14S10729   6.819   4.139   9.331  3.2715 -2.4242  0.2688
  105OSM   H14T10730   6.968   4.194   9.269 -0.1536 -0.9505  0.9830
  105OSM   C15S10731   6.803   4.261   9.160  0.3745  0.0258  0.4808
  105OSM   H15S10732   6.852   4.348   9.113  0.1857 -0.1619 -0.0682
  105OSM   H15T10733   6.700   4.293   9.184 -0.8418 -3.9682  1.3850
  105OSM   C16S10734   6.809   4.144   9.066  0.5292  0.3536  0.1624
  105OSM   H16S10735   6.773   4.051   9.115  0.0195 -2.0250 -4.2690
  105OSM   H16T10736   6.911   4.123   9.027  0.6561 -0.1517  0.7509
  105OSM   C17S10737   6.716   4.161   8.946 -0.2313 -0.2799 -0.3780
  105OSM   H17S10738   6.751   4.258   8.904  2.3358 -0.1668  1.7093
  105OSM   H17T10739   6.607   4.157   8.963  0.0514  1.5844  2.5662
  105OSM   C18S10740   6.741   4.052   8.846 -0.1795 -0.1415 -0.0631
  105OSM   H18S10741   6.735   3.954   8.898  0.9434 -0.2077 -0.0363
  105OSM   H18T10742   6.849   4.056   8.820 -0.5063 -0.4083 -1.5681
  105OSM   H18U10743   6.674   4.063   8.758 -1.5779  3.0513  1.2238
  105OSM    C1F10744   6.726   4.199  10.271  0.3080 -0.4437 -0.1699
  105OSM     OF10745   6.611   4.228  10.302 -0.3649 -0.2926  0.2939
  105OSM    C2F10746   6.743   4.094  10.168  0.7902  0.6208  0.2744
  105OSM    H2F10747   6.793   4.008  10.217 -1.3850 -1.0899 -0.3315
  105OSM    H2G10748   6.802   4.133  10.083  2.1293  1.3358  1.4792
  105OSM    C3F10749   6.618   4.028  10.107  0.4516 -0.7183  0.1349
  105OSM    H3F10750   6.566   4.109  10.052  1.5673 -1.3209 -1.9591
  105OSM    H3G10751   6.565   3.985  10.194  0.8723 -0.6175  0.4437
  105OSM    C4F10752   6.638   3.912  10.018  0.8941  0.1953 -0.2274
  105OSM    H4F10753   6.670   3.830  10.087 -1.0538  1.3403  2.1828
  105OSM    H4G10754   6.716   3.942   9.945  1.0256 -0.0864 -0.2046
  105OSM    C5F10755   6.514   3.881   9.931 -0.2928  0.2416  0.3851
  105OSM    H5F10756   6.451   3.968   9.906  0.7147  0.5982 -1.0668
  105OSM    H5G10757   6.453   3.809   9.989 -1.3526  1.2936  0.6058
  105OSM    C6F10758   6.556   3.808   9.797 -0.7727  0.0293 -0.8351
  105OSM    H6F10759   6.631   3.728   9.812 -0.3903  0.4566 -0.4523
  105OSM    H6G10760   6.594   3.886   9.728 -2.0555  1.7327  0.3116
  105OSM    C7F10761   6.439   3.738   9.719 -0.0463 -0.1174  0.1365
  105OSM    H7F10762   6.364   3.817   9.696 -0.6336 -0.8643 -0.5818
  105OSM    H7G10763   6.384   3.668   9.785  1.7459  0.4789  2.4052
  105OSM    C8F10764   6.486   3.657   9.597 -0.8684  0.0198  0.7562
  105OSM    H8F10765   6.401   3.628   9.532 -0.5615 -1.1079  0.8412
  105OSM    H8G10766   6.536   3.560   9.619 -1.3876 -1.2081 -2.7309
  105OSM    C9F10767   6.583   3.732   9.506  0.8161  0.5086 -0.4562
  105OSM    H9F10768   6.672   3.746   9.568 -0.4220  0.1952  1.4569
  105OSM   C10F10769   6.575   3.784   9.380  0.1727  0.4409 -0.2295
  105OSM   H10F10770   6.664   3.829   9.333  0.6867 -0.1788  0.1293
  105OSM   C11F10771   6.452   3.775   9.295 -0.3233 -0.1870  0.5120
  105OSM   H11F10772   6.369   3.845   9.319  0.2611  0.3576  0.9860
  105OSM   H11G10773   6.407   3.673   9.291  0.6180 -0.7563  2.9984
  105OSM   C12F10774   6.499   3.818   9.151  0.3690  0.1410  0.2826
  105OSM   H12F10775   6.580   3.753   9.113  0.2152 -1.0252  1.8360
  105OSM   H12G10776   6.541   3.921   9.149  0.7160 -0.0010  0.1577
  105OSM   C13F10777   6.384   3.800   9.049 -0.1377 -0.2148  0.3071
  105OSM   H13F10778   6.301   3.863   9.086  1.0267  0.6498  1.5205
  105OSM   H13G10779   6.358   3.692   9.050  0.5566 -0.3869  0.7779
  105OSM   C14F10780   6.424   3.845   8.910  0.0467 -0.1989  0.5775
  105OSM   H14F10781   6.530   3.811   8.915  0.3289  0.8442  2.6682
  105OSM   H14G10782   6.418   3.956   8.903 -1.9704 -0.3497 -1.2355
  105OSM   C15F10783   6.356   3.768   8.792 -0.0582 -0.2842  0.2545
  105OSM   H15F10784   6.247   3.783   8.804 -0.4679 -2.7198  0.0628
  105OSM   H15G10785   6.381   3.660   8.792 -0.7300 -0.4477 -0.7961
  105OSM   C16F10786   6.390   3.827   8.656  0.2641  0.6051  0.5919
  105OSM   H16F10787   6.495   3.812   8.623  0.0477  2.6400 -1.2802
  105OSM   H16G10788   6.363   3.935   8.660 -2.8313 -0.0129 -0.8900
  105OSM   C17F10789   6.300   3.758   8.548 -1.0151 -0.3150  0.3403
  105OSM   H17F10790   6.193   3.766   8.578 -1.3544  0.2812 -0.9498
  105OSM   H17G10791   6.327   3.651   8.537 -0.4952 -0.1447 -0.0914
  105OSM   C18F10792   6.308   3.830   8.404 -0.3541 -0.0782 -0.3751
  105OSM   H18F10793   6.221   3.800   8.342  0.1560 -0.3447 -0.9641
  105OSM   H18G10794   6.394   3.790   8.347  0.5441 -0.5892  1.2559
  105OSM   H18H10795   6.308   3.941   8.415 -1.4453 -0.1027  0.0355
  106OSM      N10796   1.304   2.794  10.713  0.3347 -0.3509 -0.3367
  106OSM    C1510797   1.277   2.667  10.795  0.2817  0.8983  0.0759
  106OSM   H15A10798   1.177   2.666  10.838  0.5411  0.5124  0.6867
  106OSM   H15B10799   1.343   2.669  10.881 -0.2021  2.5112  0.4553
  106OSM   H15C10800   1.293   2.579  10.735 -1.8206 -0.1947  1.0045
  106OSM    C1410801   1.214   2.818  10.593 -0.6049 -0.8398  0.5161
  106OSM   H14A10802   1.259   2.895  10.533  0.7266 -0.1798  2.2717
  106OSM   H14B10803   1.115   2.853  10.617 -0.2619  0.7013 -0.2138
  106OSM   H14C10804   1.198   2.720  10.551  2.2509 -1.2586  0.1719
  106OSM    C1310805   1.274   2.907  10.799  0.6733  0.7474 -0.6439
  106OSM   H13A10806   1.318   2.911  10.898 -1.2251  1.5434  0.2274
  106OSM   H13B10807   1.169   2.905  10.825  1.5637 -0.4129  3.7000
  106OSM   H13C10808   1.275   3.001  10.745 -1.1578  0.2879 -1.5431
  106OSM    C1210809   1.446   2.803  10.671  0.2275 -0.7609 -0.0307
  106OSM   H12A10810   1.509   2.795  10.758  1.0783  1.1008 -0.4439
  106OSM   H12B10811   1.459   2.904  10.636  2.6934 -0.5052  1.3627
  106OSM    C1110812   1.498   2.701  10.568  0.0902  0.5721 -0.7920
  106OSM   H11A10813   1.444   2.710  10.471 -2.9802 -0.2157  0.7270
  106OSM   H11B10814   1.483   2.600  10.614  2.9071  0.6148  0.4282
  106OSM      P10815   1.702   2.836  10.475  0.0294  0.2649  0.0588
  106OSM    O1310816   1.664   2.965  10.535 -0.5007  0.4487  0.3285
  106OSM    O1410817   1.846   2.811  10.452 -0.2813  0.4281 -0.6100
  106OSM    O1110818   1.630   2.825  10.334  0.3254 -0.0340 -0.2549
  106OSM    O1210819   1.643   2.712  10.561  0.7661 -0.3724  0.5566
  106OSM    C1S10820   1.633   2.688  10.273 -0.1722 -0.0108  0.0802
  106OSM    H1S10821   1.564   2.615  10.320  1.3862 -1.1655  0.6678
  106OSM    H1T10822   1.728   2.635  10.294  0.8970  2.2465  1.3771
  106OSM     NF10823   1.559   2.565  10.058  0.3843 -0.0989 -0.1700
  106OSM    HNF10824   1.606   2.546   9.972  1.9085  2.3871  0.0194
  106OSM    C2S10825   1.589   2.695  10.124  0.1239  0.3268 -0.2411
  106OSM    H2S10826   1.495   2.753  10.123 -0.1140  0.2685  3.6402
  106OSM    C3S10827   1.693   2.773  10.039 -0.3092 -0.4838  0.0559
  106OSM    H3S10828   1.783   2.710  10.025 -0.8279 -1.1237 -0.4260
  106OSM     O310829   1.742   2.885  10.103  0.0813 -0.2202 -0.3060
  106OSM    HO310830   1.728   2.861  10.195  0.0005 -2.3869 -0.8224
  106OSM    C4S10831   1.649   2.805   9.895 -0.6864 -0.0928 -0.7347
  106OSM    H4S10832   1.697   2.749   9.814  1.0347  1.9818 -1.2520
  106OSM    C5S10833   1.551   2.895   9.865  0.0811  0.6194 -0.5241
  106OSM    H5S10834   1.509   2.959   9.944 -1.5979  0.3220 -1.1417
  106OSM    C6S10835   1.506   2.931   9.730  0.3919 -0.3507  0.2006
  106OSM    H6S10836   1.584   2.928   9.651  0.2852 -0.9685  0.1156
  106OSM    H6T10837   1.481   3.039   9.725 -1.2888 -0.7525 -1.3971
  106OSM    C7S10838   1.385   2.864   9.681  0.0055  0.2625  0.1322
  106OSM    H7S10839   1.299   2.890   9.746 -2.2109  0.6450 -2.7045
  106OSM    H7T10840   1.410   2.756   9.677 -1.7081 -0.1923  0.7596
  106OSM    C8S10841   1.351   2.903   9.538 -0.8657  0.0461  0.5263
  106OSM    H8S10842   1.432   2.850   9.484 -1.4306 -1.4957  1.1393
  106OSM    H8T10843   1.354   3.014   9.530 -3.2747  0.0598 -1.2974
  106OSM    C9S10844   1.210   2.866   9.497 -0.1392 -0.3406  0.5591
  106OSM    H9S10845   1.198   2.895   9.391 -0.5711 -2.2146  0.0550
  106OSM    H9T10846   1.141   2.921   9.564  0.7087  0.7247  0.5722
  106OSM   C10S10847   1.178   2.717   9.515 -0.1468 -0.8271  0.1270
  106OSM   H10S10848   1.179   2.689   9.622 -2.8722 -1.3383  0.0844
  106OSM   H10T10849   1.254   2.658   9.459  1.2278  0.3419  0.7043
  106OSM   C11S10850   1.040   2.683   9.444  0.2422 -0.1670 -0.4043
  106OSM   H11S10851   1.034   2.742   9.350 -0.1190 -0.1555 -0.3720
  106OSM   H11T10852   0.959   2.713   9.514 -0.0915 -1.7006 -0.1131
  106OSM   C12S10853   1.031   2.534   9.400  1.1419 -0.0333 -0.2352
  106OSM   H12S10854   1.041   2.470   9.491 -2.3002 -0.3918  0.0059
  106OSM   H12T10855   1.119   2.518   9.334 -0.9423  0.3368 -3.2662
  106OSM   C13S10856   0.897   2.493   9.330 -0.2077  0.0670 -0.2810
  106OSM   H13S10857   0.896   2.385   9.303 -1.5916 -0.0499  0.1771
  106OSM   H13T10858   0.894   2.547   9.233 -0.4552 -0.1568 -0.3998
  106OSM   C14S10859   0.763   2.511   9.402 -0.5572 -0.4004  1.0277
  106OSM   H14S10860   0.684   2.498   9.325  0.9284 -0.4500 -0.5477
  106OSM   H14T10861   0.749   2.613   9.444 -0.5039 -0.4477  1.1614
  106OSM   C15S10862   0.740   2.400   9.508 -0.6651  0.1190 -0.5780
  106OSM   H15S10863   0.814   2.420   9.588  0.3063 -0.2979 -1.3575
  106OSM   H15T10864   0.766   2.302   9.461  2.3130  0.0948  0.8904
  106OSM   C16S10865   0.599   2.397   9.559 -0.5372  0.0593  0.1968
  106OSM   H16S10866   0.541   2.375   9.467 -0.7728  0.1292  0.3250
  106OSM   H16T10867   0.552   2.491   9.595 -0.7482 -1.2103  3.6092
  106OSM   C17S10868   0.585   2.292   9.664 -0.3771  0.5321 -0.6294
  106OSM   H17S10869   0.656   2.217   9.624 -0.7355 -0.2428  0.1582
  106OSM   H17T10870   0.483   2.249   9.656 -0.2653  0.0107  0.6078
  106OSM   C18S10871   0.594   2.331   9.814 -0.2056  0.1896 -1.3031
  106OSM   H18S10872   0.593   2.243   9.882 -0.1719  0.0100 -1.5298
  106OSM   H18T10873   0.497   2.380   9.835  0.5652  1.3999 -0.4954
  106OSM   H18U10874   0.679   2.393   9.848  1.0770 -1.8592 -0.5468
  106OSM    C1F10875   1.475   2.477  10.111  0.3061  0.2804  0.4508
  106OSM     OF10876   1.395   2.504  10.202  0.0459 -0.8247  0.2112
  106OSM    C2F10877   1.461   2.338  10.042 -0.4143  0.3356 -0.9477
  106OSM    H2F10878   1.440   2.271  10.128  1.0234  1.2299  0.1248
  106OSM    H2G10879   1.559   2.301  10.006 -1.0903 -0.9115 -1.6268
  106OSM    C3F10880   1.337   2.340   9.950 -0.1046 -0.2141 -0.5541
  106OSM    H3F10881   1.256   2.407   9.986 -0.0855 -0.3665 -0.2292
  106OSM    H3G10882   1.311   2.232   9.947 -0.1323 -0.2045 -0.6627
  106OSM    C4F10883   1.373   2.392   9.807  0.1277 -0.2412 -0.4427
  106OSM    H4F10884   1.430   2.314   9.751 -0.8012 -0.1141 -1.6086
  106OSM    H4G10885   1.412   2.494   9.828  0.0353 -0.3323  0.1808
  106OSM    C5F10886   1.247   2.422   9.724  0.2386 -0.0274 -0.1820
  106OSM    H5F10887   1.280   2.460   9.625 -1.4259  2.0815  0.0017
  106OSM    H5G10888   1.201   2.506   9.780 -0.4208  1.7853 -3.2040
  106OSM    C6F10889   1.149   2.304   9.715  0.4333 -0.2497  0.3037
  106OSM    H6F10890   1.053   2.343   9.675 -0.0913  0.7696  2.4362
  106OSM    H6G10891   1.128   2.250   9.810 -1.4792  1.3761  0.8539
  106OSM    C7F10892   1.198   2.200   9.608  0.5334 -0.0596 -0.8850
  106OSM    H7F10893   1.301   2.169   9.634  0.2242 -0.3333  0.0529
  106OSM    H7G10894   1.195   2.240   9.505 -1.3640 -1.3823 -1.3990
  106OSM    C8F10895   1.118   2.068   9.612 -0.8505  0.4398  0.6328
  106OSM    H8F10896   1.096   2.041   9.718  0.4198  0.2564  0.8603
  106OSM    H8G10897   1.186   1.999   9.559  0.6619  3.3201 -1.4314
  106OSM    C9F10898   0.985   2.094   9.538 -0.3111  0.3602 -0.1916
  106OSM    H9F10899   0.916   2.158   9.596 -1.1613 -0.0282 -0.7625
  106OSM   C10F10900   0.940   2.050   9.421  0.3328  0.0752 -0.3320
  106OSM   H10F10901   0.845   2.087   9.378  0.4364 -0.4154 -0.9979
  106OSM   C11F10902   1.023   1.960   9.329  0.0645  0.1660  0.2537
  106OSM   H11F10903   0.959   1.869   9.331  1.6632 -1.0000  0.4219
  106OSM   H11G10904   1.119   1.932   9.378  1.0027 -1.0171 -2.0971
  106OSM   C12F10905   1.049   2.010   9.186 -0.0515  0.1876 -0.4020
  106OSM   H12F10906   0.954   2.052   9.148 -0.4129  1.8932  2.1666
  106OSM   H12G10907   1.074   1.920   9.125  1.8497 -0.5551  1.3356
  106OSM   C13F10908   1.157   2.121   9.175 -0.4495 -0.6514  0.4499
  106OSM   H13F10909   1.250   2.084   9.224  0.2669  0.7483  0.1758
  106OSM   H13G10910   1.127   2.209   9.235 -0.5968 -0.9924  0.8830
  106OSM   C14F10911   1.205   2.158   9.034  0.4859  0.4649 -0.0594
  106OSM   H14F10912   1.120   2.150   8.962  0.2203 -0.6898  0.3560
  106OSM   H14G10913   1.276   2.079   9.000  1.3092  0.6763  1.0940
  106OSM   C15F10914   1.280   2.297   9.025  0.0572  0.2469  0.7942
  106OSM   H15F10915   1.389   2.276   9.035  0.2209  0.3315 -0.6084
  106OSM   H15G10916   1.242   2.359   9.109  0.7596  1.0040  0.5634
  106OSM   C16F10917   1.250   2.351   8.882  0.0768  0.1935 -0.6834
  106OSM   H16F10918   1.222   2.272   8.809  0.0359 -1.0954  0.6854
  106OSM   H16G10919   1.346   2.397   8.850  1.3137 -0.9796  1.1324
  106OSM   C17F10920   1.146   2.472   8.870 -0.6940 -0.2681  0.5743
  106OSM   H17F10921   1.165   2.517   8.770  0.0332  0.0988  0.8644
  106OSM   H17G10922   1.182   2.551   8.940 -1.3808  0.1128  0.5108
  106OSM   C18F10923   1.004   2.443   8.904 -0.6625 -0.7016 -0.9161
  106OSM   H18F10924   0.980   2.383   8.994 -0.8296 -0.9798 -1.1440
  106OSM   H18G10925   0.962   2.404   8.808  0.9654 -1.9334 -1.1777
  106OSM   H18H10926   0.939   2.532   8.917 -0.7015 -1.0888  2.1151
  107OSM      N10927   2.913   5.573  11.003  0.0151 -0.3489 -0.2190
  107OSM    C1510928   3.001   5.488  10.919 -0.0667 -0.8521 -0.0137
  107OSM   H15A10929   3.034   5.546  10.834  1.1255 -2.4123 -0.6551
  107OSM   H15B10930   2.956   5.397  10.883  2.4332 -2.3313  0.3482
  107OSM   H15C10931   3.088   5.464  10.978 -0.1275  0.3106  0.5720
  107OSM    C1410932   2.889   5.507  11.134  0.3724 -0.2289  0.3947
  107OSM   H14A10933   2.839   5.579  11.197 -0.1450 -1.5215  1.5330
  107OSM   H14B10934   2.971   5.478  11.197 -0.4576 -0.8714  1.2162
  107OSM   H14C10935   2.828   5.419  11.120  0.3811 -0.2319  0.3757
  107OSM    C1310936   2.982   5.700  11.031  0.2727 -0.4731 -0.1010
  107OSM   H13A10937   3.004   5.743  10.934 -2.4574  0.3856 -0.4335
  107OSM   H13B10938   3.070   5.682  11.091 -1.0718 -2.4493  1.4421
  107OSM   H13C10939   2.925   5.773  11.086  1.5182  0.3842  0.0756
  107OSM    C1210940   2.787   5.604  10.933 -0.2603 -0.1448  0.4934
  107OSM   H12A10941   2.732   5.516  10.903 -0.4222  0.5855 -1.5732
  107OSM   H12B10942   2.822   5.653  10.843  2.4014 -1.7845  0.5335
  107OSM    C1110943   2.682   5.708  10.997 -0.4557  0.5087  0.1119
  107OSM   H11A10944   2.655   5.684  11.102  0.5997  1.5582  0.6494
  107OSM   H11B10945   2.590   5.700  10.936  0.8770  3.7544 -2.6089
  107OSM      P10946   2.669   5.973  10.964  0.0701 -0.0480  0.1184
  107OSM    O1310947   2.556   5.992  11.060  0.2568 -0.5479 -0.8459
  107OSM    O1410948   2.772   6.081  10.970 -0.3300  0.0022  0.4057
  107OSM    O1110949   2.615   5.961  10.817 -0.4555 -0.1058  0.1190
  107OSM    O1210950   2.746   5.834  10.986  0.2644 -0.1545 -0.2986
  107OSM    C1S10951   2.689   5.993  10.699  1.1125 -0.3892  0.9816
  107OSM    H1S10952   2.797   5.982  10.726  0.5401 -2.5434  2.6223
  107OSM    H1T10953   2.666   6.095  10.661 -0.6692 -0.2231  2.3983
  107OSM     NF10954   2.730   5.919  10.463  0.0832  0.3862 -0.2102
  107OSM    HNF10955   2.683   5.947  10.379  1.4943  1.5311 -0.6637
  107OSM    C2S10956   2.645   5.894  10.584 -0.0622  0.5961  0.0411
  107OSM    H2S10957   2.675   5.794  10.621  2.8226  1.4210  0.2158
  107OSM    C3S10958   2.490   5.898  10.552 -1.0501  0.2218 -0.2497
  107OSM    H3S10959   2.472   6.001  10.516  1.1030  1.1612  1.1628
  107OSM     O310960   2.409   5.890  10.672 -0.2837 -0.1520 -0.3082
  107OSM    HO310961   2.468   5.911  10.744  1.7022 -2.6861 -1.0436
  107OSM    C4S10962   2.438   5.803  10.444 -0.2883  0.3919 -0.1654
  107OSM    H4S10963   2.458   5.846  10.345  0.0162  0.7180  0.0353
  107OSM    C5S10964   2.370   5.690  10.460  0.2777  0.2970 -0.1936
  107OSM    H5S10965   2.336   5.661  10.561  0.7265  0.5470  0.0269
  107OSM    C6S10966   2.315   5.616  10.338 -0.1882 -0.7859  0.1723
  107OSM    H6S10967   2.206   5.635  10.327 -0.0070  1.2002  1.3293
  107OSM    H6T10968   2.332   5.508  10.355 -0.2977 -1.2245 -2.1797
  107OSM    C7S10969   2.383   5.632  10.202 -0.1120 -0.5654 -0.9112
  107OSM    H7S10970   2.491   5.608  10.202 -0.0428 -0.3585 -2.3263
  107OSM    H7T10971   2.370   5.738  10.171  1.1511 -0.3417 -0.7204
  107OSM    C8S10972   2.316   5.527  10.105  0.1137 -0.1918 -0.2356
  107OSM    H8S10973   2.206   5.538  10.116 -0.2162 -2.2735 -0.9809
  107OSM    H8T10974   2.347   5.422  10.122  1.7510  0.4289  0.8592
  107OSM    C9S10975   2.358   5.578   9.965  0.6927  0.4288 -0.6556
  107OSM    H9S10976   2.457   5.544   9.930  0.6172 -0.0761 -0.3879
  107OSM    H9T10977   2.354   5.689   9.967 -4.0508  0.4712 -1.3382
  107OSM   C10S10978   2.260   5.535   9.857 -0.4676  0.3542 -0.3654
  107OSM   H10S10979   2.155   5.560   9.881  0.3087  2.4922  1.1934
  107OSM   H10T10980   2.264   5.424   9.856 -0.8334  0.3391 -0.0519
  107OSM   C11S10981   2.289   5.580   9.710 -1.2757 -0.7144 -0.1782
  107OSM   H11S10982   2.399   5.587   9.695 -1.2253 -0.6377  0.2361
  107OSM   H11T10983   2.238   5.675   9.679 -1.3083  0.0383  2.0092
  107OSM   C12S10984   2.225   5.479   9.610 -0.4986 -0.1422 -0.7442
  107OSM   H12S10985   2.118   5.466   9.638 -0.5339  0.0893 -0.7640
  107OSM   H12T10986   2.269   5.379   9.623  0.7791  0.5097  0.1416
  107OSM   C13S10987   2.221   5.529   9.462 -0.2520  0.0588 -0.0633
  107OSM   H13S10988   2.164   5.622   9.444  0.9973  0.5056 -2.0695
  107OSM   H13T10989   2.169   5.448   9.407  2.2005 -0.9316 -1.0939
  107OSM   C14S10990   2.358   5.541   9.397 -0.1222 -0.3006  0.1304
  107OSM   H14S10991   2.408   5.449   9.434 -0.2721 -0.1077  0.8233
  107OSM   H14T10992   2.413   5.626   9.443  0.9815 -1.3042  0.7152
  107OSM   C15S10993   2.356   5.566   9.247  0.0637  0.4718 -0.0359
  107OSM   H15S10994   2.461   5.590   9.219 -0.4573  1.4532 -1.2472
  107OSM   H15T10995   2.281   5.644   9.224 -2.0062 -1.1877  0.7516
  107OSM   C16S10996   2.323   5.449   9.157 -0.5491  0.1778  0.3132
  107OSM   H16S10997   2.236   5.391   9.195 -0.8260  0.1766 -0.3210
  107OSM   H16T10998   2.402   5.371   9.167  1.4073  2.0577  0.2906
  107OSM   C17S10999   2.293   5.498   9.018  0.7127  0.1570  1.3180
  107OSM   H17S11000   2.381   5.539   8.963 -0.3085  0.3660 -0.2315
  107OSM   H17T11001   2.218   5.578   9.032 -0.0724 -0.0905 -0.9855
  107OSM   C18S11002   2.228   5.404   8.927 -0.1825 -0.5345  0.2908
  107OSM   H18S11003   2.300   5.321   8.909 -0.6795 -0.7636 -0.7646
  107OSM   H18T11004   2.194   5.444   8.829  3.6259  1.9869 -0.2104
  107OSM   H18U11005   2.138   5.350   8.965 -1.8686  2.0602  0.2440
  107OSM    C1F11006   2.861   5.897  10.455 -0.4452 -0.2041 -0.3991
  107OSM     OF11007   2.921   5.834  10.546  0.2733 -0.0078  0.2417
  107OSM    C2F11008   2.936   5.946  10.333 -0.5278  0.4332  0.1527
  107OSM    H2F11009   3.025   6.005  10.363  2.1121 -2.9079 -0.4696
  107OSM    H2G11010   2.858   6.004  10.280  1.5605  2.3476 -0.9324
  107OSM    C3F11011   2.986   5.828  10.254 -0.3583  0.2813 -0.2632
  107OSM    H3F11012   2.899   5.760  10.244 -2.4779  2.7295  0.4001
  107OSM    H3G11013   3.062   5.775  10.315 -0.1561  0.2250 -0.5594
  107OSM    C4F11014   3.062   5.847  10.117 -0.1094 -0.4364 -0.1944
  107OSM    H4F11015   3.156   5.905  10.131 -0.0585 -0.0237 -2.0229
  107OSM    H4G11016   2.995   5.900  10.046 -0.2638 -0.6432 -0.2022
  107OSM    C5F11017   3.091   5.712  10.050 -0.2729 -0.0747  0.8730
  107OSM    H5F11018   3.005   5.678   9.989  0.9074 -3.3419  0.7754
  107OSM    H5G11019   3.106   5.640  10.133  1.5136  0.5640  1.1468
  107OSM    C6F11020   3.211   5.710   9.946 -0.5451  0.2181  0.6503
  107OSM    H6F11021   3.224   5.612   9.894 -1.3386  0.1878  0.5068
  107OSM    H6G11022   3.310   5.732   9.991  1.4273 -0.2999 -3.0275
  107OSM    C7F11023   3.202   5.814   9.835 -0.0294  0.4214  0.0896
  107OSM    H7F11024   3.226   5.918   9.869  0.0666  0.1818  0.7709
  107OSM    H7G11025   3.096   5.811   9.800 -0.7508  1.7552  1.9376
  107OSM    C8F11026   3.311   5.794   9.725 -0.2683 -0.1308  0.1974
  107OSM    H8F11027   3.319   5.686   9.702  1.0113  0.5132 -2.8148
  107OSM    H8G11028   3.403   5.836   9.772 -3.2159  0.3509  6.5517
  107OSM    C9F11029   3.272   5.872   9.597  0.4991 -0.0293 -0.5122
  107OSM    H9F11030   3.258   5.979   9.618  3.6533  0.5478 -0.8734
  107OSM   C10F11031   3.248   5.827   9.472  0.3534  0.3221  0.1131
  107OSM   H10F11032   3.208   5.892   9.393 -0.7374  2.0744  2.0158
  107OSM   C11F11033   3.270   5.685   9.420  0.4673  0.8167  0.8823
  107OSM   H11F11034   3.195   5.660   9.342  2.0725  0.4614 -0.5995
  107OSM   H11G11035   3.258   5.603   9.494  1.0263 -2.6826 -2.5837
  107OSM   C12F11036   3.413   5.659   9.359  0.3442  0.0182 -0.2751
  107OSM   H12F11037   3.424   5.550   9.340  0.3715 -0.2566  1.2072
  107OSM   H12G11038   3.486   5.677   9.441  0.8380  1.5002 -0.9902
  107OSM   C13F11039   3.437   5.738   9.225 -0.1192  0.4469 -0.3559
  107OSM   H13F11040   3.535   5.711   9.180 -0.2343  1.4089 -1.2210
  107OSM   H13G11041   3.438   5.842   9.265 -0.5132  0.1792  0.3603
  107OSM   C14F11042   3.329   5.718   9.123 -0.0551  0.0430 -0.2366
  107OSM   H14F11043   3.224   5.748   9.145  0.0203 -1.2706  2.1520
  107OSM   H14G11044   3.323   5.611   9.094  1.2586 -0.2595  0.5793
  107OSM   C15F11045   3.364   5.808   9.005 -0.0592  0.2451 -0.7716
  107OSM   H15F11046   3.472   5.800   8.980  0.4692  0.5296  1.2259
  107OSM   H15G11047   3.356   5.910   9.047 -0.8920  0.5376 -1.6161
  107OSM   C16F11048   3.272   5.802   8.882 -0.7312 -0.4547 -0.0743
  107OSM   H16F11049   3.248   5.695   8.865 -2.2027  0.2200 -2.8579
  107OSM   H16G11050   3.316   5.814   8.781 -2.8896 -2.8961 -1.4333
  107OSM   C17F11051   3.143   5.894   8.886 -0.4820  0.4835 -0.5708
  107OSM   H17F11052   3.085   5.871   8.979  0.0369 -1.0673 -0.6087
  107OSM   H17G11053   3.083   5.850   8.804 -1.4722 -2.0814  1.3825
  107OSM   C18F11054   3.174   6.041   8.857 -0.5263 -0.1154  0.6882
  107OSM   H18F11055   3.228   6.047   8.760 -1.2691  3.6713  0.3620
  107OSM   H18G11056   3.233   6.090   8.937  0.0939  0.1914  0.0549
  107OSM   H18H11057   3.077   6.091   8.840 -0.5494 -0.8282 -1.5863
  108OSM      N11058   0.210   3.999  11.160  0.0230 -0.3682  0.1675
  108OSM    C1511059   0.285   4.024  11.280  0.5210 -0.1239 -0.0713
  108OSM   H15A11060   0.218   4.028  11.364  0.0801 -0.6781 -0.3847
  108OSM   H15B11061   0.336   4.118  11.272  1.0015 -0.4729 -1.6501
  108OSM   H15C11062   0.359   3.951  11.308  0.4047 -0.7007 -1.1787
  108OSM    C1411063   0.094   4.102  11.145  0.5316 -0.0376 -0.0988
  108OSM   H14A11064   0.043   4.105  11.239  1.9184 -1.7547  0.7614
  108OSM   H14B11065   0.015   4.070  11.079 -0.0087  0.2695  0.3993
  108OSM   H14C11066   0.120   4.202  11.112 -5.2937  1.5400 -0.9201
  108OSM    C1311067   0.300   4.009  11.048 -1.2178  0.3258  0.0714
  108OSM   H13A11068   0.245   4.008  10.955 -0.4706 -0.6510 -0.3707
  108OSM   H13B11069   0.367   3.924  11.049 -1.3405  0.2201 -0.4593
  108OSM   H13C11070   0.368   4.093  11.044 -0.6198 -0.0865  1.2941
  108OSM    C1211071   0.159   3.851  11.152  0.0494  0.8913  0.1593
  108OSM   H12A11072   0.099   3.847  11.242  1.1519  4.5735  1.2288
  108OSM   H12B11073   0.249   3.791  11.157  0.0749  0.8997 -0.2156
  108OSM    C1111074   0.090   3.808  11.014  0.1996 -0.0333  0.3764
  108OSM   H11A11075   0.002   3.876  11.011 -0.0434 -0.3066  1.0770
  108OSM   H11B11076   0.044   3.708  11.022 -1.1612  0.3103 -2.0980
  108OSM      P11077   0.271   3.716  10.850  0.4023 -0.0018  0.2922
  108OSM    O1311078   0.405   3.779  10.863 -0.1280  0.1271 -0.5851
  108OSM    O1411079   0.254   3.585  10.918 -0.6348  0.0093  0.2693
  108OSM    O1111080   0.242   3.710  10.691 -0.2482 -0.2411 -0.4005
  108OSM    O1211081   0.173   3.830  10.900 -0.3615 -0.1880 -0.2876
  108OSM    C1S11082   0.100   3.697  10.658 -0.0840 -0.2698 -0.3214
  108OSM    H1S11083   0.034   3.778  10.694  0.5401  1.7427 -3.2602
  108OSM    H1T11084   0.066   3.596  10.689  0.8503 -0.5885 -0.2828
  108OSM     NF11085  -0.053   3.695  10.460  0.5289  0.0226  0.0487
  108OSM    HNF11086  -0.092   3.613  10.420  0.0454  0.0857  0.3815
  108OSM    C2S11087   0.087   3.692  10.502 -0.7180  0.0908 -0.1646
  108OSM    H2S11088   0.131   3.789  10.470  0.8867 -0.5477  0.0128
  108OSM    C3S11089   0.174   3.580  10.439 -0.3444  0.2275  0.2884
  108OSM    H3S11090   0.139   3.488  10.490 -1.9188  0.4753 -0.2868
  108OSM     O311091   0.318   3.593  10.472  0.6373  0.0144 -0.0855
  108OSM    HO311092   0.316   3.659  10.541 -0.0581 -1.8508  1.7643
  108OSM    C4S11093   0.156   3.570  10.288 -0.6391  0.0663  0.1784
  108OSM    H4S11094   0.066   3.513  10.260 -1.0699 -0.3307  2.2159
  108OSM    C5S11095   0.217   3.637  10.192 -0.1249 -0.2843  0.7355
  108OSM    H5S11096   0.303   3.698  10.225  0.2536 -0.6399  0.4238
  108OSM    C6S11097   0.199   3.625  10.046  0.7977 -0.5230  0.3160
  108OSM    H6S11098   0.294   3.583  10.006 -0.0700 -2.0088 -0.2532
  108OSM    H6T11099   0.182   3.723   9.996  0.7362  0.0715  1.4665
  108OSM    C7S11100   0.082   3.540   9.996  0.1536  0.2142 -0.2984
  108OSM    H7S11101  -0.007   3.589  10.042 -0.5803 -1.4641  0.1284
  108OSM    H7T11102   0.103   3.445  10.049  1.0428 -0.0690 -1.1271
  108OSM    C8S11103   0.084   3.515   9.841  0.0776  0.1120  0.3517
  108OSM    H8S11104   0.184   3.470   9.824 -0.5557 -1.5411  0.8247
  108OSM    H8T11105   0.067   3.611   9.787  0.2284 -0.4616 -0.7368
  108OSM    C9S11106  -0.038   3.427   9.794 -0.2130 -0.4631  0.1064
  108OSM    H9S11107  -0.134   3.483   9.798 -0.8993 -1.2314 -2.9464
  108OSM    H9T11108  -0.052   3.351   9.874 -0.5249  1.0363  1.5197
  108OSM   C10S11109   0.011   3.359   9.662  0.0178 -0.0048 -0.8560
  108OSM   H10S11110  -0.065   3.282   9.637 -1.6681  1.1970  0.3480
  108OSM   H10T11111   0.111   3.312   9.675  0.1356  0.4742  0.1132
  108OSM   C11S11112   0.020   3.456   9.544  0.4527 -0.3974  0.1546
  108OSM   H11S11113   0.096   3.532   9.572  1.1377 -1.3413  0.9503
  108OSM   H11T11114  -0.079   3.505   9.538  1.4972  2.2276  2.4552
  108OSM   C12S11115   0.048   3.373   9.421  0.0593 -0.1209 -0.4084
  108OSM   H12S11116  -0.042   3.320   9.384 -0.4851  0.3762  0.1845
  108OSM   H12T11117   0.127   3.301   9.452  0.3271  0.4635  0.3079
  108OSM   C13S11118   0.110   3.454   9.310  0.0197 -0.6127  0.1496
  108OSM   H13S11119   0.112   3.389   9.220 -1.2298  0.0573 -0.3803
  108OSM   H13T11120   0.208   3.504   9.327 -0.1829  0.3265 -1.2206
  108OSM   C14S11121   0.013   3.563   9.270  0.3271  0.0892  0.2743
  108OSM   H14S11122   0.005   3.632   9.357  2.6587 -0.0893  0.6695
  108OSM   H14T11123  -0.081   3.508   9.248  2.2931 -4.2462  1.6553
  108OSM   C15S11124   0.065   3.646   9.154  0.2449  0.4496 -0.2987
  108OSM   H15S11125   0.173   3.647   9.182 -0.1354 -1.3287  1.4432
  108OSM   H15T11126   0.027   3.749   9.165 -0.3502 -0.0408  4.2518
  108OSM   C16S11127   0.043   3.598   9.014 -0.0237  0.2994  0.5732
  108OSM   H16S11128  -0.024   3.680   8.980  0.5446  1.1011  1.3519
  108OSM   H16T11129  -0.016   3.505   8.999  1.9542 -0.7055 -1.6065
  108OSM   C17S11130   0.176   3.580   8.938 -0.4161  0.5656  0.3452
  108OSM   H17S11131   0.232   3.488   8.967 -0.2188  1.1772  1.9762
  108OSM   H17T11132   0.252   3.658   8.959 -0.5732  0.2462  2.2598
  108OSM   C18S11133   0.155   3.556   8.783  0.4393 -0.7341  0.3285
  108OSM   H18S11134   0.081   3.475   8.766 -2.0280  1.7381 -1.6786
  108OSM   H18T11135   0.256   3.545   8.738  0.5465 -1.6862  0.7802
  108OSM   H18U11136   0.102   3.641   8.735  1.2801 -1.1878 -1.4491
  108OSM    C1F11137  -0.141   3.794  10.493  0.2827 -0.7937 -0.6939
  108OSM     OF11138  -0.099   3.906  10.522  0.1147  0.2211  0.4568
  108OSM    C2F11139  -0.287   3.757  10.484  0.0452 -1.0455 -0.6713
  108OSM    H2F11140  -0.337   3.797  10.575  2.4112 -1.1993  0.7651
  108OSM    H2G11141  -0.301   3.647  10.492 -2.8105 -0.7518 -0.5270
  108OSM    C3F11142  -0.354   3.814  10.361  0.5763  0.8066  0.1986
  108OSM    H3F11143  -0.294   3.775  10.277  1.1761  0.1205  0.9336
  108OSM    H3G11144  -0.339   3.924  10.364  1.6610  0.6622  2.1034
  108OSM    C4F11145  -0.505   3.795  10.342 -0.1759  0.0581  0.0052
  108OSM    H4F11146  -0.572   3.853  10.410 -1.4728  0.6246 -1.6669
  108OSM    H4G11147  -0.521   3.689  10.372  0.8579 -0.2878 -0.6462
  108OSM    C5F11148  -0.553   3.827  10.200  0.5117 -0.5604 -0.4834
  108OSM    H5F11149  -0.519   3.749  10.129  0.3963 -0.7856 -0.2934
  108OSM    H5G11150  -0.514   3.928  10.172 -1.1896  0.9718  2.2395
  108OSM    C6F11151  -0.693   3.855  10.188 -0.3979  0.6285  0.1276
  108OSM    H6F11152  -0.724   3.917  10.275 -1.5103 -0.1688  0.3182
  108OSM    H6G11153  -0.758   3.767  10.202  1.4896 -0.6449  1.3611
  108OSM    C7F11154  -0.741   3.938  10.070  0.4444 -0.6054  0.4377
  108OSM    H7F11155  -0.687   4.034  10.083  0.1388 -0.4360  0.4536
  108OSM    H7G11156  -0.846   3.966  10.093  1.5772  1.6722  3.5301
  108OSM    C8F11157  -0.722   3.882   9.927  0.0708  0.0184  0.7643
  108OSM    H8F11158  -0.614   3.868   9.907 -0.5770 -3.0309 -1.3618
  108OSM    H8G11159  -0.759   3.961   9.858 -0.1586 -0.4310  0.3581
  108OSM    C9F11160  -0.791   3.749   9.909 -0.3061 -0.2061  0.8735
  108OSM    H9F11161  -0.857   3.725   9.994 -1.0386 -0.2771  0.2910
  108OSM   C10F11162  -0.785   3.669   9.801  0.2655 -0.2424  0.4338
  108OSM   H10F11163  -0.831   3.569   9.791  1.0172 -0.5483 -0.0601
  108OSM   C11F11164  -0.716   3.710   9.673  0.1336 -0.0678  0.2580
  108OSM   H11F11165  -0.615   3.665   9.673  0.4517  0.6431 -0.2692
  108OSM   H11G11166  -0.704   3.820   9.665  0.9768  0.0288  2.3039
  108OSM   C12F11167  -0.782   3.664   9.545 -0.7141 -0.3077 -0.5836
  108OSM   H12F11168  -0.884   3.704   9.533 -0.7654 -0.1199  0.3588
  108OSM   H12G11169  -0.791   3.553   9.548  0.4876 -0.4112  0.5458
  108OSM   C13F11170  -0.716   3.698   9.407 -1.2421 -0.1417 -0.0056
  108OSM   H13F11171  -0.622   3.639   9.402 -1.3659 -0.2602 -2.3276
  108OSM   H13G11172  -0.687   3.805   9.410 -1.3623 -0.1064 -0.1146
  108OSM   C14F11173  -0.811   3.682   9.289 -0.5685 -0.0434 -0.6751
  108OSM   H14F11174  -0.892   3.754   9.313  1.3477  1.3910  2.1341
  108OSM   H14G11175  -0.855   3.582   9.268 -1.7725  0.4749 -0.6946
  108OSM   C15F11176  -0.726   3.716   9.164  0.0439 -0.0294  0.2347
  108OSM   H15F11177  -0.641   3.644   9.167  0.9529  1.0042 -0.1109
  108OSM   H15G11178  -0.697   3.823   9.176 -0.3031  0.0850  0.0788
  108OSM   C16F11179  -0.794   3.700   9.027  0.2370  1.0662  0.6410
  108OSM   H16F11180  -0.729   3.719   8.939 -1.7166 -2.7141 -1.8897
  108OSM   H16G11181  -0.886   3.763   9.020 -1.5865 -1.5266 -0.6821
  108OSM   C17F11182  -0.856   3.558   8.998 -0.1218 -0.0180 -0.3804
  108OSM   H17F11183  -0.963   3.564   9.029 -0.4762 -0.8238 -1.3977
  108OSM   H17G11184  -0.813   3.475   9.057 -1.0917 -0.0263  0.3534
  108OSM   C18F11185  -0.841   3.530   8.850  0.6016  0.9067 -0.4200
  108OSM   H18F11186  -0.891   3.610   8.792  0.9147  2.8263  1.7981
  108OSM   H18G11187  -0.901   3.439   8.830  0.9966  0.7308 -0.8267
  108OSM   H18H11188  -0.732   3.529   8.825  0.9089  3.2310  0.6379
  109OSM      N11189   0.292   6.118  10.964  0.4436  0.2293 -0.5206
  109OSM    C1511190   0.406   6.205  10.916 -0.1004  0.3481  0.0552
  109OSM   H15A11191   0.469   6.225  11.001  1.2953 -0.3089 -0.7904
  109OSM   H15B11192   0.369   6.296  10.870  1.8564  2.4774  2.3737
  109OSM   H15C11193   0.466   6.152  10.844  2.1975  0.9296  1.4637
  109OSM    C1411194   0.351   5.986  11.012 -0.1583  0.2562  0.0400
  109OSM   H14A11195   0.279   5.929  11.068 -2.1550  0.3968 -2.1959
  109OSM   H14B11196   0.441   5.991  11.071 -0.1138 -1.3319  0.1530
  109OSM   H14C11197   0.377   5.934  10.920  2.0383  1.6528 -0.2167
  109OSM    C1311198   0.224   6.189  11.078 -0.9280  0.7964 -0.1480
  109OSM   H13A11199   0.305   6.232  11.135  0.6394  1.5865 -2.8204
  109OSM   H13B11200   0.166   6.116  11.134 -0.1545 -0.5955 -1.0873
  109OSM   H13C11201   0.157   6.267  11.047 -1.8726  0.5612  1.1860
  109OSM    C1211202   0.195   6.095  10.853  0.2146  0.6691 -0.1035
  109OSM   H12A11203   0.144   6.190  10.841 -1.2298 -0.2219 -1.5395
  109OSM   H12B11204   0.123   6.023  10.890  2.2592 -0.8626  1.0675
  109OSM    C1111205   0.258   6.026  10.730  0.0464 -0.7844  0.6137
  109OSM   H11A11206   0.363   6.058  10.715 -0.2796 -0.1692 -0.4832
  109OSM   H11B11207   0.199   6.061  10.642 -0.1136 -0.4383  0.8546
  109OSM      P11208   0.139   5.787  10.706 -0.0168  0.5007 -0.0316
  109OSM    O1311209   0.207   5.680  10.636  0.0266  0.4192 -0.4286
  109OSM    O1411210   0.055   5.750  10.827  0.0055 -0.0240 -0.2684
  109OSM    O1111211   0.043   5.868  10.606 -0.1091  0.6476  0.1135
  109OSM    O1211212   0.253   5.888  10.743 -0.3873 -0.4716 -0.4246
  109OSM    C1S11213   0.074   5.907  10.468 -0.1839  0.3181  0.5318
  109OSM    H1S11214   0.176   5.878  10.433 -0.2689  1.0897 -0.4112
  109OSM    H1T11215   0.055   6.017  10.464 -2.6278 -0.0137  1.5378
  109OSM     NF11216   0.020   5.880  10.226 -0.1157  0.8902  0.5085
  109OSM    HNF11217  -0.043   5.945  10.185  1.6586  2.3406 -0.0410
  109OSM    C2S11218  -0.016   5.829  10.360  0.4566 -0.1733  0.2875
  109OSM    H2S11219   0.024   5.725  10.359  3.4346  0.8706  0.8532
  109OSM    C3S11220  -0.164   5.834  10.392 -0.0762  0.1449 -0.1795
  109OSM    H3S11221  -0.183   5.943  10.398  1.7468  0.5273 -0.8396
  109OSM     O311222  -0.188   5.767  10.517  0.3429 -0.0408 -0.0644
  109OSM    HO311223  -0.100   5.764  10.556  0.9886 -4.6233 -1.2757
  109OSM    C4S11224  -0.254   5.771  10.295  0.4846  0.3555 -0.1272
  109OSM    H4S11225  -0.252   5.661  10.303  0.8219  0.2191 -1.7484
  109OSM    C5S11226  -0.344   5.821  10.213 -0.4751 -0.8014 -0.9845
  109OSM    H5S11227  -0.372   5.927  10.207 -1.1990 -0.8386  0.9865
  109OSM    C6S11228  -0.431   5.744  10.123  0.0049 -0.2134 -0.6091
  109OSM    H6S11229  -0.524   5.804  10.108  1.3180  1.4302 -2.7959
  109OSM    H6T11230  -0.443   5.641  10.163  2.6484 -1.0928 -1.8722
  109OSM    C7S11231  -0.381   5.726   9.983  0.2925 -0.2017  0.6550
  109OSM    H7S11232  -0.467   5.710   9.916 -0.3094 -0.7957  1.5435
  109OSM    H7T11233  -0.308   5.644   9.966  0.2190  0.2060 -1.9825
  109OSM    C8S11234  -0.313   5.857   9.937 -0.1987  0.1867 -0.0757
  109OSM    H8S11235  -0.242   5.894  10.014 -2.8612  1.5876  1.8690
  109OSM    H8T11236  -0.386   5.940   9.931  1.3227  1.5946  0.2727
  109OSM    C9S11237  -0.232   5.837   9.807  0.7067 -0.2158  0.1344
  109OSM    H9S11238  -0.299   5.818   9.720 -0.5014  3.3823  0.1273
  109OSM    H9T11239  -0.173   5.744   9.817  0.6827 -0.1555  0.8736
  109OSM   C10S11240  -0.161   5.963   9.774 -0.7090 -0.3996  0.6199
  109OSM   H10S11241  -0.129   6.012   9.868  0.8231  0.5733 -0.3475
  109OSM   H10T11242  -0.241   6.015   9.718 -0.8417 -1.1985  0.0405
  109OSM   C11S11243  -0.039   5.937   9.674 -0.0085  1.3284 -0.3514
  109OSM   H11S11244   0.037   5.885   9.735  0.5642  2.5936  0.0608
  109OSM   H11T11245   0.008   6.038   9.684  0.2896  0.9745  3.1356
  109OSM   C12S11246  -0.069   5.862   9.547 -0.5813  0.2622 -0.4338
  109OSM   H12S11247  -0.151   5.899   9.482 -0.1828  2.7419  0.3682
  109OSM   H12T11248  -0.114   5.767   9.583  1.8077 -0.3393  1.2688
  109OSM   C13S11249   0.057   5.838   9.464  0.2412  0.1609  0.9038
  109OSM   H13S11250   0.136   5.787   9.523  1.6797  0.8198 -0.3751
  109OSM   H13T11251   0.098   5.934   9.425  0.0350 -1.0266 -2.5897
  109OSM   C14S11252   0.035   5.734   9.352 -0.7835 -0.3175 -0.0777
  109OSM   H14S11253  -0.019   5.794   9.275  0.4669  0.2135 -0.5754
  109OSM   H14T11254  -0.026   5.655   9.400 -1.6480  1.2007  1.4493
  109OSM   C15S11255   0.166   5.678   9.288  0.2445  0.5036 -0.1062
  109OSM   H15S11256   0.141   5.586   9.230 -0.4482 -0.5677  1.8155
  109OSM   H15T11257   0.241   5.660   9.368  0.4128  1.3353 -0.0640
  109OSM   C16S11258   0.227   5.778   9.184  0.7328  0.8798 -0.2699
  109OSM   H16S11259   0.282   5.866   9.224  1.5114  0.8759 -1.2957
  109OSM   H16T11260   0.145   5.829   9.128  0.2658 -2.5351 -3.0818
  109OSM   C17S11261   0.304   5.698   9.079 -0.6435  1.1009  0.3005
  109OSM   H17S11262   0.235   5.622   9.038  0.1563  0.7032 -0.3431
  109OSM   H17T11263   0.388   5.652   9.136 -1.0370  3.1356  2.6739
  109OSM   C18S11264   0.341   5.791   8.964 -0.3863 -0.3723  0.0926
  109OSM   H18S11265   0.351   5.744   8.864  1.1499  0.7007 -0.3019
  109OSM   H18T11266   0.434   5.846   8.993 -0.1317 -0.5429 -0.3824
  109OSM   H18U11267   0.263   5.870   8.961 -1.4991 -1.4463  0.0661
  109OSM    C1F11268   0.139   5.862  10.170 -1.0287 -0.3376  0.7165
  109OSM     OF11269   0.221   5.784  10.217 -0.0866 -0.2244  0.6234
  109OSM    C2F11270   0.176   5.955  10.062 -0.1543  0.3786 -0.1673
  109OSM    H2F11271   0.268   6.011  10.088  0.2533  0.9578 -2.6088
  109OSM    H2G11272   0.094   6.025  10.035 -0.0753  0.3434 -0.4988
  109OSM    C3F11273   0.222   5.871   9.938  0.4996  0.2017 -0.0639
  109OSM    H3F11274   0.138   5.815   9.890 -0.3502  0.9074  0.5544
  109OSM    H3G11275   0.304   5.805   9.974  0.0772 -0.1226  0.3195
  109OSM    C4F11276   0.276   5.963   9.832  0.2188  0.4209 -0.3648
  109OSM    H4F11277   0.360   6.028   9.863 -0.3082  1.2635 -0.6734
  109OSM    H4G11278   0.207   6.040   9.791  0.7584  1.7685  1.1739
  109OSM    C5F11279   0.333   5.885   9.713  0.5218  0.7641 -0.6422
  109OSM    H5F11280   0.245   5.832   9.670 -0.7497  1.2665  1.2270
  109OSM    H5G11281   0.405   5.808   9.747 -1.7785 -1.5668 -0.6965
  109OSM    C6F11282   0.387   5.980   9.606 -0.4534 -0.5346  0.4168
  109OSM    H6F11283   0.469   6.037   9.654  0.6864 -1.6787 -0.1250
  109OSM    H6G11284   0.303   6.052   9.594  0.5775  0.9497  1.6528
  109OSM    C7F11285   0.447   5.914   9.483 -0.0035  0.1265 -0.2235
  109OSM    H7F11286   0.358   5.862   9.442  1.5033 -0.9902 -2.2657
  109OSM    H7G11287   0.512   5.836   9.528 -0.0516  1.4728  2.3966
  109OSM    C8F11288   0.509   6.011   9.378  0.5704 -0.0364 -0.1266
  109OSM    H8F11289   0.442   6.093   9.345  0.2254 -0.8650 -1.5567
  109OSM    H8G11290   0.516   5.943   9.290 -0.0771 -1.0856  0.6098
  109OSM    C9F11291   0.645   6.056   9.425  0.5310 -0.1215  0.2709
  109OSM    H9F11292   0.652   6.100   9.526 -1.9422  1.2843 -0.0722
  109OSM   C10F11293   0.757   6.031   9.357 -0.4279  0.2795 -0.2140
  109OSM   H10F11294   0.855   6.068   9.392  0.1471 -0.2633 -1.1933
  109OSM   C11F11295   0.791   5.968   9.219  0.1271  0.3144  0.9145
  109OSM   H11F11296   0.874   6.014   9.162 -0.2438  0.2967  0.3570
  109OSM   H11G11297   0.696   5.964   9.162  0.1052  1.4107  0.8552
  109OSM   C12F11298   0.819   5.816   9.227  0.0846 -0.4472  0.0347
  109OSM   H12F11299   0.733   5.759   9.270  1.0113 -2.0671 -0.1674
  109OSM   H12G11300   0.901   5.785   9.296 -1.1894 -0.8567  1.4349
  109OSM   C13F11301   0.838   5.751   9.093 -0.1979  0.2787 -0.0344
  109OSM   H13F11302   0.764   5.801   9.029  0.7081  1.8443  0.0883
  109OSM   H13G11303   0.813   5.644   9.112 -2.8833  1.2034  2.4421
  109OSM   C14F11304   0.985   5.766   9.032 -0.1066 -0.2300 -0.0249
  109OSM   H14F11305   1.049   5.684   9.071  1.5359  0.0095 -2.0932
  109OSM   H14G11306   1.020   5.858   9.084 -1.1738  0.2677 -0.1756
  109OSM   C15F11307   0.987   5.784   8.883  0.8675 -0.2758  0.3603
  109OSM   H15F11308   0.904   5.855   8.864 -0.5125 -1.7455  0.7524
  109OSM   H15G11309   0.947   5.690   8.839  1.0499 -0.3756  0.4049
  109OSM   C16F11310   1.123   5.817   8.816 -0.1084 -0.5427 -0.3415
  109OSM   H16F11311   1.202   5.757   8.864  2.0802  0.6657 -2.2462
  109OSM   H16G11312   1.141   5.922   8.847 -2.0560 -0.2393 -0.0691
  109OSM   C17F11313   1.121   5.796   8.663  0.3478  0.8310  0.8431
  109OSM   H17F11314   1.045   5.866   8.623 -1.2385 -0.2969  1.7948
  109OSM   H17G11315   1.087   5.697   8.627  3.6799  0.2832 -1.2340
  109OSM   C18F11316   1.254   5.828   8.589  0.2739  0.0220 -0.1329
  109OSM   H18F11317   1.328   5.746   8.595  0.8653  0.6639  2.3842
  109OSM   H18G11318   1.310   5.919   8.620  0.4763  0.3612 -1.4212
  109OSM   H18H11319   1.231   5.829   8.480  0.4425 -1.4140 -0.1973
  110OSM      N11320   0.986   4.719  10.871  0.4386  0.6360  0.4419
  110OSM    C1511321   0.943   4.603  10.953  0.5479  0.1654  0.3470
  110OSM   H15A11322   0.839   4.628  10.968  0.8532  1.4725  0.3772
  110OSM   H15B11323   0.997   4.592  11.046  0.8686  1.6080  0.3501
  110OSM   H15C11324   0.960   4.511  10.899  1.4449 -0.5169  1.7400
  110OSM    C1411325   0.982   4.835  10.962 -0.1109  0.4313  0.0493
  110OSM   H14A11326   0.888   4.851  11.013 -0.1084 -0.2920  0.2932
  110OSM   H14B11327   0.985   4.927  10.905 -2.9428  1.6019  1.5744
  110OSM   H14C11328   1.059   4.829  11.037 -1.2870  0.4772  1.3040
  110OSM    C1311329   1.127   4.702  10.832  0.2554 -0.8218 -0.4165
  110OSM   H13A11330   1.143   4.600  10.798  1.6312 -0.6981 -0.1993
  110OSM   H13B11331   1.195   4.720  10.914 -2.3623 -0.1332  1.7143
  110OSM   H13C11332   1.153   4.767  10.750  0.8233 -0.0581  0.3497
  110OSM    C1211333   0.899   4.730  10.751  0.1978  0.1469 -0.0175
  110OSM   H12A11334   0.798   4.725  10.789  0.5613 -3.8440  0.8590
  110OSM   H12B11335   0.923   4.643  10.691  1.4368 -0.3847  1.1872
  110OSM    C1111336   0.911   4.853  10.664  0.1174 -0.1586 -0.0471
  110OSM   H11A11337   0.867   4.848  10.563  1.9966  0.2953 -0.9471
  110OSM   H11B11338   1.016   4.873  10.632  0.0162  0.1920 -0.1691
  110OSM      P11339   0.708   4.997  10.739 -0.1657 -0.1606  0.0909
  110OSM    O1311340   0.632   4.901  10.818  0.3282  0.0353  0.3300
  110OSM    O1411341   0.690   5.139  10.774  0.2379 -0.2559 -0.5253
  110OSM    O1111342   0.673   4.981  10.583  0.4548  0.5140 -0.3270
  110OSM    O1211343   0.862   4.967  10.730 -0.0216 -0.6127 -0.0625
  110OSM    C1S11344   0.668   5.099  10.511 -0.3183  0.0058 -0.5920
  110OSM    H1S11345   0.771   5.141  10.512 -0.2965  0.0182 -2.1127
  110OSM    H1T11346   0.593   5.171  10.550  1.6844  0.7012  2.3384
  110OSM     NF11347   0.670   5.184  10.278 -0.0566  0.1642  0.1731
  110OSM    HNF11348   0.588   5.231  10.246 -1.7525 -2.2516  0.7193
  110OSM    C2S11349   0.648   5.069  10.359  0.2348  0.5054  0.8320
  110OSM    H2S11350   0.726   4.994  10.335  0.7582  0.9880  1.0126
  110OSM    C3S11351   0.507   5.004  10.334  0.2340  0.4611  0.1517
  110OSM    H3S11352   0.432   5.077  10.372  0.2175  0.3651  0.3036
  110OSM     O311353   0.495   4.888  10.418 -0.0177  0.7209 -0.1143
  110OSM    HO311354   0.575   4.893  10.471  0.2580  1.3752 -0.5678
  110OSM    C4S11355   0.487   4.967  10.194 -0.3646 -0.2713  0.5001
  110OSM    H4S11356   0.535   4.872  10.166 -0.5574 -0.9049  2.1634
  110OSM    C5S11357   0.411   5.034  10.101  0.1779  0.2388 -0.0871
  110OSM    H5S11358   0.357   5.124  10.132 -0.5842 -0.1035 -0.3992
  110OSM    C6S11359   0.403   4.987   9.962 -0.7889 -0.0707  0.7969
  110OSM    H6S11360   0.299   4.991   9.921 -0.5585 -0.3361  0.1830
  110OSM    H6T11361   0.417   4.877   9.958 -0.6113 -0.0109 -1.6129
  110OSM    C7S11362   0.503   5.042   9.866 -0.5705 -0.3351  0.5348
  110OSM    H7S11363   0.603   5.032   9.914  0.2535 -1.5263 -1.3275
  110OSM    H7T11364   0.499   5.153   9.859  1.6045 -0.1786  1.1084
  110OSM    C8S11365   0.492   4.983   9.721 -0.9005  0.4784  0.2862
  110OSM    H8S11366   0.494   4.872   9.716  0.2468  0.3132  2.6686
  110OSM    H8T11367   0.590   5.015   9.679 -0.8114 -0.7957 -0.5419
  110OSM    C9S11368   0.377   5.036   9.639  0.2848  0.0216  0.5270
  110OSM    H9S11369   0.352   5.141   9.664 -0.7439 -0.2865  0.8469
  110OSM    H9T11370   0.284   4.988   9.675  0.0237  0.6301  0.6657
  110OSM   C10S11371   0.396   5.032   9.488 -0.0006 -0.6699  0.7242
  110OSM   H10S11372   0.480   5.100   9.462 -0.1975 -0.7490 -0.1728
  110OSM   H10T11373   0.310   5.089   9.447 -1.0454 -3.0211 -0.5389
  110OSM   C11S11374   0.407   4.907   9.407 -0.5495  0.0814  0.3948
  110OSM   H11S11375   0.355   4.824   9.459  0.9030 -1.2668 -0.2176
  110OSM   H11T11376   0.511   4.869   9.420 -1.6446 -2.8035  1.2973
  110OSM   C12S11377   0.363   4.911   9.256  0.4758 -0.1273 -0.0311
  110OSM   H12S11378   0.311   5.005   9.229  3.0088  1.4534  0.2567
  110OSM   H12T11379   0.290   4.829   9.244 -0.0447 -0.1243  2.5985
  110OSM   C13S11380   0.474   4.872   9.161 -0.1362  0.2374 -0.8383
  110OSM   H13S11381   0.527   4.780   9.191 -1.0681 -0.3778 -1.0286
  110OSM   H13T11382   0.542   4.959   9.174 -0.3187  0.1550  0.9399
  110OSM   C14S11383   0.432   4.863   9.017 -0.0167  0.2255 -0.3155
  110OSM   H14S11384   0.370   4.954   9.001 -0.1564  0.2389  0.2909
  110OSM   H14T11385   0.363   4.778   8.999 -1.5091  1.2427  0.4226
  110OSM   C15S11386   0.554   4.862   8.922 -0.5745  0.2967 -0.0736
  110OSM   H15S11387   0.601   4.763   8.935  1.0071  1.1298  0.8028
  110OSM   H15T11388   0.639   4.930   8.945  1.6800 -2.0918 -0.9318
  110OSM   C16S11389   0.515   4.901   8.780 -0.2196 -0.5020  0.3961
  110OSM   H16S11390   0.475   5.004   8.782  0.7698 -0.1118  2.0314
  110OSM   H16T11391   0.454   4.823   8.729 -0.6872  0.5953 -0.7521
  110OSM   C17S11392   0.638   4.919   8.686 -0.7543  0.0272 -0.5620
  110OSM   H17S11393   0.705   4.833   8.708  0.1195  0.9324  0.4860
  110OSM   H17T11394   0.694   5.012   8.709  0.6204 -1.1267  0.9921
  110OSM   C18S11395   0.604   4.915   8.539  0.2449 -0.1232  0.1665
  110OSM   H18S11396   0.690   4.949   8.478 -0.2129  0.3242 -0.2412
  110OSM   H18T11397   0.525   4.990   8.518 -1.6065 -1.6819  1.2253
  110OSM   H18U11398   0.570   4.815   8.505  0.4319 -0.0932 -0.1092
  110OSM    C1F11399   0.794   5.225  10.251 -0.2050 -0.3001 -0.4423
  110OSM     OF11400   0.898   5.162  10.281  1.0548  0.1925  0.0488
  110OSM    C2F11401   0.813   5.353  10.179  0.1165  0.5952  0.3422
  110OSM    H2F11402   0.842   5.427  10.257  0.8661  0.6070  0.0610
  110OSM    H2G11403   0.713   5.374  10.135  0.2001 -3.4386 -2.3262
  110OSM    C3F11404   0.905   5.339  10.054 -0.2280  0.2510  0.1341
  110OSM    H3F11405   1.010   5.328  10.088  0.5615  1.0069 -1.8456
  110OSM    H3G11406   0.899   5.433   9.994 -0.2937  1.8278  2.4662
  110OSM    C4F11407   0.876   5.230   9.952  0.1814  0.1927  0.0963
  110OSM    H4F11408   0.795   5.253   9.880  1.4109 -2.2846 -2.2646
  110OSM    H4G11409   0.857   5.133  10.003 -0.7384  0.9603  1.2725
  110OSM    C5F11410   0.995   5.195   9.860  0.1375  0.3658 -0.0505
  110OSM    H5F11411   1.077   5.161   9.927 -0.1317  0.5219  0.3595
  110OSM    H5G11412   1.037   5.285   9.810 -0.6367  0.8913  0.2351
  110OSM    C6F11413   0.959   5.094   9.753  0.8811  0.4637  1.0642
  110OSM    H6F11414   0.915   5.006   9.805 -1.2634  1.2107  0.6125
  110OSM    H6G11415   1.051   5.067   9.697  0.2349 -0.0159  0.2134
  110OSM    C7F11416   0.857   5.144   9.651  0.5333 -0.7632  0.2147
  110OSM    H7F11417   0.875   5.247   9.612  0.5220 -0.0652  1.9628
  110OSM    H7G11418   0.754   5.160   9.690  1.1273  2.5387  0.7643
  110OSM    C8F11419   0.862   5.042   9.535 -0.4212 -0.3359 -0.1463
  110OSM    H8F11420   0.810   4.945   9.553  0.7669 -1.1922 -1.1521
  110OSM    H8G11421   0.968   5.018   9.511 -0.4402 -0.0413 -0.5282
  110OSM    C9F11422   0.784   5.095   9.413 -0.3695 -0.0599 -0.2629
  110OSM    H9F11423   0.681   5.126   9.436 -0.6505 -1.2629  0.1713
  110OSM   C10F11424   0.832   5.091   9.288 -0.6181 -0.6095 -0.0335
  110OSM   H10F11425   0.777   5.136   9.204  0.3518 -1.8979 -1.4198
  110OSM   C11F11426   0.960   5.027   9.236  0.1993 -0.0659 -0.0496
  110OSM   H11F11427   0.940   4.918   9.233 -0.5132  0.0061  1.3337
  110OSM   H11G11428   1.037   5.033   9.315 -0.3661 -1.7181  0.6726
  110OSM   C12F11429   1.015   5.087   9.103  0.1355  0.1185  0.3869
  110OSM   H12F11430   1.101   5.022   9.078  0.1551  0.1407  0.3962
  110OSM   H12G11431   1.043   5.194   9.115 -1.0346  0.5202 -0.3430
  110OSM   C13F11432   0.915   5.069   8.988  0.2690 -0.0340  0.7418
  110OSM   H13F11433   0.834   5.141   9.011 -0.1079 -0.6416  1.3570
  110OSM   H13G11434   0.862   4.971   8.988 -1.1719  0.2890 -5.8451
  110OSM   C14F11435   0.968   5.094   8.848  0.3071  0.1270 -0.3696
  110OSM   H14F11436   0.917   5.031   8.772  0.7657 -0.5320 -0.1471
  110OSM   H14G11437   1.070   5.049   8.849  1.4668  2.5213  1.4560
  110OSM   C15F11438   0.974   5.243   8.812 -0.3286  0.2179 -0.1210
  110OSM   H15F11439   1.060   5.290   8.862  0.2493  0.2203 -1.0978
  110OSM   H15G11440   0.880   5.283   8.856 -0.3653 -1.4645  1.4441
  110OSM   C16F11441   0.982   5.274   8.664 -0.1556 -0.4451 -0.2639
  110OSM   H16F11442   0.901   5.218   8.612  0.0642 -1.3791  0.3917
  110OSM   H16G11443   1.078   5.238   8.622 -0.1560 -1.9379  0.9658
  110OSM   C17F11444   0.993   5.428   8.645  1.1211 -0.2325 -0.0123
  110OSM   H17F11445   1.096   5.463   8.663  0.8664 -0.0331  1.1523
  110OSM   H17G11446   0.939   5.473   8.731  0.9406 -1.8297  0.7667
  110OSM   C18F11447   0.951   5.466   8.505  0.4852  0.6028 -0.5361
  110OSM   H18F11448   1.004   5.408   8.426  0.8398 -0.9084  0.7531
  110OSM   H18G11449   0.983   5.572   8.492  0.6334  0.7278  0.6714
  110OSM   H18H11450   0.841   5.454   8.497  0.3932  0.3099  0.9093
  111OSM      N11451   1.942   0.100  10.951 -0.7319 -0.6904  0.3379
  111OSM    C1511452   1.827   0.185  10.993  0.6814 -0.6280 -0.2058
  111OSM   H15A11453   1.857   0.260  11.064  3.6238 -1.3744 -0.5112
  111OSM   H15B11454   1.760   0.117  11.044  1.4200 -0.8123  0.5410
  111OSM   H15C11455   1.787   0.239  10.908  1.6509  1.9273  0.8583
  111OSM    C1411456   1.980   0.012  11.060  0.1482  0.3868 -0.5856
  111OSM   H14A11457   2.057  -0.051  11.018 -0.1056 -0.0582 -0.3820
  111OSM   H14B11458   1.903  -0.053  11.097  2.1187 -0.1109  3.1117
  111OSM   H14C11459   2.014   0.065  11.148 -1.2660 -0.9726  0.8175
  111OSM    C1311460   1.898   0.025  10.836 -0.8333 -0.4651  0.5565
  111OSM   H13A11461   1.868   0.097  10.762 -0.2624 -1.0108 -0.2282
  111OSM   H13B11462   1.816  -0.041  10.858 -1.3360 -0.2059 -0.4628
  111OSM   H13C11463   1.975  -0.040  10.796 -2.3572 -2.1278  0.1939
  111OSM    C1211464   2.061   0.192  10.918  0.7086  0.4472 -0.2421
  111OSM   H12A11465   2.148   0.129  10.907  0.9078  0.2539  2.0755
  111OSM   H12B11466   2.065   0.258  11.002 -0.1876 -1.0535  1.0362
  111OSM    C1111467   2.057   0.286  10.793  0.1192 -0.3410 -0.2101
  111OSM   H11A11468   2.041   0.236  10.696  0.7154 -0.7252 -0.1187
  111OSM   H11B11469   2.154   0.341  10.796  0.2229 -0.5524  1.4457
  111OSM      P11470   1.964   0.528  10.868 -0.3474 -0.1078  0.0941
  111OSM    O1311471   1.835   0.558  10.933  0.1012  0.2390 -0.4937
  111OSM    O1411472   2.084   0.514  10.950  0.4833 -0.0537  0.5357
  111OSM    O1111473   1.982   0.635  10.751 -0.0896 -0.7440 -0.1483
  111OSM    O1211474   1.950   0.388  10.801  0.4848  0.2949  0.0165
  111OSM    C1S11475   1.968   0.604  10.613 -0.0676 -0.0418  0.5900
  111OSM    H1S11476   1.864   0.565  10.607 -0.3421  0.1217  3.1873
  111OSM    H1T11477   2.034   0.522  10.578 -1.2673 -1.7929  2.2404
  111OSM     NF11478   1.931   0.702  10.391 -0.0531 -0.1133  0.0866
  111OSM    HNF11479   1.999   0.694  10.319 -0.8184  1.3443 -0.8523
  111OSM    C2S11480   1.970   0.735  10.528 -0.0180 -0.1452 -0.2144
  111OSM    H2S11481   1.890   0.801  10.567 -0.2161 -0.6732  0.2886
  111OSM    C3S11482   2.100   0.809  10.545 -0.5990  0.0773 -0.4759
  111OSM    H3S11483   2.179   0.734  10.524 -0.7619 -0.8255  1.7458
  111OSM     O311484   2.119   0.849  10.676  0.2930 -0.0939 -0.3351
  111OSM    HO311485   2.062   0.796  10.733 -0.9941  0.7511 -0.7938
  111OSM    C4S11486   2.110   0.917  10.445 -0.0217 -0.2099  0.6056
  111OSM    H4S11487   2.180   0.886  10.367  2.5816  1.9405  1.8930
  111OSM    C5S11488   2.059   1.041  10.423  0.1226 -1.0400 -0.1854
  111OSM    H5S11489   1.996   1.096  10.495  0.9483  0.0479 -0.2705
  111OSM    C6S11490   2.095   1.128  10.299 -0.6531  0.0458  0.3274
  111OSM    H6S11491   2.095   1.235  10.330  0.1999 -0.4789  2.2699
  111OSM    H6T11492   2.007   1.115  10.233 -0.3919  1.0655 -0.2483
  111OSM    C7S11493   2.225   1.113  10.219 -0.0021  0.2216 -0.2398
  111OSM    H7S11494   2.228   1.015  10.166 -0.2929  0.4314 -0.6474
  111OSM    H7T11495   2.303   1.119  10.298 -1.5808 -0.2348  1.3995
  111OSM    C8S11496   2.253   1.213  10.103 -0.3329 -0.3582  0.0438
  111OSM    H8S11497   2.352   1.193  10.057 -2.0318 -2.2173 -3.1560
  111OSM    H8T11498   2.242   1.314  10.146  1.7101 -0.2836  0.4652
  111OSM    C9S11499   2.156   1.206   9.988  0.2936 -0.2840  0.9581
  111OSM    H9S11500   2.057   1.182  10.032 -0.1484  0.4105  0.3798
  111OSM    H9T11501   2.180   1.120   9.921 -1.2082 -0.7968  1.0519
  111OSM   C10S11502   2.153   1.326   9.895 -0.3846  0.1685  0.5019
  111OSM   H10S11503   2.220   1.307   9.808 -2.0967 -3.4144 -0.2294
  111OSM   H10T11504   2.169   1.422   9.949 -1.9215  0.1306  1.0804
  111OSM   C11S11505   2.016   1.344   9.832 -0.7501 -0.2861  0.4454
  111OSM   H11S11506   1.944   1.370   9.912 -2.8106  1.6248 -1.8921
  111OSM   H11T11507   1.990   1.254   9.772  0.9664  1.3573 -3.0973
  111OSM   C12S11508   2.029   1.460   9.731  0.7890 -0.0730 -0.7564
  111OSM   H12S11509   1.932   1.456   9.679  0.3640 -2.7107  0.0741
  111OSM   H12T11510   2.100   1.438   9.648  1.2640  2.3116 -1.0651
  111OSM   C13S11511   2.067   1.605   9.782  0.0429 -0.4778  0.0983
  111OSM   H13S11512   2.156   1.603   9.848  1.5309  0.9791 -1.7693
  111OSM   H13T11513   1.986   1.647   9.846  0.1953  0.6059 -0.3880
  111OSM   C14S11514   2.111   1.716   9.685  0.2632  0.0689  0.3427
  111OSM   H14S11515   2.019   1.757   9.640  0.0338 -1.1746 -0.3630
  111OSM   H14T11516   2.162   1.668   9.599 -1.4330 -2.4559  0.6220
  111OSM   C15S11517   2.179   1.843   9.758  0.6531  0.5170 -0.2650
  111OSM   H15S11518   2.263   1.821   9.827  1.7829 -1.6825 -2.2036
  111OSM   H15T11519   2.100   1.902   9.809  0.2351 -0.0286 -0.2664
  111OSM   C16S11520   2.244   1.935   9.651  0.2937  0.0421 -0.4561
  111OSM   H16S11521   2.162   1.996   9.607 -0.6616  0.7417  2.0879
  111OSM   H16T11522   2.292   1.866   9.579  0.8731 -0.6504  0.5627
  111OSM   C17S11523   2.354   2.038   9.701  0.4130  0.9692  0.2000
  111OSM   H17S11524   2.295   2.089   9.780 -1.8656  1.1843 -1.5349
  111OSM   H17T11525   2.381   2.096   9.610 -0.2267  1.4117  0.2838
  111OSM   C18S11526   2.484   1.974   9.758 -0.1470  0.4335  0.8342
  111OSM   H18S11527   2.462   1.886   9.822  3.5108 -0.6662  0.8078
  111OSM   H18T11528   2.544   2.050   9.813  2.2092 -0.2953 -0.5867
  111OSM   H18U11529   2.541   1.947   9.667 -1.2844 -0.0363  0.2491
  111OSM    C1F11530   1.803   0.657  10.365 -0.2424 -0.6114 -0.5079
  111OSM     OF11531   1.712   0.697  10.442 -0.1480 -0.4210 -0.4271
  111OSM    C2F11532   1.782   0.571  10.240 -0.0364  0.3312 -0.4870
  111OSM    H2F11533   1.790   0.466  10.277 -1.2722 -0.7074 -2.9547
  111OSM    H2G11534   1.867   0.583  10.169 -0.1390 -3.1934 -1.4179
  111OSM    C3F11535   1.649   0.600  10.176  0.4294 -0.2727  0.4705
  111OSM    H3F11536   1.631   0.705  10.143 -2.0001 -1.4928 -2.5457
  111OSM    H3G11537   1.568   0.560  10.240 -0.8044 -1.4490 -1.7225
  111OSM    C4F11538   1.644   0.503  10.044  0.4437 -0.3974  0.3431
  111OSM    H4F11539   1.680   0.402  10.073  0.7447 -0.3700  0.0655
  111OSM    H4G11540   1.715   0.559   9.980  0.5338 -0.5243  0.3328
  111OSM    C5F11541   1.500   0.502   9.987 -0.1124 -0.6426 -0.0230
  111OSM    H5F11542   1.469   0.608  10.000  0.5762 -0.4544  0.1456
  111OSM    H5G11543   1.443   0.445  10.064  0.0012 -0.3404  0.2892
  111OSM    C6F11544   1.483   0.447   9.843 -0.5410  0.3089  0.5441
  111OSM    H6F11545   1.374   0.435   9.829 -0.1436 -1.6794 -1.5241
  111OSM    H6G11546   1.532   0.350   9.818 -0.0516  0.7638 -0.3341
  111OSM    C7F11547   1.532   0.559   9.743  0.1945  0.4143  0.3377
  111OSM    H7F11548   1.639   0.579   9.764 -0.1505  1.2289  1.3991
  111OSM    H7G11549   1.471   0.650   9.757 -0.3283 -0.0417  1.1179
  111OSM    C8F11550   1.524   0.507   9.599 -0.5434  0.4182 -1.1332
  111OSM    H8F11551   1.426   0.459   9.580 -1.1975  2.2679 -2.7879
  111OSM    H8G11552   1.597   0.424   9.586 -1.6530 -0.6116 -1.0418
  111OSM    C9F11553   1.554   0.623   9.508  0.3604 -0.0081 -0.0564
  111OSM    H9F11554   1.647   0.673   9.539  0.4058  0.7768 -1.3855
  111OSM   C10F11555   1.494   0.647   9.384 -1.2979  0.2376 -0.7155
  111OSM   H10F11556   1.513   0.744   9.336 -1.4343  1.2047  1.0864
  111OSM   C11F11557   1.380   0.571   9.327  0.2934  0.1979  0.3115
  111OSM   H11F11558   1.320   0.633   9.258  0.3570  0.0046  0.0770
  111OSM   H11G11559   1.301   0.557   9.403 -2.8527  3.3935 -2.0778
  111OSM   C12F11560   1.403   0.433   9.267 -0.0099 -0.5264 -0.2685
  111OSM   H12F11561   1.309   0.377   9.248  1.2305 -2.7945 -0.1324
  111OSM   H12G11562   1.455   0.373   9.345  1.9798 -0.4137 -1.4376
  111OSM   C13F11563   1.490   0.438   9.146 -0.0984  0.0248  0.0460
  111OSM   H13F11564   1.518   0.331   9.129 -0.5412 -0.4553  2.0131
  111OSM   H13G11565   1.576   0.505   9.164  0.3782  0.3190 -2.8035
  111OSM   C14F11566   1.419   0.490   9.022  0.1830 -0.3561 -0.1445
  111OSM   H14F11567   1.361   0.576   9.060 -1.2768 -0.6635 -1.5602
  111OSM   H14G11568   1.349   0.414   8.982 -0.6167  0.7767 -0.9489
  111OSM   C15F11569   1.514   0.536   8.911 -0.4952  0.0189 -0.3388
  111OSM   H15F11570   1.606   0.475   8.904 -1.2175 -1.0427 -0.7299
  111OSM   H15G11571   1.542   0.638   8.945  1.0453 -1.4277  3.1985
  111OSM   C16F11572   1.451   0.534   8.779  0.5331  0.2786 -0.5653
  111OSM   H16F11573   1.499   0.610   8.712 -0.1970  2.3464  1.1389
  111OSM   H16G11574   1.346   0.555   8.808  0.0197 -1.0099 -1.4150
  111OSM   C17F11575   1.421   0.394   8.722 -0.0974 -0.1339  0.3880
  111OSM   H17F11576   1.347   0.400   8.639 -1.6839  1.0171  1.8074
  111OSM   H17G11577   1.367   0.336   8.800 -1.4901  1.1417  0.4424
  111OSM   C18F11578   1.541   0.311   8.670 -0.0324  0.2838  0.2076
  111OSM   H18F11579   1.587   0.358   8.580  1.7455 -0.3301  0.7561
  111OSM   H18G11580   1.523   0.206   8.638  0.5719  0.0713  0.5714
  111OSM   H18H11581   1.624   0.311   8.743  0.5308 -2.3698 -0.3002
  112OSM      N11582   3.277   4.875  11.200  0.3940 -0.1000 -0.3239
  112OSM    C1511583   3.424   4.873  11.166 -0.1498  0.3725 -0.3172
  112OSM   H15A11584   3.453   4.798  11.094  0.7567  0.4598 -0.0560
  112OSM   H15B11585   3.486   4.843  11.250  2.1838  0.3382 -1.9600
  112OSM   H15C11586   3.459   4.965  11.121  0.7407 -0.0483 -0.5045
  112OSM    C1411587   3.247   4.754  11.274 -0.3920  0.6612 -0.1384
  112OSM   H14A11588   3.251   4.665  11.212 -2.0687  0.9986 -0.8095
  112OSM   H14B11589   3.148   4.747  11.316 -0.4658  1.3504 -0.1841
  112OSM   H14C11590   3.326   4.743  11.346 -2.3200 -0.1803  1.9697
  112OSM    C1311591   3.256   4.981  11.294 -0.0696 -0.3532 -0.0080
  112OSM   H13A11592   3.313   4.971  11.385 -1.4237 -0.7324  0.8240
  112OSM   H13B11593   3.151   4.991  11.315  0.5250  0.4727  3.1473
  112OSM   H13C11594   3.295   5.070  11.247  0.1194 -0.2959  0.2576
  112OSM    C1211595   3.197   4.894  11.074 -0.0778  0.3748  0.7508
  112OSM   H12A11596   3.230   4.831  10.993 -2.1793  0.8118 -0.5190
  112OSM   H12B11597   3.214   4.994  11.037 -0.9558  0.4082  0.4286
  112OSM    C1111598   3.043   4.872  11.083 -0.0273  0.7432  0.0243
  112OSM   H11A11599   3.019   4.775  11.131 -3.6061 -0.0366 -2.8561
  112OSM   H11B11600   2.991   4.851  10.987 -1.1805 -0.6246  0.9092
  112OSM      P11601   2.925   5.102  11.104  0.1616  0.1347 -0.3990
  112OSM    O1311602   2.835   5.172  11.194  0.1768  1.1866 -0.4423
  112OSM    O1411603   3.039   5.177  11.051 -0.4478 -0.5644  0.1926
  112OSM    O1111604   2.837   5.049  10.972 -0.1074 -0.3359 -0.0042
  112OSM    O1211605   2.980   4.968  11.160 -0.0401  0.0765 -0.7788
  112OSM    C1S11606   2.761   5.149  10.901  0.1816 -0.6617 -0.0894
  112OSM    H1S11607   2.820   5.243  10.894 -1.7082  0.5443 -0.2642
  112OSM    H1T11608   2.666   5.165  10.957 -0.5933  0.2840 -1.6313
  112OSM     NF11609   2.660   5.228  10.702 -0.0697 -0.6755 -0.6504
  112OSM    HNF11610   2.560   5.225  10.696 -0.5032 -1.4577  3.7635
  112OSM    C2S11611   2.714   5.110  10.759  0.0223 -0.1805 -0.7904
  112OSM    H2S11612   2.800   5.077  10.697  0.6581 -1.3085  0.6278
  112OSM    C3S11613   2.620   4.984  10.775  0.0985  0.1919 -0.0217
  112OSM    H3S11614   2.543   5.006  10.852 -0.9015 -1.5218 -0.4760
  112OSM     O311615   2.697   4.867  10.817 -0.2473 -0.3526 -0.6225
  112OSM    HO311616   2.770   4.913  10.860 -2.2438  1.2101  1.3076
  112OSM    C4S11617   2.545   4.958  10.645 -0.1042 -0.4604 -0.1957
  112OSM    H4S11618   2.441   4.994  10.644 -0.0974 -0.4567 -0.8860
  112OSM    C5S11619   2.588   4.890  10.534  0.4130 -0.0384 -0.5766
  112OSM    H5S11620   2.693   4.859  10.531  0.6146  0.2819  1.6172
  112OSM    C6S11621   2.510   4.874  10.404 -0.5613  0.5202 -0.5354
  112OSM    H6S11622   2.445   4.784  10.413 -1.8751  1.4677 -0.2005
  112OSM    H6T11623   2.595   4.863  10.333 -1.1674  1.0943 -1.3641
  112OSM    C7S11624   2.424   4.982  10.364 -0.0124  0.2023 -0.1645
  112OSM    H7S11625   2.468   5.083  10.379  0.4407  0.4893 -2.9120
  112OSM    H7T11626   2.335   4.968  10.430  0.1684  0.9895  0.2612
  112OSM    C8S11627   2.365   4.965  10.226  0.4190  0.0063  0.1907
  112OSM    H8S11628   2.305   4.872  10.225 -2.3014  1.6244  1.3036
  112OSM    H8T11629   2.444   4.960  10.148 -0.3027 -0.6806 -0.5075
  112OSM    C9S11630   2.275   5.085  10.190  0.7703 -0.4228  0.0088
  112OSM    H9S11631   2.345   5.169  10.169 -1.1649  1.1076 -0.7422
  112OSM    H9T11632   2.207   5.112  10.274 -0.1100 -1.9790 -0.1655
  112OSM   C10S11633   2.190   5.063  10.066 -0.9690  0.6836  0.0302
  112OSM   H10S11634   2.142   4.963  10.071 -1.7173  0.9485 -1.3221
  112OSM   H10T11635   2.251   5.068   9.973 -0.0199 -0.8245  0.5448
  112OSM   C11S11636   2.083   5.174  10.057  0.1483 -0.6810  0.5304
  112OSM   H11S11637   2.138   5.270  10.054 -0.9770 -0.0331 -0.4212
  112OSM   H11T11638   2.015   5.162  10.145  0.2622 -1.8939  0.4728
  112OSM   C12S11639   2.003   5.162   9.928 -0.1306  0.0944  0.5717
  112OSM   H12S11640   1.916   5.231   9.930  0.2024  0.5069  1.5812
  112OSM   H12T11641   1.958   5.061   9.919 -0.8149  0.3658  0.8821
  112OSM   C13S11642   2.066   5.182   9.790 -0.1749  0.6576  1.2952
  112OSM   H13S11643   2.164   5.129   9.784 -1.0262 -0.8567 -0.0698
  112OSM   H13T11644   2.083   5.291   9.772  0.1226  0.2856 -1.0410
  112OSM   C14S11645   1.985   5.126   9.674 -0.3794 -0.3066  0.8023
  112OSM   H14S11646   1.884   5.172   9.681  0.1240  0.7112  1.7633
  112OSM   H14T11647   1.971   5.016   9.681 -1.1334 -0.1638  1.8910
  112OSM   C15S11648   2.056   5.154   9.541  0.4589 -0.3941 -0.1201
  112OSM   H15S11649   2.164   5.131   9.547  0.2280 -1.2531  1.2402
  112OSM   H15T11650   2.058   5.263   9.520  0.3625  0.2573  2.7998
  112OSM   C16S11651   1.970   5.101   9.427 -0.3416  0.3392  0.5788
  112OSM   H16S11652   1.863   5.131   9.437 -1.3518 -1.6327 -2.8402
  112OSM   H16T11653   1.981   4.991   9.426 -0.2863  0.3490 -0.1482
  112OSM   C17S11654   2.027   5.155   9.297 -1.0471  0.2253 -0.5867
  112OSM   H17S11655   2.130   5.123   9.271 -0.3077  0.9212  1.2656
  112OSM   H17T11656   2.032   5.266   9.303 -2.2186  0.3159 -0.9150
  112OSM   C18S11657   1.940   5.120   9.177  0.1201 -0.0373  0.9491
  112OSM   H18S11658   1.939   5.009   9.167  0.5512 -0.0941  1.4836
  112OSM   H18T11659   1.976   5.157   9.079  0.9796 -0.3608  1.1332
  112OSM   H18U11660   1.840   5.164   9.197  0.4761  1.0904  0.3266
  112OSM    C1F11661   2.724   5.333  10.667  0.0122  0.1502  0.3548
  112OSM     OF11662   2.843   5.343  10.698  0.0581  0.0737 -0.3086
  112OSM    C2F11663   2.655   5.446  10.598  0.8698 -0.2844 -0.1513
  112OSM    H2F11664   2.645   5.518  10.683  1.0151  0.5036 -0.7932
  112OSM    H2G11665   2.566   5.402  10.547  0.9183  0.4695 -0.9079
  112OSM    C3F11666   2.748   5.503  10.487 -0.6285 -0.1573 -0.8194
  112OSM    H3F11667   2.855   5.503  10.518 -0.5272  0.0612 -1.1591
  112OSM    H3G11668   2.714   5.603  10.451 -1.4668  0.3982  1.3654
  112OSM    C4F11669   2.748   5.415  10.361  0.1931 -0.3422  0.2230
  112OSM    H4F11670   2.641   5.386  10.348 -0.1959  1.7909 -2.1970
  112OSM    H4G11671   2.795   5.317  10.383  1.0654  0.2519  1.0867
  112OSM    C5F11672   2.814   5.476  10.237 -0.1952  0.0470  0.7099
  112OSM    H5F11673   2.921   5.481  10.267  0.4739 -1.7587 -1.1056
  112OSM    H5G11674   2.774   5.579  10.226  0.3821  0.3001  0.9585
  112OSM    C6F11675   2.803   5.398  10.108 -0.3517 -0.0484 -0.4390
  112OSM    H6F11676   2.869   5.309  10.110 -0.6771 -0.2786  0.2840
  112OSM    H6G11677   2.851   5.452  10.023 -0.1629 -1.4386 -1.2378
  112OSM    C7F11678   2.669   5.345  10.062  0.1583 -0.4236 -0.0241
  112OSM    H7F11679   2.621   5.434  10.018  0.4767  0.0488  0.5691
  112OSM    H7G11680   2.620   5.307  10.155  1.1060 -0.5667  0.4372
  112OSM    C8F11681   2.679   5.233   9.958 -0.4150 -0.1815  0.5634
  112OSM    H8F11682   2.715   5.140  10.008 -0.7245 -0.6043  0.0113
  112OSM    H8G11683   2.755   5.263   9.883  0.0359 -0.6677  0.8192
  112OSM    C9F11684   2.542   5.203   9.911 -0.1734 -0.1159  0.0251
  112OSM    H9F11685   2.470   5.180   9.991  1.0336  1.3194  1.6084
  112OSM   C10F11686   2.490   5.201   9.784 -0.3345 -0.6650  0.0172
  112OSM   H10F11687   2.382   5.180   9.783 -0.5192  0.2399 -0.7839
  112OSM   C11F11688   2.565   5.228   9.652 -0.4443 -0.4580 -0.4724
  112OSM   H11F11689   2.670   5.254   9.676 -0.0768 -0.7830 -1.6802
  112OSM   H11G11690   2.524   5.319   9.603 -1.6396 -0.8415 -0.2182
  112OSM   C12F11691   2.587   5.100   9.559 -0.2341  0.3599  0.2164
  112OSM   H12F11692   2.647   5.025   9.615  1.2469  0.1043 -1.6436
  112OSM   H12G11693   2.647   5.133   9.472 -0.6819  0.7216  0.0347
  112OSM   C13F11694   2.449   5.046   9.511  0.1089  0.2531  0.1675
  112OSM   H13F11695   2.377   5.130   9.516 -0.2589 -0.0354 -0.2394
  112OSM   H13G11696   2.413   4.983   9.595  0.4934 -0.3965 -0.1442
  112OSM   C14F11697   2.434   4.975   9.374  0.3362 -0.0782 -0.7318
  112OSM   H14F11698   2.332   4.933   9.378 -0.0854  1.0377  0.5546
  112OSM   H14G11699   2.499   4.885   9.366  0.5878  0.1100 -0.8731
  112OSM   C15F11700   2.463   5.067   9.256  0.5610 -0.0134 -0.0836
  112OSM   H15F11701   2.546   5.132   9.293  0.6855  0.2473 -0.7973
  112OSM   H15G11702   2.368   5.117   9.228 -0.9433 -0.5344  3.6004
  112OSM   C16F11703   2.521   5.014   9.123  0.1062 -0.0062  0.3878
  112OSM   H16F11704   2.468   4.919   9.101 -2.0928  1.0253  0.9409
  112OSM   H16G11705   2.632   5.016   9.126  0.0853  1.8018  1.6889
  112OSM   C17F11706   2.497   5.098   8.997  0.7469 -0.3907 -0.4624
  112OSM   H17F11707   2.394   5.140   9.005  0.3254 -1.2127 -1.3683
  112OSM   H17G11708   2.497   5.026   8.913 -1.1712 -1.1784  0.1355
  112OSM   C18F11709   2.591   5.217   8.957 -0.2139  0.4446  0.3398
  112OSM   H18F11710   2.697   5.185   8.965  0.4303  1.8493 -1.7301
  112OSM   H18G11711   2.576   5.304   9.025 -1.3789 -1.0271  2.0758
  112OSM   H18H11712   2.572   5.249   8.853 -0.2849 -1.2369 -0.2016
  113OSM      N11713   6.621   2.083  11.048  0.0595 -0.4642  0.1670
  113OSM    C1511714   6.474   2.106  11.049 -0.9689 -0.1894  0.4077
  113OSM   H15A11715   6.458   2.212  11.037  1.9010  0.3470  0.4904
  113OSM   H15B11716   6.422   2.067  11.135 -3.7324  0.7606 -0.7339
  113OSM   H15C11717   6.431   2.057  10.963  0.5593  0.4609 -0.7756
  113OSM    C1411718   6.691   2.155  11.161  0.3148 -0.8479 -0.3103
  113OSM   H14A11719   6.795   2.131  11.175  0.8136  1.0105 -0.5306
  113OSM   H14B11720   6.641   2.130  11.253 -0.2437 -0.5830 -0.5359
  113OSM   H14C11721   6.690   2.262  11.144 -0.3912 -0.7530  0.2581
  113OSM    C1311722   6.654   1.938  11.071  0.1604 -0.2415  0.2389
  113OSM   H13A11723   6.761   1.920  11.072  0.4891  1.3596 -0.8663
  113OSM   H13B11724   6.603   1.881  10.995  0.6147 -0.4887  0.1127
  113OSM   H13C11725   6.619   1.919  11.171  2.2557  1.8959  1.4946
  113OSM    C1211726   6.680   2.123  10.912  0.1216  0.3257  0.6666
  113OSM   H12A11727   6.779   2.082  10.898 -0.8970 -2.1293  0.1259
  113OSM   H12B11728   6.698   2.229  10.911 -1.2949  0.6340  2.4879
  113OSM    C1111729   6.602   2.078  10.783 -0.3072  0.0753 -0.0708
  113OSM   H11A11730   6.670   2.111  10.702 -1.0306 -0.2001 -0.8086
  113OSM   H11B11731   6.510   2.139  10.772  0.8354  1.5125 -2.4461
  113OSM      P11732   6.441   1.870  10.756 -0.1955 -0.2032 -0.1304
  113OSM    O1311733   6.465   1.739  10.696 -0.8522  0.2047 -0.0190
  113OSM    O1411734   6.367   1.879  10.878 -0.0613  0.0518  0.1975
  113OSM    O1111735   6.360   1.968  10.655 -0.1528 -0.2837  0.6270
  113OSM    O1211736   6.585   1.938  10.767 -0.0309 -0.2380  0.2853
  113OSM    C1S11737   6.412   1.995  10.519  0.0991 -0.0436 -0.3761
  113OSM    H1S11738   6.428   1.893  10.477 -0.0926 -0.9836  1.7007
  113OSM    H1T11739   6.513   2.040  10.533  0.4314 -0.9877  0.3685
  113OSM     NF11740   6.365   2.083  10.287  1.3681  0.2216 -0.0024
  113OSM    HNF11741   6.420   2.161  10.258  0.3794  0.9149 -0.0724
  113OSM    C2S11742   6.321   2.085  10.430 -0.2949  0.1869  0.3201
  113OSM    H2S11743   6.215   2.052  10.431 -0.7712  1.6515  0.3782
  113OSM    C3S11744   6.312   2.235  10.491  0.2176 -0.5968  0.7802
  113OSM    H3S11745   6.405   2.294  10.479 -0.3569  0.4237  1.2827
  113OSM     O311746   6.283   2.236  10.629  0.2939 -0.6594 -0.0922
  113OSM    HO311747   6.307   2.150  10.665  0.1065 -1.3332 -1.5011
  113OSM    C4S11748   6.195   2.307  10.429  0.8926 -0.2461  1.1708
  113OSM    H4S11749   6.098   2.258  10.443  0.4682 -0.1779 -1.1426
  113OSM    C5S11750   6.186   2.428  10.369  0.4532 -0.2757 -0.3685
  113OSM    H5S11751   6.281   2.484  10.361  0.4909  0.0499  1.6663
  113OSM    C6S11752   6.067   2.500  10.307  0.6436  0.9862 -0.3530
  113OSM    H6S11753   6.103   2.568  10.227  1.7994 -0.6263 -1.2653
  113OSM    H6T11754   6.005   2.564  10.374 -1.7992 -1.1529 -0.3957
  113OSM    C7S11755   5.970   2.405  10.232 -0.0549 -0.3260 -0.7183
  113OSM    H7S11756   5.874   2.452  10.202 -2.1186 -4.0353 -0.5095
  113OSM    H7T11757   5.936   2.329  10.306  0.6752  0.1790  0.1699
  113OSM    C8S11758   6.042   2.334  10.112 -0.3623  0.0370 -0.3683
  113OSM    H8S11759   5.981   2.246  10.080  1.1649 -0.8552 -0.8942
  113OSM    H8T11760   6.148   2.305  10.128 -1.0923 -2.3797  0.6023
  113OSM    C9S11761   6.033   2.425   9.989  0.3226  0.1069  0.2403
  113OSM    H9S11762   6.111   2.501  10.014 -0.4730  0.9721  0.1453
  113OSM    H9T11763   5.933   2.473   9.982 -0.4166 -1.5122 -0.5915
  113OSM   C10S11764   6.081   2.355   9.858 -0.3365 -0.4169  0.0145
  113OSM   H10S11765   6.009   2.272   9.843 -1.8370  0.7446  0.5399
  113OSM   H10T11766   6.184   2.315   9.863  0.3092  0.9517 -1.4479
  113OSM   C11S11767   6.065   2.444   9.729  0.5275 -0.1156 -0.2659
  113OSM   H11S11768   6.098   2.548   9.751  1.1652  0.0003 -1.6464
  113OSM   H11T11769   5.958   2.442   9.701  1.1790 -2.2964 -2.9866
  113OSM   C12S11770   6.139   2.381   9.603 -0.2852  0.2380  0.1034
  113OSM   H12S11771   6.112   2.273   9.604  0.5541  0.0052  2.5429
  113OSM   H12T11772   6.248   2.382   9.626 -0.1659 -1.1171 -0.3108
  113OSM   C13S11773   6.082   2.441   9.473  0.0707 -0.2254 -0.4387
  113OSM   H13S11774   6.092   2.551   9.478 -0.6650 -0.2005  3.9246
  113OSM   H13T11775   5.978   2.403   9.464 -0.5592  1.4339 -0.5335
  113OSM   C14S11776   6.147   2.387   9.344  0.2009 -0.1505  0.4643
  113OSM   H14S11777   6.146   2.277   9.359  0.1495 -0.2671 -0.3598
  113OSM   H14T11778   6.256   2.406   9.346  0.3493 -0.9669  1.1816
  113OSM   C15S11779   6.060   2.422   9.219 -0.1193  0.1664  0.4586
  113OSM   H15S11780   6.078   2.531   9.213  0.7212  0.0375  0.4979
  113OSM   H15T11781   5.954   2.410   9.250 -0.5552 -0.0069 -1.0482
  113OSM   C16S11782   6.118   2.342   9.099  0.1953  0.0203  0.3461
  113OSM   H16S11783   6.093   2.233   9.096  0.7438 -0.1258  1.0092
  113OSM   H16T11784   6.228   2.343   9.089  0.2156  0.0649  0.5817
  113OSM   C17S11785   6.052   2.391   8.963 -0.2051  0.5401  0.0758
  113OSM   H17S11786   6.133   2.453   8.920  1.5514 -1.6600  0.0367
  113OSM   H17T11787   5.951   2.432   8.985 -2.0636 -3.9451  0.9757
  113OSM   C18S11788   6.021   2.267   8.871 -0.7370 -0.2605 -1.2340
  113OSM   H18S11789   5.939   2.219   8.929  0.8350  0.3992  1.7143
  113OSM   H18T11790   6.112   2.205   8.856 -2.2057 -2.7835 -0.4032
  113OSM   H18U11791   5.990   2.304   8.771  1.5986 -0.2720 -2.0154
  113OSM    C1F11792   6.352   1.971  10.209 -0.6301 -0.3729 -0.1513
  113OSM     OF11793   6.294   1.875  10.253 -0.3642  0.2208 -0.5817
  113OSM    C2F11794   6.409   1.974  10.070  0.2122  0.4399 -0.2699
  113OSM    H2F11795   6.519   1.957  10.074 -0.2177 -2.9668 -0.2054
  113OSM    H2G11796   6.383   2.071  10.021 -0.9276  0.2487 -0.0658
  113OSM    C3F11797   6.357   1.861   9.972 -0.0143 -0.6572 -0.2856
  113OSM    H3F11798   6.246   1.858   9.980 -0.0891  2.1441  1.0019
  113OSM    H3G11799   6.394   1.761  10.001 -1.6251 -1.2604 -0.1921
  113OSM    C4F11800   6.387   1.890   9.826 -1.0302  0.1042 -0.3640
  113OSM    H4F11801   6.498   1.901   9.824 -1.0428  1.6689  2.1782
  113OSM    H4G11802   6.344   1.985   9.787 -1.7641 -0.1854 -0.2808
  113OSM    C5F11803   6.351   1.771   9.739  0.3100 -0.7224 -0.3215
  113OSM    H5F11804   6.245   1.744   9.720  0.9675 -2.1025 -2.4449
  113OSM    H5G11805   6.407   1.678   9.763  1.5211 -1.2919 -4.4956
  113OSM    C6F11806   6.395   1.793   9.593  0.2657 -0.0708  0.1189
  113OSM    H6F11807   6.338   1.881   9.557  0.0269 -0.1575  0.2856
  113OSM    H6G11808   6.363   1.707   9.530 -0.4488 -0.6607  1.2561
  113OSM    C7F11809   6.544   1.815   9.574 -0.2789 -0.9005  0.7811
  113OSM    H7F11810   6.593   1.759   9.656  1.4485  1.2064  1.2839
  113OSM    H7G11811   6.566   1.922   9.592  0.8799 -1.6054  4.3746
  113OSM    C8F11812   6.599   1.771   9.436 -0.4771  0.5511  0.3405
  113OSM    H8F11813   6.597   1.660   9.428  0.6985  0.4846  0.7877
  113OSM    H8G11814   6.708   1.791   9.448 -0.4548  2.1888 -2.0167
  113OSM    C9F11815   6.540   1.854   9.327 -0.1903  0.4676  0.5021
  113OSM    H9F11816   6.558   1.962   9.339 -1.1274  0.8957 -1.5753
  113OSM   C10F11817   6.477   1.816   9.221  0.6172 -0.2445 -0.0850
  113OSM   H10F11818   6.433   1.893   9.155 -1.1425 -0.6321  0.5976
  113OSM   C11F11819   6.439   1.674   9.183 -0.4770  0.0329  0.4602
  113OSM   H11F11820   6.329   1.663   9.187 -0.5253  0.3596  0.1166
  113OSM   H11G11821   6.485   1.586   9.233 -0.9691 -0.5742 -0.1431
  113OSM   C12F11822   6.481   1.656   9.034 -0.5786  0.1091 -0.0121
  113OSM   H12F11823   6.588   1.680   9.018 -0.5932 -0.4525 -1.0826
  113OSM   H12G11824   6.433   1.730   8.965  0.4345  0.0023 -0.8580
  113OSM   C13F11825   6.445   1.508   8.986  0.4478  0.0502  0.5601
  113OSM   H13F11826   6.337   1.488   9.000  0.4506  0.6453  1.5465
  113OSM   H13G11827   6.506   1.439   9.049  2.5074 -0.7032 -2.0591
  113OSM   C14F11828   6.483   1.481   8.837 -0.3263  0.4061 -0.5661
  113OSM   H14F11829   6.592   1.465   8.824 -0.1808 -1.2534  2.0683
  113OSM   H14G11830   6.461   1.572   8.777 -0.1717  0.8987  0.1066
  113OSM   C15F11831   6.398   1.374   8.765 -0.1582 -0.5759 -0.0882
  113OSM   H15F11832   6.294   1.414   8.764 -0.1922 -0.6308  0.4923
  113OSM   H15G11833   6.396   1.280   8.825 -1.4154  0.9389  2.4069
  113OSM   C16F11834   6.447   1.336   8.627  0.0939 -0.8822  0.2202
  113OSM   H16F11835   6.551   1.306   8.654  0.3582  0.9491  1.5024
  113OSM   H16G11836   6.446   1.430   8.568 -3.7186  1.0778  2.9837
  113OSM   C17F11837   6.380   1.218   8.548  0.5386  0.2481  0.0386
  113OSM   H17F11838   6.281   1.245   8.507  0.2631  1.2979  1.3188
  113OSM   H17G11839   6.361   1.129   8.611  1.2635 -0.5621 -0.8595
  113OSM   C18F11840   6.455   1.167   8.422 -0.1847 -0.1884  0.0968
  113OSM   H18F11841   6.393   1.107   8.353  3.3646 -2.4306 -1.4116
  113OSM   H18G11842   6.542   1.107   8.455 -0.8315 -1.1406  0.0868
  113OSM   H18H11843   6.494   1.255   8.367  0.5118  1.5513  3.1084
  114OSM      N11844   1.153   5.397  10.897 -0.6257 -0.1981 -0.3932
  114OSM    C1511845   1.227   5.520  10.934 -0.3714  0.1142 -0.4833
  114OSM   H15A11846   1.215   5.552  11.036  0.0132 -0.7011 -0.1699
  114OSM   H15B11847   1.206   5.602  10.868 -1.6607 -0.9897 -1.5066
  114OSM   H15C11848   1.332   5.500  10.917  0.2446  0.6650  2.2034
  114OSM    C1411849   1.010   5.434  10.897  0.3049  0.5790  1.5981
  114OSM   H14A11850   0.984   5.480  10.991 -0.1687 -0.4585  1.9919
  114OSM   H14B11851   0.953   5.345  10.874  3.7848 -1.3870 -0.2571
  114OSM   H14C11852   0.989   5.501  10.815  0.4744 -0.7809  0.3989
  114OSM    C1311853   1.197   5.351  10.756 -0.0365 -0.4826  0.2379
  114OSM   H13A11854   1.198   5.439  10.693  1.2905 -0.5479  0.1280
  114OSM   H13B11855   1.135   5.274  10.714 -0.6231  0.6850 -1.1084
  114OSM   H13C11856   1.302   5.326  10.764 -0.2422 -0.9279  2.1547
  114OSM    C1211857   1.173   5.294  11.009 -0.0769 -0.6936 -0.0378
  114OSM   H12A11858   1.145   5.342  11.101 -0.2769 -0.4658 -0.2153
  114OSM   H12B11859   1.279   5.283  11.027 -0.2760 -1.1756  0.8437
  114OSM    C1111860   1.101   5.159  10.993  0.3120 -0.6414 -0.3377
  114OSM   H11A11861   0.997   5.177  10.959 -0.1722 -1.9739  0.3860
  114OSM   H11B11862   1.090   5.110  11.092  2.4780  0.4133  0.4967
  114OSM      P11863   1.327   5.043  10.913 -0.1950  0.5099 -0.2351
  114OSM    O1311864   1.416   5.162  10.903 -0.2651 -0.5835 -0.0435
  114OSM    O1411865   1.351   4.956  11.027  0.1761  0.5586 -0.6728
  114OSM    O1111866   1.357   4.968  10.774  0.0867  0.4053 -0.2676
  114OSM    O1211867   1.174   5.070  10.904  0.5742 -0.7944  1.1238
  114OSM    C1S11868   1.298   5.036  10.659 -0.1429  0.0569 -1.0109
  114OSM    H1S11869   1.320   5.144  10.653 -1.3868  0.5273  1.4043
  114OSM    H1T11870   1.188   5.028  10.650 -0.6653  2.6335  1.6294
  114OSM     NF11871   1.300   5.052  10.408 -0.1433  0.5573 -0.2469
  114OSM    HNF11872   1.223   5.007  10.362  0.3396 -2.6539  1.7354
  114OSM    C2S11873   1.352   4.973  10.523  0.1361  0.6928  0.0758
  114OSM    H2S11874   1.463   4.979  10.519  0.0748  2.5156  0.5022
  114OSM    C3S11875   1.316   4.820  10.523  0.3583 -0.4842  0.1863
  114OSM    H3S11876   1.208   4.809  10.545  0.2795  0.6199  0.4021
  114OSM     O311877   1.391   4.753  10.626  0.2263  0.2301 -0.1318
  114OSM    HO311878   1.410   4.834  10.673 -0.7855  0.3885  0.0286
  114OSM    C4S11879   1.344   4.752  10.391 -0.0232  0.0909  0.1053
  114OSM    H4S11880   1.448   4.718  10.380 -0.5938 -1.5373 -0.5595
  114OSM    C5S11881   1.259   4.718  10.293  0.2850 -0.2547  0.2260
  114OSM    H5S11882   1.150   4.728  10.301  0.4019  3.9392 -1.2231
  114OSM    C6S11883   1.297   4.652  10.161 -0.3775  0.2637  0.4381
  114OSM    H6S11884   1.236   4.563  10.133  0.0006 -0.0989  0.7520
  114OSM    H6T11885   1.402   4.615  10.161  0.0885  1.3923  2.9185
  114OSM    C7S11886   1.278   4.760  10.045 -0.2074  0.2293  0.8547
  114OSM    H7S11887   1.368   4.824  10.059  0.0498 -0.4176  2.4341
  114OSM    H7T11888   1.181   4.809  10.065 -0.4818  0.1334 -0.2035
  114OSM    C8S11889   1.287   4.703   9.900  0.2045 -0.3848 -0.0777
  114OSM    H8S11890   1.208   4.625   9.887 -0.0370 -0.5569  2.1293
  114OSM    H8T11891   1.388   4.660   9.886  0.4963 -0.0316  0.8770
  114OSM    C9S11892   1.257   4.799   9.782  0.0958 -0.4305 -0.0354
  114OSM    H9S11893   1.331   4.881   9.773  1.0535 -1.0883  1.4531
  114OSM    H9T11894   1.159   4.843   9.813  0.1769 -0.4736  0.2827
  114OSM   C10S11895   1.245   4.737   9.645  1.4405 -0.1284  0.2246
  114OSM   H10S11896   1.175   4.651   9.651 -0.7597  1.5885  0.7086
  114OSM   H10T11897   1.336   4.696   9.597  1.3397  1.8441 -1.8399
  114OSM   C11S11898   1.183   4.838   9.544 -0.2147  0.6446  0.0707
  114OSM   H11S11899   1.257   4.922   9.547 -0.2900  0.8146 -1.5740
  114OSM   H11T11900   1.084   4.866   9.586 -2.0804 -3.8576 -0.8276
  114OSM   C12S11901   1.173   4.781   9.405 -0.8559 -0.4149  0.2449
  114OSM   H12S11902   1.268   4.730   9.379  0.1469  1.9608 -1.0777
  114OSM   H12T11903   1.164   4.861   9.327 -2.3308 -1.1025 -0.3382
  114OSM   C13S11904   1.076   4.658   9.391  0.2980 -0.0874 -0.2278
  114OSM   H13S11905   0.972   4.692   9.379  0.6041  0.5860 -1.0273
  114OSM   H13T11906   1.080   4.594   9.482  0.5173  1.4711  0.8916
  114OSM   C14S11907   1.112   4.564   9.272  0.2733 -0.3190  0.3159
  114OSM   H14S11908   1.044   4.483   9.305 -1.5974  1.4140  0.8941
  114OSM   H14T11909   1.218   4.533   9.289  0.9542  1.6529  0.0242
  114OSM   C15S11910   1.100   4.644   9.140 -0.3499  1.1529 -0.8219
  114OSM   H15S11911   1.181   4.720   9.146  0.0043  0.7763 -0.7716
  114OSM   H15T11912   1.003   4.696   9.125 -0.2007  2.2417  1.5185
  114OSM   C16S11913   1.124   4.546   9.020 -0.3222 -0.2322  0.4588
  114OSM   H16S11914   1.029   4.497   8.989  0.5988 -0.9663 -1.3750
  114OSM   H16T11915   1.194   4.466   9.051  0.4691  1.8015  4.6206
  114OSM   C17S11916   1.181   4.601   8.887  0.1450  0.0067  0.2324
  114OSM   H17S11917   1.219   4.513   8.830 -2.1949 -1.0664  0.2034
  114OSM   H17T11918   1.272   4.659   8.914  1.0008  0.1556 -2.6743
  114OSM   C18S11919   1.091   4.704   8.813  0.4418 -0.4727  0.0776
  114OSM   H18S11920   0.989   4.665   8.792  0.2179  0.8087 -1.3296
  114OSM   H18T11921   1.135   4.732   8.715  2.2943  1.8755  1.4781
  114OSM   H18U11922   1.073   4.795   8.873  1.8934 -0.7759  1.0397
  114OSM    C1F11923   1.343   5.169  10.377 -0.7748  0.1014  0.4863
  114OSM     OF11924   1.442   5.215  10.431  0.0807  0.0123 -0.3272
  114OSM    C2F11925   1.268   5.238  10.268  0.2711  0.1290  0.2169
  114OSM    H2F11926   1.261   5.346  10.295  0.9700 -0.2377  1.9846
  114OSM    H2G11927   1.160   5.211  10.263 -0.3360  2.4894 -0.8989
  114OSM    C3F11928   1.326   5.204  10.127 -0.0889 -0.4902  0.5951
  114OSM    H3F11929   1.258   5.260  10.060  0.3099 -0.0953  0.5134
  114OSM    H3G11930   1.300   5.099  10.099  0.8872 -0.1673 -1.7936
  114OSM    C4F11931   1.470   5.233  10.095  0.4016 -1.2702  0.7401
  114OSM    H4F11932   1.529   5.148  10.137 -0.5625 -1.3276  2.0654
  114OSM    H4G11933   1.491   5.328  10.148 -0.0285 -0.2668 -0.8397
  114OSM    C5F11934   1.496   5.256   9.938 -0.6546 -0.1464 -0.0940
  114OSM    H5F11935   1.605   5.270   9.922 -0.3294 -0.9175  1.3191
  114OSM    H5G11936   1.448   5.350   9.903 -0.2879  0.0574 -0.0482
  114OSM    C6F11937   1.454   5.135   9.843 -0.5028 -0.1830  0.5792
  114OSM    H6F11938   1.347   5.107   9.835 -0.8614  1.6271 -2.7073
  114OSM    H6G11939   1.514   5.045   9.868  0.2052 -0.4146 -1.7596
  114OSM    C7F11940   1.503   5.186   9.707  0.2442  0.2151 -0.2998
  114OSM    H7F11941   1.612   5.203   9.723 -0.2177  2.4577  0.9758
  114OSM    H7G11942   1.451   5.284   9.698 -0.7152 -0.3957 -1.9058
  114OSM    C8F11943   1.467   5.106   9.578 -0.4776  0.2678  0.2623
  114OSM    H8F11944   1.357   5.119   9.571 -0.5785 -0.4841  0.4145
  114OSM    H8G11945   1.498   5.000   9.590 -1.8122 -0.1183  0.4617
  114OSM    C9F11946   1.538   5.159   9.456  0.4456 -0.3767 -0.4833
  114OSM    H9F11947   1.589   5.256   9.463  1.1049 -0.7706  0.2152
  114OSM   C10F11948   1.548   5.099   9.335  0.1826  0.2158 -0.0047
  114OSM   H10F11949   1.597   5.160   9.258  1.6293  0.0620  0.7630
  114OSM   C11F11950   1.465   4.976   9.299  0.1123 -0.1703 -0.1306
  114OSM   H11F11951   1.368   4.971   9.352 -0.6120  1.9977 -1.1187
  114OSM   H11G11952   1.508   4.885   9.346  1.4379  0.2593 -0.4484
  114OSM   C12F11953   1.428   4.943   9.150 -0.1063  0.4726  0.0450
  114OSM   H12F11954   1.358   5.019   9.109 -0.5710 -0.1334 -0.3005
  114OSM   H12G11955   1.382   4.842   9.157  2.3971 -0.7248  0.5309
  114OSM   C13F11956   1.555   4.937   9.060  0.1269  0.0732  0.3661
  114OSM   H13F11957   1.628   4.862   9.096  1.1987 -0.4965 -2.7140
  114OSM   H13G11958   1.609   5.033   9.060 -0.3735  0.4778 -2.9369
  114OSM   C14F11959   1.533   4.913   8.910 -0.1127  0.7355  0.2184
  114OSM   H14F11960   1.445   4.969   8.873 -0.1965  0.1010 -0.5842
  114OSM   H14G11961   1.512   4.805   8.890  0.4397  1.0578 -2.5532
  114OSM   C15F11962   1.652   4.951   8.819 -0.0411 -0.0453 -0.1282
  114OSM   H15F11963   1.671   5.060   8.820 -1.9292  0.2962  0.5437
  114OSM   H15G11964   1.622   4.921   8.716 -1.0857 -1.8088  0.6562
  114OSM   C16F11965   1.781   4.871   8.848  0.2205 -0.0215 -0.1093
  114OSM   H16F11966   1.756   4.764   8.833 -2.3941  0.5865 -0.6040
  114OSM   H16G11967   1.815   4.883   8.953  0.8074 -1.9270 -0.0582
  114OSM   C17F11968   1.904   4.904   8.752 -0.1980 -1.2163 -0.0691
  114OSM   H17F11969   1.881   4.858   8.653 -1.6120 -0.1886 -0.2439
  114OSM   H17G11970   1.984   4.846   8.803 -1.1037 -2.0664  0.4116
  114OSM   C18F11971   1.955   5.047   8.756  0.5479 -0.2045 -0.7813
  114OSM   H18F11972   1.867   5.114   8.746  0.5487 -0.0761 -0.0250
  114OSM   H18G11973   2.026   5.071   8.674  1.2566 -0.1154 -0.1529
  114OSM   H18H11974   1.996   5.070   8.857 -0.6038  0.2953 -0.3978
  115OSM      N11975   5.978   3.716  11.037 -0.4008 -0.3239  0.7088
  115OSM    C1511976   6.048   3.820  10.950 -0.0739 -0.0244 -0.0402
  115OSM   H15A11977   6.113   3.877  11.015 -0.9746  0.6372  0.3015
  115OSM   H15B11978   5.979   3.899  10.922 -1.6436 -2.0254 -2.1880
  115OSM   H15C11979   6.102   3.790  10.862 -1.2019 -0.2066 -0.6901
  115OSM    C1411980   6.070   3.608  11.065  0.0902  0.1402  0.4476
  115OSM   H14A11981   6.031   3.556  11.151 -1.4883  0.7076  0.0982
  115OSM   H14B11982   6.177   3.624  11.065  0.2044 -0.4486 -1.3398
  115OSM   H14C11983   6.076   3.537  10.984 -3.4702  0.8708 -0.6018
  115OSM    C1311984   5.927   3.778  11.165 -0.3592 -0.1600 -0.2929
  115OSM   H13A11985   5.999   3.828  11.228 -0.7643  0.4652 -0.3185
  115OSM   H13B11986   5.865   3.711  11.223 -0.2793  1.8518  2.2937
  115OSM   H13C11987   5.862   3.860  11.139  1.4202  0.7205 -2.1876
  115OSM    C1211988   5.845   3.658  10.973 -0.1149 -0.7036 -0.4553
  115OSM   H12A11989   5.787   3.746  10.949  0.0051 -0.0895  1.3587
  115OSM   H12B11990   5.795   3.602  11.050  2.2157 -2.2829  0.0215
  115OSM    C1111991   5.856   3.563  10.849 -0.6134  0.1733 -0.6837
  115OSM   H11A11992   5.900   3.619  10.764 -4.2851 -0.1969 -3.0397
  115OSM   H11B11993   5.755   3.536  10.811 -1.8525 -1.6852  3.3338
  115OSM      P11994   5.879   3.320  10.953 -0.2459 -0.4966 -0.1028
  115OSM    O1311995   5.990   3.258  11.028  0.1526  0.2568 -0.3987
  115OSM    O1411996   5.763   3.367  11.031 -0.3404 -0.3371  0.5057
  115OSM    O1111997   5.828   3.228  10.836 -0.4387 -0.6575 -0.0513
  115OSM    O1211998   5.937   3.446  10.866 -0.7497  0.4536 -0.2404
  115OSM    C1S11999   5.704   3.246  10.770  0.3289 -0.3404  0.3114
  115OSM    H1S12000   5.679   3.354  10.759  2.2511  0.0845 -0.2446
  115OSM    H1T12001   5.617   3.216  10.832 -0.7660  3.8125  1.0726
  115OSM     NF12002   5.592   3.225  10.561  0.4223  0.1631  0.5144
  115OSM    HNF12003   5.519   3.158  10.572  0.5910 -0.5772 -2.1788
  115OSM    C2S12004   5.708   3.186  10.627 -0.7389  0.0420  0.0936
  115OSM    H2S12005   5.800   3.220  10.575  1.5537 -2.4967  2.2041
  115OSM    C3S12006   5.728   3.031  10.638  0.0192 -0.0382  0.1292
  115OSM    H3S12007   5.628   2.991  10.665 -2.0615  2.1605 -3.6571
  115OSM     O312008   5.824   2.988  10.731 -0.1146 -0.1845 -0.5902
  115OSM    HO312009   5.844   3.072  10.772 -2.2719  0.7967 -1.3786
  115OSM    C4S12010   5.755   2.970  10.508  0.7216 -0.2224 -0.5689
  115OSM    H4S12011   5.839   3.015  10.455 -0.5331  1.6881 -1.0327
  115OSM    C5S12012   5.678   2.875  10.457  0.2894 -0.4678 -0.3540
  115OSM    H5S12013   5.594   2.834  10.516 -1.0762  1.2986 -1.0024
  115OSM    C6S12014   5.710   2.807  10.327  0.3197  1.2022 -0.2962
  115OSM    H6S12015   5.634   2.822  10.248  1.1659 -0.4251 -1.4869
  115OSM    H6T12016   5.723   2.697  10.338 -0.7029  0.6066 -3.9055
  115OSM    C7S12017   5.830   2.866  10.241 -0.3649 -0.2646  0.8938
  115OSM    H7S12018   5.925   2.854  10.297 -0.3162 -3.0168  0.3387
  115OSM    H7T12019   5.805   2.971  10.213 -1.3147 -1.4194 -3.3867
  115OSM    C8S12020   5.863   2.802  10.108  0.9324  0.4091  0.6330
  115OSM    H8S12021   5.887   2.695  10.127  0.7478  0.2661  0.0572
  115OSM    H8T12022   5.944   2.857  10.056  0.0166  0.4881 -0.7620
  115OSM    C9S12023   5.746   2.803  10.001 -0.1806  0.0566 -0.3936
  115OSM    H9S12024   5.710   2.907   9.982 -0.2618 -0.2173 -1.8340
  115OSM    H9T12025   5.652   2.760  10.041 -0.1479  0.5193  0.2025
  115OSM   C10S12026   5.793   2.746   9.867  0.5398 -0.4267 -0.8447
  115OSM   H10S12027   5.817   2.638   9.881  0.0858 -0.4506 -0.2280
  115OSM   H10T12028   5.883   2.799   9.829 -0.0813  0.1555 -1.5480
  115OSM   C11S12029   5.695   2.769   9.755  0.1214 -0.8510 -0.1140
  115OSM   H11S12030   5.695   2.878   9.733  1.4307 -0.5199  1.3544
  115OSM   H11T12031   5.601   2.731   9.800 -0.6490  1.0137 -0.0621
  115OSM   C12S12032   5.738   2.693   9.625  0.6108  0.4834 -0.2405
  115OSM   H12S12033   5.639   2.648   9.603  0.6216 -0.4957  1.5103
  115OSM   H12T12034   5.816   2.618   9.651 -0.7271 -0.2473  1.9350
  115OSM   C13S12035   5.768   2.783   9.501 -0.0976 -0.7941 -0.4187
  115OSM   H13S12036   5.853   2.850   9.523 -0.3385 -0.8572  0.7673
  115OSM   H13T12037   5.680   2.847   9.481  0.4338 -0.1886 -0.8680
  115OSM   C14S12038   5.798   2.706   9.373 -0.3198  0.1127  0.1946
  115OSM   H14S12039   5.707   2.645   9.353 -1.0943  1.2667  0.1023
  115OSM   H14T12040   5.890   2.645   9.386  0.0163 -0.0508 -2.3424
  115OSM   C15S12041   5.823   2.789   9.247 -0.0186 -0.0477 -0.2945
  115OSM   H15S12042   5.921   2.838   9.268 -0.3560 -0.1081  1.6467
  115OSM   H15T12043   5.745   2.865   9.225  0.3786  0.4905  0.1082
  115OSM   C16S12044   5.835   2.709   9.121  0.7926  0.3402  0.4021
  115OSM   H16S12045   5.731   2.672   9.110 -0.0145  2.6485 -0.3357
  115OSM   H16T12046   5.911   2.631   9.143  0.4372 -0.0156  0.4038
  115OSM   C17S12047   5.871   2.793   8.999  0.2507  0.0511 -0.7260
  115OSM   H17S12048   5.971   2.838   9.014  0.9902 -0.7186 -2.9290
  115OSM   H17T12049   5.796   2.875   8.999  0.5242  0.3257  0.6727
  115OSM   C18S12050   5.893   2.714   8.869 -0.1567  0.1837 -0.1609
  115OSM   H18S12051   5.816   2.637   8.844 -0.9899  0.9912 -0.1467
  115OSM   H18T12052   5.987   2.660   8.891 -1.9663 -1.7643  4.1189
  115OSM   H18U12053   5.902   2.778   8.779  1.2851 -1.7189 -1.4692
  115OSM    C1F12054   5.567   3.343  10.511 -0.0887 -0.7034 -0.3003
  115OSM     OF12055   5.658   3.421  10.500 -0.2428  0.0300 -0.4859
  115OSM    C2F12056   5.430   3.384  10.453 -0.5628 -0.0097  0.9925
  115OSM    H2F12057   5.453   3.471  10.388 -1.1566  0.0528  0.8603
  115OSM    H2G12058   5.344   3.409  10.519 -2.3344 -1.5579 -0.6216
  115OSM    C3F12059   5.369   3.272  10.366 -0.2888 -0.3392 -0.4293
  115OSM    H3F12060   5.279   3.314  10.316  0.1477  2.2009  0.7707
  115OSM    H3G12061   5.334   3.182  10.420  0.1359 -0.7618 -0.8518
  115OSM    C4F12062   5.472   3.218  10.266  0.1900 -0.2381 -0.9403
  115OSM    H4F12063   5.534   3.135  10.307  1.3152  1.0061 -0.0445
  115OSM    H4G12064   5.544   3.295  10.229  1.6184 -0.0044  2.0382
  115OSM    C5F12065   5.404   3.156  10.147 -0.1241  0.7067  0.0807
  115OSM    H5F12066   5.345   3.238  10.100 -0.1805  0.3244 -0.5312
  115OSM    H5G12067   5.329   3.080  10.176 -0.2926  0.8064 -0.0872
  115OSM    C6F12068   5.506   3.074  10.054 -0.2732  0.4365  0.6229
  115OSM    H6F12069   5.548   2.997  10.122  2.8775  1.7370  0.3227
  115OSM    H6G12070   5.598   3.132  10.034  0.0403  0.1890  1.3094
  115OSM    C7F12071   5.441   3.012   9.932 -0.1676  0.4102 -0.0274
  115OSM    H7F12072   5.349   2.965   9.972  0.4710 -0.4592  0.4570
  115OSM    H7G12073   5.502   2.928   9.893  0.3341  0.2984  0.9646
  115OSM    C8F12074   5.430   3.119   9.823  0.0028  0.7866  0.4225
  115OSM    H8F12075   5.531   3.125   9.777 -0.2503 -2.0361 -0.6868
  115OSM    H8G12076   5.420   3.222   9.863 -1.1315  0.5088  0.8988
  115OSM    C9F12077   5.311   3.094   9.731  0.2467  0.3429  0.2569
  115OSM    H9F12078   5.216   3.059   9.775  0.6118  1.4509  2.0257
  115OSM   C10F12079   5.323   3.088   9.595  0.0533 -0.4866  0.4623
  115OSM   H10F12080   5.233   3.065   9.535  0.2551 -1.9571  0.6919
  115OSM   C11F12081   5.452   3.114   9.516  0.3061  0.6517 -0.7976
  115OSM   H11F12082   5.509   3.022   9.489 -1.8860 -1.7871  2.1200
  115OSM   H11G12083   5.512   3.192   9.567 -3.2261  2.3159  1.2075
  115OSM   C12F12084   5.399   3.190   9.390  0.1941 -0.0974  0.3895
  115OSM   H12F12085   5.490   3.233   9.343 -0.6509 -0.1639 -1.3936
  115OSM   H12G12086   5.329   3.274   9.406 -1.2099 -1.2817  0.6650
  115OSM   C13F12087   5.335   3.101   9.277 -0.1832  0.3536 -0.1349
  115OSM   H13F12088   5.273   3.154   9.201 -0.0004  1.2394  0.3147
  115OSM   H13G12089   5.255   3.032   9.312 -1.2250  1.3158 -0.5435
  115OSM   C14F12090   5.438   3.008   9.217  0.0988 -0.2211  0.1427
  115OSM   H14F12091   5.387   2.932   9.154  2.5932 -1.5688 -0.3819
  115OSM   H14G12092   5.495   2.947   9.290  0.0010 -1.1415 -0.5386
  115OSM   C15F12093   5.541   3.083   9.128  0.2974  0.5515 -0.3062
  115OSM   H15F12094   5.612   3.012   9.081 -1.7837  0.0014 -2.9080
  115OSM   H15G12095   5.609   3.131   9.201  2.3310 -1.2988 -0.8823
  115OSM   C16F12096   5.483   3.182   9.025  0.0303  0.0326  0.0876
  115OSM   H16F12097   5.567   3.237   8.978  0.2124  0.0138  0.3905
  115OSM   H16G12098   5.414   3.248   9.081 -0.7626 -1.2246  0.6435
  115OSM   C17F12099   5.400   3.134   8.905  0.0268  0.6241  0.8148
  115OSM   H17F12100   5.406   3.213   8.827  0.9102  1.1202  1.3668
  115OSM   H17G12101   5.291   3.121   8.924 -0.3199 -1.2766 -1.8519
  115OSM   C18F12102   5.444   3.006   8.827  0.4145  0.0583 -0.4537
  115OSM   H18F12103   5.550   3.002   8.794 -0.1493 -1.0766 -2.3195
  115OSM   H18G12104   5.374   3.001   8.741 -0.6249  2.0687  0.2181
  115OSM   H18H12105   5.421   2.914   8.886  1.5978  0.2766  0.3762
  116OSM      N12106   2.063   0.967  11.098 -1.0220  0.1355 -0.7147
  116OSM    C1512107   2.123   0.840  11.060  0.6456  0.1414  0.4698
  116OSM   H15A12108   2.158   0.845  10.958 -0.9792  0.4461 -0.1080
  116OSM   H15B12109   2.040   0.771  11.064  1.3134 -0.6259  2.4578
  116OSM   H15C12110   2.199   0.802  11.127  1.2920 -0.6241 -0.6591
  116OSM    C1412111   1.987   0.965  11.226  0.0556  0.1130 -0.4634
  116OSM   H14A12112   1.907   0.895  11.207  0.1042 -0.1278  0.1872
  116OSM   H14B12113   1.954   1.063  11.254 -1.2218 -0.8947  1.8099
  116OSM   H14C12114   2.049   0.927  11.306  1.4798  1.0707 -1.0799
  116OSM    C1312115   2.178   1.067  11.118  0.0888 -0.4547 -0.2456
  116OSM   H13A12116   2.246   1.027  11.193  0.8280 -1.0440 -1.2056
  116OSM   H13B12117   2.134   1.157  11.158 -0.6802 -1.7634  2.0692
  116OSM   H13C12118   2.222   1.091  11.023 -0.2829 -3.0656 -1.1684
  116OSM    C1212119   1.987   1.013  10.980  0.3359 -0.4993 -0.4805
  116OSM   H12A12120   2.051   1.021  10.894  0.6373 -0.8165 -0.2879
  116OSM   H12B12121   1.953   1.114  11.000  0.8387 -0.4129 -0.0326
  116OSM    C1112122   1.860   0.922  10.944  0.1885  0.4686 -0.2230
  116OSM   H11A12123   1.887   0.816  10.963  1.5769  0.9860  0.8742
  116OSM   H11B12124   1.846   0.940  10.835 -0.6872 -0.2867 -0.2390
  116OSM      P12125   1.651   1.068  11.013 -0.1099  0.3106 -0.0595
  116OSM    O1312126   1.515   1.046  11.075 -0.2656  0.0879 -0.2118
  116OSM    O1412127   1.727   1.182  11.071 -0.6182 -0.0422  0.3131
  116OSM    O1112128   1.643   1.087  10.859  1.0827 -0.6235  0.2020
  116OSM    O1212129   1.741   0.938  11.025 -0.1188 -0.4446  0.7568
  116OSM    C1S12130   1.574   0.981  10.790 -0.0244  0.0338 -0.7451
  116OSM    H1S12131   1.471   0.970  10.830 -0.2702  0.0271 -1.3714
  116OSM    H1T12132   1.628   0.884  10.788  2.3245  1.2509 -3.4089
  116OSM     NF12133   1.529   0.897  10.563 -0.0785  1.0032 -0.7358
  116OSM    HNF12134   1.600   0.840  10.523 -0.2783 -1.3636  1.9347
  116OSM    C2S12135   1.575   1.013  10.637  0.5957  0.2184  0.4466
  116OSM    H2S12136   1.505   1.099  10.632 -0.9389 -0.7434  3.1017
  116OSM    C3S12137   1.714   1.051  10.582  0.0169  0.2222 -0.1011
  116OSM    H3S12138   1.794   0.982  10.618  0.4254  1.0589  0.6305
  116OSM     O312139   1.765   1.174  10.639 -0.7718  0.4595  0.2413
  116OSM    HO312140   1.749   1.167  10.733 -2.5327  0.2738 -0.0328
  116OSM    C4S12141   1.712   1.048  10.433  0.0917 -0.2125  0.1226
  116OSM    H4S12142   1.777   0.971  10.388 -0.6992 -1.3080  0.7874
  116OSM    C5S12143   1.649   1.146  10.365  0.1725 -0.3777  0.8010
  116OSM    H5S12144   1.586   1.226  10.406 -0.8164  0.7612 -2.5505
  116OSM    C6S12145   1.649   1.148  10.211 -0.4907 -0.4189 -0.1731
  116OSM    H6S12146   1.691   1.245  10.175 -1.2247 -0.1897 -0.4136
  116OSM    H6T12147   1.547   1.156  10.170 -0.1634 -1.5019 -1.2703
  116OSM    C7S12148   1.723   1.035  10.139 -0.4148 -0.1877  0.2103
  116OSM    H7S12149   1.710   0.935  10.186  0.3439  0.6223  2.2315
  116OSM    H7T12150   1.830   1.063  10.137 -1.5760  5.4246 -2.4598
  116OSM    C8S12151   1.683   1.020   9.988  0.0439 -0.1487  0.2615
  116OSM    H8S12152   1.700   1.111   9.927 -1.2628 -0.1069 -0.0729
  116OSM    H8T12153   1.582   0.978   9.966  0.8280 -1.9640 -0.1251
  116OSM    C9S12154   1.773   0.922   9.915 -0.7613  0.2237 -0.0092
  116OSM    H9S12155   1.766   0.817   9.950  2.5585  0.2954  1.2812
  116OSM    H9T12156   1.881   0.950   9.920 -0.4812 -0.4938 -1.5249
  116OSM   C10S12157   1.729   0.909   9.770  0.1213  0.1962 -0.1449
  116OSM   H10S12158   1.623   0.877   9.767  0.5046 -1.0982 -0.7627
  116OSM   H10T12159   1.799   0.834   9.728  1.9074  2.6857 -1.9465
  116OSM   C11S12160   1.730   1.048   9.690  0.5151 -0.3339 -0.1264
  116OSM   H11S12161   1.828   1.092   9.720 -0.6468  1.4514  1.2244
  116OSM   H11T12162   1.645   1.113   9.720  0.4478 -0.2089 -0.5725
  116OSM   C12S12163   1.725   1.022   9.538 -0.1875 -0.2390 -0.6603
  116OSM   H12S12164   1.627   0.976   9.512 -0.9382  0.8793  0.1217
  116OSM   H12T12165   1.797   0.944   9.505  0.9738  1.0022 -1.1036
  116OSM   C13S12166   1.761   1.141   9.450 -0.4580 -0.4539 -0.3955
  116OSM   H13S12167   1.712   1.116   9.353 -1.6157 -3.1509  0.7821
  116OSM   H13T12168   1.872   1.137   9.441 -0.3784 -2.0518  0.9006
  116OSM   C14S12169   1.706   1.273   9.505  0.0682 -0.2607  0.6075
  116OSM   H14S12170   1.762   1.294   9.599 -1.5724  0.2471  1.5106
  116OSM   H14T12171   1.602   1.261   9.541  0.9766 -0.3179  3.5454
  116OSM   C15S12172   1.708   1.404   9.421  0.3855 -0.0233 -0.7436
  116OSM   H15S12173   1.707   1.497   9.481  0.9893 -0.4554 -0.0449
  116OSM   H15T12174   1.615   1.408   9.360  0.4547  2.5908 -0.7889
  116OSM   C16S12175   1.835   1.409   9.335 -0.1791 -0.5892  0.3105
  116OSM   H16S12176   1.834   1.328   9.258  0.3587 -0.1604 -0.1589
  116OSM   H16T12177   1.918   1.394   9.406 -2.2090  0.6096  3.0968
  116OSM   C17S12178   1.856   1.537   9.267  0.1102 -0.7209 -0.3524
  116OSM   H17S12179   1.780   1.551   9.187  2.7569  0.0060 -2.9253
  116OSM   H17T12180   1.956   1.537   9.219 -0.3560  0.1636 -1.3757
  116OSM   C18S12181   1.871   1.662   9.364  0.0385 -1.0908 -0.2331
  116OSM   H18S12182   1.953   1.725   9.322 -0.4897 -1.1506 -1.3662
  116OSM   H18T12183   1.923   1.627   9.456 -0.1497 -0.5098  0.1038
  116OSM   H18U12184   1.780   1.717   9.398 -0.3645 -2.9190  1.9176
  116OSM    C1F12185   1.402   0.850  10.567  0.5484  0.5132  0.1352
  116OSM     OF12186   1.316   0.904  10.637 -0.6278  0.2755  0.3486
  116OSM    C2F12187   1.377   0.732  10.483  0.4827  0.7693  0.6579
  116OSM    H2F12188   1.390   0.640  10.542  2.5545  1.4952  1.3944
  116OSM    H2G12189   1.450   0.729  10.399 -0.8704  0.1390 -0.5621
  116OSM    C3F12190   1.230   0.721  10.431 -0.3135 -0.4100  0.2817
  116OSM    H3F12191   1.186   0.813  10.385  1.3208  0.5247  0.5006
  116OSM    H3G12192   1.160   0.679  10.505  0.8693 -0.9472  1.1247
  116OSM    C4F12193   1.228   0.615  10.313  0.7415  0.2928  0.2836
  116OSM    H4F12194   1.264   0.512  10.333  1.5725  0.3906 -0.6137
  116OSM    H4G12195   1.311   0.650  10.247  1.8627  1.8264  2.3447
  116OSM    C5F12196   1.087   0.610  10.242 -0.3898  0.0666  0.7142
  116OSM    H5F12197   1.069   0.709  10.195 -1.8357 -0.3247  0.3894
  116OSM    H5G12198   0.998   0.607  10.308 -1.4820 -0.9007 -0.7398
  116OSM    C6F12199   1.076   0.509  10.134  0.3999  0.2750  0.1720
  116OSM    H6F12200   1.060   0.411  10.184  1.3919 -0.8011 -1.5050
  116OSM    H6G12201   1.170   0.505  10.075 -0.9926  0.6354 -2.2308
  116OSM    C7F12202   0.949   0.526  10.050 -0.7501 -0.2745 -0.2995
  116OSM    H7F12203   0.939   0.617   9.988 -1.5119 -0.2688 -0.1688
  116OSM    H7G12204   0.857   0.519  10.111 -0.8243  1.9552 -0.0851
  116OSM    C8F12205   0.952   0.408   9.949  0.2749 -0.7097 -0.5404
  116OSM    H8F12206   0.850   0.397   9.907 -0.1745 -0.5308  0.4888
  116OSM    H8G12207   0.963   0.314  10.006 -0.0116  0.0033  0.7370
  116OSM    C9F12208   1.055   0.417   9.835 -0.0947 -0.5280 -0.0909
  116OSM    H9F12209   1.136   0.342   9.836 -0.3023 -0.7568 -0.3455
  116OSM   C10F12210   1.048   0.491   9.721  0.3840  0.1309 -0.2442
  116OSM   H10F12211   1.127   0.466   9.648 -0.6970 -0.9638 -1.0933
  116OSM   C11F12212   0.936   0.585   9.680 -0.7715  0.6346 -0.4609
  116OSM   H11F12213   0.973   0.689   9.687 -1.2731  0.8241 -0.5918
  116OSM   H11G12214   0.853   0.576   9.753 -0.2947  0.5196  0.0749
  116OSM   C12F12215   0.877   0.558   9.535  0.3780  0.0479 -0.2090
  116OSM   H12F12216   0.779   0.609   9.519  0.2311 -0.8756 -2.7814
  116OSM   H12G12217   0.853   0.451   9.519  0.2016 -0.0578  0.7049
  116OSM   C13F12218   0.957   0.621   9.416 -0.3625 -0.1545 -0.1851
  116OSM   H13F12219   1.064   0.593   9.428 -0.0762  1.6208  2.2109
  116OSM   H13G12220   0.955   0.730   9.436 -2.7018 -0.4506  1.7027
  116OSM   C14F12221   0.890   0.587   9.284  0.0312 -0.4238 -0.4071
  116OSM   H14F12222   0.793   0.636   9.308  1.1845  0.1100  3.8864
  116OSM   H14G12223   0.875   0.477   9.273  0.3414 -0.4097 -1.0165
  116OSM   C15F12224   0.955   0.654   9.162  0.0280 -1.1208 -0.6102
  116OSM   H15F12225   1.062   0.628   9.176 -0.2130 -0.8421  2.5214
  116OSM   H15G12226   0.946   0.764   9.169 -2.0195 -1.3312  1.5181
  116OSM   C16F12227   0.909   0.593   9.031 -0.4104 -0.8915 -0.3427
  116OSM   H16F12228   0.818   0.637   8.984  0.8114  0.7680 -1.2486
  116OSM   H16G12229   0.901   0.484   9.051  3.6179 -0.9356  2.0119
  116OSM   C17F12230   1.005   0.606   8.917  0.4605  0.2976 -0.3574
  116OSM   H17F12231   0.982   0.534   8.835 -2.2103 -1.3064  1.6166
  116OSM   H17G12232   1.112   0.592   8.944  0.0718 -0.8423  0.6692
  116OSM   C18F12233   0.994   0.754   8.851 -0.1048  0.4320 -0.0991
  116OSM   H18F12234   0.890   0.757   8.812  0.0399 -1.4228 -0.7505
  116OSM   H18G12235   1.067   0.761   8.767 -0.9096 -0.7154 -0.9299
  116OSM   H18H12236   1.016   0.826   8.933 -0.0836  0.1119  0.1797
  117OSM      N12237   5.603   1.915  10.997 -0.2328 -0.2666  0.3742
  117OSM    C1512238   5.565   1.856  11.130 -1.0510 -0.0168 -0.1075
  117OSM   H15A12239   5.526   1.932  11.196 -4.4208 -2.7239  1.2878
  117OSM   H15B12240   5.652   1.817  11.181 -0.2619  0.8555 -0.7448
  117OSM   H15C12241   5.505   1.768  11.114  0.6219 -0.9220 -1.8213
  117OSM    C1412242   5.482   1.986  10.956 -0.0665  0.9423  0.6329
  117OSM   H14A12243   5.498   2.040  10.864 -2.2479  2.3580  0.9993
  117OSM   H14B12244   5.453   2.058  11.031 -1.1196  1.9936 -0.7273
  117OSM   H14C12245   5.400   1.917  10.940  2.4235 -2.7253  2.3147
  117OSM    C1312246   5.721   2.004  11.011 -0.4127 -0.2435  0.5751
  117OSM   H13A12247   5.747   2.053  10.918 -0.5988 -3.4198 -1.2811
  117OSM   H13B12248   5.803   1.938  11.033 -1.0420 -0.7930  1.2988
  117OSM   H13C12249   5.715   2.077  11.091 -2.1917 -1.2974  1.4610
  117OSM    C1212250   5.644   1.801  10.898  0.7884 -0.2872  0.3981
  117OSM   H12A12251   5.701   1.847  10.819  1.4540 -0.2735  0.8710
  117OSM   H12B12252   5.556   1.759  10.853 -0.0014  2.7361 -1.1267
  117OSM    C1112253   5.725   1.683  10.958  0.1117  0.2698 -0.1705
  117OSM   H11A12254   5.744   1.610  10.876  0.4631 -0.2071  0.3307
  117OSM   H11B12255   5.660   1.631  11.032 -0.5195  1.3341  0.0393
  117OSM      P12256   5.991   1.702  10.974 -0.0500  0.0457 -0.4463
  117OSM    O1312257   6.067   1.823  11.000 -0.5722  0.1152  0.0174
  117OSM    O1412258   6.039   1.582  11.038 -0.0735  0.3032  0.5832
  117OSM    O1112259   5.966   1.681  10.821 -0.5304 -0.4464 -0.3976
  117OSM    O1212260   5.845   1.718  11.036  0.1488  0.1102 -0.7753
  117OSM    C1S12261   6.081   1.689  10.732  0.9554 -0.9644 -0.9030
  117OSM    H1S12262   6.157   1.610  10.747 -1.2630 -3.1038 -0.3024
  117OSM    H1T12263   6.134   1.785  10.750  0.9348 -1.0070 -0.6046
  117OSM     NF12264   6.153   1.698  10.495 -0.1298 -0.3739  1.0759
  117OSM    HNF12265   6.190   1.784  10.461 -0.1719 -0.9456 -0.4663
  117OSM    C2S12266   6.036   1.707  10.585  0.0613 -0.8076 -0.0151
  117OSM    H2S12267   5.971   1.618  10.567 -1.2628  0.2846 -0.8545
  117OSM    C3S12268   5.952   1.832  10.557  0.3600  0.7664 -0.4392
  117OSM    H3S12269   6.017   1.920  10.578  1.3688 -0.3146  1.1095
  117OSM     O312270   5.849   1.851  10.661 -0.0349 -0.1450  0.3944
  117OSM    HO312271   5.882   1.806  10.739  0.6361 -1.2374 -0.4940
  117OSM    C4S12272   5.895   1.848  10.420  0.0044  0.6251  0.5192
  117OSM    H4S12273   5.818   1.780  10.380  0.3140  0.4442  0.2325
  117OSM    C5S12274   5.921   1.956  10.338  0.2506  0.1289 -0.4159
  117OSM    H5S12275   5.997   2.027  10.375  0.1365 -0.7662  1.7026
  117OSM    C6S12276   5.854   1.978  10.202  0.7607  0.0788  0.1169
  117OSM    H6S12277   5.794   2.071  10.190  1.8907  0.8492  0.3706
  117OSM    H6T12278   5.781   1.895  10.189  1.9603 -0.7559 -1.6002
  117OSM    C7S12279   5.957   1.972  10.097 -0.6120  0.2473  0.7303
  117OSM    H7S12280   6.005   1.873  10.118  1.3642  1.0003  0.0048
  117OSM    H7T12281   6.038   2.048  10.089  1.1134 -1.6146 -0.7197
  117OSM    C8S12282   5.889   1.961   9.959  0.4289  0.2102 -0.5677
  117OSM    H8S12283   5.849   2.061   9.929  1.4971  1.2311  1.2304
  117OSM    H8T12284   5.805   1.889   9.962  1.8560 -1.4862  0.6373
  117OSM    C9S12285   5.985   1.930   9.851  0.4141  0.0956  0.8076
  117OSM    H9S12286   6.026   1.831   9.880 -1.7352 -1.4105 -0.9455
  117OSM    H9T12287   6.063   2.010   9.858  0.7523 -0.2948  1.5626
  117OSM   C10S12288   5.918   1.922   9.713 -0.4980 -1.3447  0.2189
  117OSM   H10S12289   5.855   2.013   9.703  1.3092 -0.1134 -0.5539
  117OSM   H10T12290   5.849   1.837   9.734 -1.4329 -1.2155 -2.0284
  117OSM   C11S12291   6.008   1.897   9.593  0.6135 -0.0634 -0.4056
  117OSM   H11S12292   6.076   1.812   9.617  1.9969  1.2436  0.4640
  117OSM   H11T12293   6.073   1.984   9.574 -1.3721  1.3338 -1.1484
  117OSM   C12S12294   5.927   1.870   9.465 -0.1306  0.2704 -0.4987
  117OSM   H12S12295   5.828   1.920   9.459 -1.1803 -1.0471  3.1456
  117OSM   H12T12296   5.904   1.761   9.463 -2.8054  0.7342 -3.3078
  117OSM   C13S12297   6.012   1.887   9.342 -0.0468  0.5464  0.3763
  117OSM   H13S12298   6.098   1.817   9.340 -1.8095 -1.7828  0.3478
  117OSM   H13T12299   6.052   1.990   9.341  1.3040  0.0361 -0.2687
  117OSM   C14S12300   5.948   1.842   9.209  0.4810  0.2452  0.5591
  117OSM   H14S12301   5.854   1.899   9.196  0.2858 -0.2385 -0.2477
  117OSM   H14T12302   5.923   1.734   9.218  3.6159 -0.5387  0.8895
  117OSM   C15S12303   6.030   1.877   9.088  0.0224  0.5194 -0.3058
  117OSM   H15S12304   6.125   1.819   9.094 -1.5257 -2.2136 -0.8390
  117OSM   H15T12305   6.060   1.984   9.097  1.5470  0.0122  1.3971
  117OSM   C16S12306   5.958   1.851   8.960 -0.6577  0.0438  0.1893
  117OSM   H16S12307   5.858   1.898   8.956 -0.3801  0.6165 -0.1796
  117OSM   H16T12308   5.932   1.745   8.940 -1.4654  0.4061 -0.7563
  117OSM   C17S12309   6.044   1.895   8.832  0.3060  0.2050 -0.4213
  117OSM   H17S12310   6.056   2.004   8.844 -0.6010  0.1390  1.4193
  117OSM   H17T12311   5.982   1.883   8.741 -0.4389  3.1015 -0.3772
  117OSM   C18S12312   6.178   1.830   8.818  0.6348  0.3478 -0.0746
  117OSM   H18S12313   6.216   1.843   8.714 -1.9939 -1.6461 -1.3965
  117OSM   H18T12314   6.180   1.722   8.843 -0.3578 -0.2547 -2.3644
  117OSM   H18U12315   6.254   1.867   8.890  1.6784 -1.3399 -0.2564
  117OSM    C1F12316   6.213   1.583  10.470 -0.4072 -0.2874 -0.1336
  117OSM     OF12317   6.180   1.491  10.538  0.2739  0.0941 -0.5546
  117OSM    C2F12318   6.313   1.581  10.365  0.0872  0.1884 -0.0524
  117OSM    H2F12319   6.405   1.614  10.417 -0.1892 -0.3170  0.7803
  117OSM    H2G12320   6.290   1.657  10.287  0.0881  0.9097  0.6437
  117OSM    C3F12321   6.321   1.450  10.291  0.1432  0.2851 -0.3432
  117OSM    H3F12322   6.221   1.446  10.243  0.4610 -1.7194 -0.9734
  117OSM    H3G12323   6.333   1.365  10.362 -0.0770  1.3018  0.9258
  117OSM    C4F12324   6.422   1.458  10.176 -0.2044 -0.2936 -0.0129
  117OSM    H4F12325   6.524   1.445  10.218 -0.5467 -2.2925  0.3038
  117OSM    H4G12326   6.415   1.557  10.126 -0.2496 -0.2772  0.0266
  117OSM    C5F12327   6.400   1.348  10.075 -0.1506  0.1685 -0.0645
  117OSM    H5F12328   6.297   1.358  10.034 -0.3999  1.7590  0.8950
  117OSM    H5G12329   6.401   1.251  10.129  0.8665 -0.0558 -0.4683
  117OSM    C6F12330   6.487   1.358   9.950  0.1146  0.5342 -0.3310
  117OSM    H6F12331   6.592   1.378   9.980 -0.4836  2.1710  0.8126
  117OSM    H6G12332   6.448   1.451   9.903 -0.4304  0.3961 -0.1532
  117OSM    C7F12333   6.490   1.237   9.860 -0.4986  0.2537  0.5751
  117OSM    H7F12334   6.392   1.187   9.841  0.3786 -2.1878  1.9575
  117OSM    H7G12335   6.562   1.163   9.901  1.5698  1.9167  0.0827
  117OSM    C8F12336   6.549   1.275   9.725 -0.2638 -0.3760  0.0557
  117OSM    H8F12337   6.563   1.182   9.667  2.7372  0.4969 -0.7917
  117OSM    H8G12338   6.653   1.311   9.741 -0.2554 -0.1296 -0.5348
  117OSM    C9F12339   6.478   1.379   9.636 -0.0245  0.4057 -0.2595
  117OSM    H9F12340   6.432   1.466   9.685  1.4586  0.4084  1.2483
  117OSM   C10F12341   6.481   1.385   9.498  0.6256 -0.7684 -0.0159
  117OSM   H10F12342   6.423   1.467   9.452  2.2166 -0.9053 -2.4410
  117OSM   C11F12343   6.548   1.298   9.399  0.1510  0.5455 -0.4269
  117OSM   H11F12344   6.598   1.214   9.451 -0.6899  0.6408  0.5809
  117OSM   H11G12345   6.638   1.349   9.360  2.3245  0.7524  4.1568
  117OSM   C12F12346   6.459   1.236   9.293  0.2297  0.5656  0.1803
  117OSM   H12F12347   6.410   1.315   9.233  0.4847  0.9464  0.4698
  117OSM   H12G12348   6.376   1.186   9.347  1.4239  0.2502  1.8251
  117OSM   C13F12349   6.535   1.140   9.199  0.9511  0.1648  1.4678
  117OSM   H13F12350   6.572   1.053   9.258  0.3979 -0.4788  0.8716
  117OSM   H13G12351   6.621   1.192   9.151 -0.2536  0.1928 -0.7879
  117OSM   C14F12352   6.438   1.097   9.092 -0.2970  0.5717 -0.2897
  117OSM   H14F12353   6.441   1.189   9.029  0.3628  2.0977  1.8414
  117OSM   H14G12354   6.339   1.081   9.139  1.3135  0.0501  3.2972
  117OSM   C15F12355   6.475   0.967   9.018  0.1291 -0.5245  0.3405
  117OSM   H15F12356   6.482   0.881   9.089 -1.3410 -1.3343 -0.4388
  117OSM   H15G12357   6.576   0.983   8.976  0.4275 -0.9817  0.8572
  117OSM   C16F12358   6.384   0.929   8.904  0.0966  0.4052 -0.3495
  117OSM   H16F12359   6.373   1.021   8.843  2.2192  0.4646 -0.7353
  117OSM   H16G12360   6.286   0.901   8.948 -0.0470  0.1335 -0.8305
  117OSM   C17F12361   6.453   0.819   8.825 -0.4574  0.0796  0.0175
  117OSM   H17F12362   6.457   0.726   8.885 -2.0817  0.1046  0.2044
  117OSM   H17G12363   6.548   0.861   8.786  0.7405 -2.0673  0.4495
  117OSM   C18F12364   6.374   0.786   8.697  0.1155  0.5004 -0.1257
  117OSM   H18F12365   6.424   0.709   8.634  0.3870  1.7110 -1.4236
  117OSM   H18G12366   6.375   0.873   8.629  2.2096  0.5691 -0.0683
  117OSM   H18H12367   6.275   0.746   8.728  0.4358  0.1093  0.4216
  118OSM      N12368   0.753   2.884  11.256  0.4197 -0.0892 -0.0232
  118OSM    C1512369   0.625   2.832  11.318 -0.1188 -0.0768  0.3520
  118OSM   H15A12370   0.603   2.735  11.275 -1.3973  1.1982 -2.0772
  118OSM   H15B12371   0.535   2.888  11.297 -0.1992 -0.0037  0.8867
  118OSM   H15C12372   0.632   2.832  11.426  2.3123 -1.3864  0.2754
  118OSM    C1412373   0.787   3.012  11.322  0.5873 -0.5933 -0.1309
  118OSM   H14A12374   0.880   3.054  11.287 -0.0031 -0.2864 -1.3704
  118OSM   H14B12375   0.780   3.002  11.430 -0.2709  0.6305 -0.0522
  118OSM   H14C12376   0.705   3.078  11.298 -0.3458 -1.2259  1.1666
  118OSM    C1312377   0.859   2.782  11.289  0.4895  0.0828  0.2007
  118OSM   H13A12378   0.883   2.778  11.394  1.4018 -1.4339 -0.0352
  118OSM   H13B12379   0.944   2.799  11.225 -0.7417  0.0977 -1.5302
  118OSM   H13C12380   0.827   2.684  11.258  3.3439 -0.3258 -1.8211
  118OSM    C1212381   0.731   2.884  11.110 -0.2022 -0.6177  0.0471
  118OSM   H12A12382   0.731   2.783  11.073 -1.4707 -0.2766 -0.9919
  118OSM   H12B12383   0.819   2.928  11.066  0.1597 -0.5988  0.7829
  118OSM    C1112384   0.612   2.959  11.056  0.4260 -0.4318  0.6785
  118OSM   H11A12385   0.512   2.912  11.068 -1.5323  3.1568 -0.3351
  118OSM   H11B12386   0.629   2.964  10.946  1.3990  0.5074  0.8570
  118OSM      P12387   0.630   3.225  11.046  0.2990 -0.2370 -0.2119
  118OSM    O1312388   0.518   3.313  11.087 -0.2138 -0.3285  0.1305
  118OSM    O1412389   0.767   3.270  11.078 -0.1394 -0.4578  0.2776
  118OSM    O1112390   0.607   3.200  10.887 -0.0644  0.0488  0.4214
  118OSM    O1212391   0.582   3.086  11.110 -0.2348  0.9494 -0.2378
  118OSM    C1S12392   0.637   3.300  10.791 -0.0954  0.2164  0.1201
  118OSM    H1S12393   0.736   3.349  10.804  0.1541 -0.5223  1.1191
  118OSM    H1T12394   0.560   3.379  10.782 -0.2610 -0.0470 -0.8959
  118OSM     NF12395   0.704   3.327  10.556  0.4231  0.0499 -0.0997
  118OSM    HNF12396   0.655   3.393  10.500  1.3462 -0.2029 -1.2351
  118OSM    C2S12397   0.629   3.237  10.644 -0.5873 -0.3557 -0.4296
  118OSM    H2S12398   0.682   3.139  10.637  1.2490  0.1748  3.4624
  118OSM    C3S12399   0.474   3.207  10.615 -0.6385  0.5603  0.7519
  118OSM    H3S12400   0.418   3.303  10.621 -1.8248 -0.1143  0.8325
  118OSM     O312401   0.419   3.124  10.715 -0.4176 -0.1783 -0.1390
  118OSM    HO312402   0.482   3.139  10.787 -1.8022 -0.0345  1.0819
  118OSM    C4S12403   0.450   3.151  10.475 -0.2673 -0.0456 -0.2611
  118OSM    H4S12404   0.478   3.047  10.452 -0.8584 -0.1292 -0.6227
  118OSM    C5S12405   0.380   3.218  10.382  0.2403 -0.6588 -0.2036
  118OSM    H5S12406   0.354   3.322  10.408  1.1441 -0.8830  1.8048
  118OSM    C6S12407   0.338   3.185  10.243 -0.8564 -0.1209  1.0732
  118OSM    H6S12408   0.383   3.254  10.168  0.7994 -0.6832  1.5018
  118OSM    H6T12409   0.229   3.209  10.237 -0.5750  0.9493 -2.5654
  118OSM    C7S12410   0.364   3.036  10.193  0.1950 -0.4385 -0.0069
  118OSM    H7S12411   0.313   2.969  10.265 -1.5039  2.8799  2.1635
  118OSM    H7T12412   0.473   3.012  10.193  0.4183  0.4467 -1.3445
  118OSM    C8S12413   0.301   3.009  10.057  0.3838 -0.2937 -0.0168
  118OSM    H8S12414   0.195   3.044  10.059  0.8894  1.2719  0.2518
  118OSM    H8T12415   0.304   2.903  10.024 -0.6407 -0.7227  1.1562
  118OSM    C9S12416   0.371   3.088   9.941 -0.1190  0.9596  0.6142
  118OSM    H9S12417   0.481   3.074   9.943 -0.4296 -3.5344 -1.3783
  118OSM    H9T12418   0.348   3.196   9.948  0.1641  1.0328  0.4096
  118OSM   C10S12419   0.322   3.049   9.798 -0.0015  0.5865  0.1170
  118OSM   H10S12420   0.213   3.065   9.780 -0.0830  0.2012  0.2739
  118OSM   H10T12421   0.343   2.943   9.771  1.0579  0.2286  2.1843
  118OSM   C11S12422   0.383   3.145   9.695  0.4792 -0.1574 -0.0771
  118OSM   H11S12423   0.493   3.133   9.699  0.4450 -0.3061  0.4713
  118OSM   H11T12424   0.356   3.248   9.727  0.9474 -0.2147  0.5136
  118OSM   C12S12425   0.331   3.120   9.551 -0.5520  0.1911 -0.9710
  118OSM   H12S12426   0.342   3.211   9.490 -1.6062  0.5563 -0.6320
  118OSM   H12T12427   0.229   3.077   9.551 -0.2480 -0.5744 -1.5936
  118OSM   C13S12428   0.418   3.005   9.492 -0.0351 -0.1150 -0.2314
  118OSM   H13S12429   0.421   2.913   9.555  0.5020  1.0909  1.5482
  118OSM   H13T12430   0.525   3.031   9.476  0.8691 -2.3957  1.4095
  118OSM   C14S12431   0.366   2.957   9.357  0.8341 -0.4600  0.3211
  118OSM   H14S12432   0.371   3.043   9.286 -0.0993 -0.0542  0.7219
  118OSM   H14T12433   0.257   2.940   9.362  0.1067  2.6791 -1.7377
  118OSM   C15S12434   0.443   2.834   9.304  0.3330 -0.0705  0.2735
  118OSM   H15S12435   0.397   2.746   9.354 -0.5858 -0.3748 -1.0424
  118OSM   H15T12436   0.550   2.824   9.332  0.8729 -1.6918 -2.0810
  118OSM   C16S12437   0.439   2.817   9.150  0.2580  0.0334 -0.0860
  118OSM   H16S12438   0.494   2.903   9.106  0.0840 -0.6124 -1.6440
  118OSM   H16T12439   0.333   2.829   9.119  0.3295  1.5406  0.2189
  118OSM   C17S12440   0.494   2.682   9.097 -0.0795  0.7295 -0.6417
  118OSM   H17S12441   0.457   2.667   8.993  2.2049 -0.8455 -1.3128
  118OSM   H17T12442   0.470   2.595   9.162  0.1985  0.7462 -0.5161
  118OSM   C18S12443   0.639   2.690   9.093  0.1733  0.4956  0.0235
  118OSM   H18S12444   0.665   2.772   9.022  0.7217  1.0558  0.8594
  118OSM   H18T12445   0.672   2.597   9.040 -0.6769 -0.7646  1.6195
  118OSM   H18U12446   0.687   2.699   9.193 -4.9447  0.5856  2.8123
  118OSM    C1F12447   0.835   3.336  10.568 -0.0273  0.0190 -0.6231
  118OSM     OF12448   0.897   3.256  10.642  0.7228  0.0487  0.5095
  118OSM    C2F12449   0.900   3.450  10.497 -0.0794  0.1121 -0.0477
  118OSM    H2F12450   0.955   3.520  10.563  1.4986 -1.7145  0.6618
  118OSM    H2G12451   0.819   3.505  10.444 -0.9576 -0.6939  0.4197
  118OSM    C3F12452   1.009   3.390  10.393 -0.0452  0.4536 -0.2015
  118OSM    H3F12453   1.075   3.313  10.440  0.5779 -0.4479 -2.4265
  118OSM    H3G12454   1.059   3.483  10.358 -2.5950  1.9500 -0.1751
  118OSM    C4F12455   0.944   3.322  10.269  0.8637 -0.4882 -0.7512
  118OSM    H4F12456   0.869   3.252  10.311  1.3300  1.3662  3.8424
  118OSM    H4G12457   1.014   3.257  10.213  2.3174 -1.6005  2.1146
  118OSM    C5F12458   0.883   3.421  10.162 -0.1905  0.1250  0.0522
  118OSM    H5F12459   0.968   3.458  10.100 -0.2920 -0.7402 -0.6291
  118OSM    H5G12460   0.845   3.513  10.211 -1.2512 -0.3820  0.2177
  118OSM    C6F12461   0.768   3.362  10.080 -0.3259  0.1414 -0.0013
  118OSM    H6F12462   0.696   3.320  10.153 -0.8399 -2.4178 -1.8543
  118OSM    H6G12463   0.802   3.272  10.024 -1.3300 -2.4827  3.2946
  118OSM    C7F12464   0.703   3.469   9.986 -0.3426  0.5162 -0.2043
  118OSM    H7F12465   0.774   3.518   9.916 -0.4047  0.9895  0.0583
  118OSM    H7G12466   0.683   3.548  10.060  1.9379  2.1842 -1.2411
  118OSM    C8F12467   0.582   3.421   9.912  0.0328  0.0779 -0.4803
  118OSM    H8F12468   0.504   3.373   9.975 -0.4914  1.6386  0.1108
  118OSM    H8G12469   0.622   3.335   9.855  0.0271 -0.3340  0.1309
  118OSM    C9F12470   0.519   3.536   9.828 -0.2621  0.8201 -0.5648
  118OSM    H9F12471   0.456   3.606   9.883  1.2601 -0.2769  2.8788
  118OSM   C10F12472   0.531   3.543   9.691  0.0207  0.9880 -0.3692
  118OSM   H10F12473   0.460   3.608   9.637 -2.1263 -0.6133  0.3887
  118OSM   C11F12474   0.619   3.462   9.599  0.1546 -0.1187  0.0419
  118OSM   H11F12475   0.583   3.357   9.601 -0.1681 -0.0023  1.1670
  118OSM   H11G12476   0.714   3.462   9.657 -0.8234  1.1894  1.7358
  118OSM   C12F12477   0.636   3.521   9.462 -0.3207 -0.2427 -0.1975
  118OSM   H12F12478   0.737   3.498   9.423  0.0735  0.9091  0.0937
  118OSM   H12G12479   0.641   3.631   9.476  3.5952 -0.4038  0.5682
  118OSM   C13F12480   0.535   3.475   9.359 -1.0594  0.1203  0.9403
  118OSM   H13F12481   0.431   3.484   9.395 -0.7461  0.2199  1.8520
  118OSM   H13G12482   0.553   3.371   9.325  0.6183 -0.1335  2.4125
  118OSM   C14F12483   0.566   3.543   9.223  0.1581 -0.7334  0.3126
  118OSM   H14F12484   0.528   3.647   9.235 -1.1823 -1.3099  1.2635
  118OSM   H14G12485   0.500   3.495   9.148  0.0982 -0.5509  0.2486
  118OSM   C15F12486   0.709   3.551   9.161 -0.7724 -0.0220  0.0293
  118OSM   H15F12487   0.742   3.449   9.132 -0.9295 -0.3020  0.8138
  118OSM   H15G12488   0.785   3.585   9.235 -1.8405  1.0451  0.6824
  118OSM   C16F12489   0.712   3.630   9.025  0.8151  0.1136  0.5557
  118OSM   H16F12490   0.688   3.734   9.056  0.0007 -0.6976  2.8883
  118OSM   H16G12491   0.627   3.579   8.976 -0.2764  0.4603  2.0120
  118OSM   C17F12492   0.843   3.616   8.944  0.6874  0.0825 -0.2113
  118OSM   H17F12493   0.871   3.512   8.970 -0.0125  0.4964  2.4774
  118OSM   H17G12494   0.916   3.682   8.995 -1.9151  0.6695  3.0585
  118OSM   C18F12495   0.823   3.650   8.795 -0.1803 -0.0999 -0.6366
  118OSM   H18F12496   0.920   3.651   8.741  0.6625  1.5908  0.7911
  118OSM   H18G12497   0.770   3.747   8.788 -1.4566 -0.7961 -0.8134
  118OSM   H18H12498   0.751   3.572   8.763  0.5266 -1.4058  0.7628
  119OSM      N12499   0.663   1.247  11.102  0.2379  0.5265  0.2321
  119OSM    C1512500   0.519   1.247  11.120 -0.5088  0.3461 -0.2764
  119OSM   H15A12501   0.487   1.289  11.214 -0.1238 -1.0758  0.5107
  119OSM   H15B12502   0.482   1.146  11.125 -0.7810  0.4095 -0.9402
  119OSM   H15C12503   0.468   1.294  11.037 -1.0489 -0.7916 -0.6087
  119OSM    C1412504   0.721   1.210  11.242  0.0310  0.1260  0.0753
  119OSM   H14A12505   0.694   1.273  11.325 -0.9540 -2.1021  1.5613
  119OSM   H14B12506   0.829   1.209  11.233 -0.0800  1.9346 -2.2474
  119OSM   H14C12507   0.694   1.108  11.263 -0.3000 -0.0906 -1.3201
  119OSM    C1312508   0.698   1.135  11.006  0.2791 -0.1426 -0.0117
  119OSM   H13A12509   0.804   1.112  11.011  0.2393 -0.1216  1.4849
  119OSM   H13B12510   0.677   1.175  10.908  1.0890  0.0011 -0.1404
  119OSM   H13C12511   0.644   1.042  11.017  0.8131 -0.4084  0.4367
  119OSM    C1212512   0.716   1.387  11.082  0.2718  0.7967  0.0810
  119OSM   H12A12513   0.824   1.390  11.081  0.2746  1.4671  1.4506
  119OSM   H12B12514   0.682   1.456  11.157 -0.0551  0.9226 -0.1830
  119OSM    C1112515   0.658   1.450  10.955  0.2946  0.3367  0.0593
  119OSM   H11A12516   0.555   1.483  10.978  0.8826  1.1579  1.7394
  119OSM   H11B12517   0.653   1.371  10.877 -0.9574 -1.9807  2.3368
  119OSM      P12518   0.870   1.535  10.837  0.1855 -0.0686  0.1830
  119OSM    O1312519   0.923   1.658  10.779  0.1887  0.5490 -0.2680
  119OSM    O1412520   0.953   1.455  10.927 -0.7031 -0.7400 -0.4296
  119OSM    O1112521   0.821   1.441  10.723 -0.1186  0.1640 -0.1391
  119OSM    O1212522   0.737   1.558  10.921  0.1523 -0.0643  0.2688
  119OSM    C1S12523   0.713   1.463  10.629  0.1289  0.6792  0.0536
  119OSM    H1S12524   0.722   1.567  10.590  1.7097  0.3441 -0.5528
  119OSM    H1T12525   0.609   1.440  10.660 -0.1660  0.2934 -1.1719
  119OSM     NF12526   0.669   1.418  10.396 -0.5196  0.4115 -0.7055
  119OSM    HNF12527   0.591   1.369  10.357  0.0609 -0.3323 -0.9561
  119OSM    C2S12528   0.737   1.365  10.511 -0.1246 -0.6278 -0.4208
  119OSM    H2S12529   0.847   1.368  10.501  0.1787 -0.3983  2.1887
  119OSM    C3S12530   0.697   1.225  10.551 -0.1564 -0.4757 -0.0487
  119OSM    H3S12531   0.586   1.225  10.557 -0.1727 -1.1121 -0.2712
  119OSM     O312532   0.765   1.172  10.663  0.4417 -0.0966 -0.1470
  119OSM    HO312533   0.801   1.247  10.711  0.0128 -1.1372  1.9494
  119OSM    C4S12534   0.718   1.129  10.430 -0.1128  0.3544  0.1875
  119OSM    H4S12535   0.632   1.119  10.363 -0.9360  1.4213  1.0486
  119OSM    C5S12536   0.825   1.042  10.406 -0.6252 -0.3128 -0.3225
  119OSM    H5S12537   0.913   1.045  10.472 -0.5572 -0.3311 -0.4126
  119OSM    C6S12538   0.854   0.958  10.288  0.1495  0.2888  0.7481
  119OSM    H6S12539   0.860   0.852  10.321  0.9474 -0.0140 -0.3038
  119OSM    H6T12540   0.954   0.975  10.243  0.1607  0.0460  0.6756
  119OSM    C7S12541   0.737   0.969  10.184  0.0860  0.0128  0.4276
  119OSM    H7S12542   0.711   1.070  10.148  1.0087  0.4668  1.0012
  119OSM    H7T12543   0.653   0.922  10.240  0.2168  0.5018  1.0419
  119OSM    C8S12544   0.756   0.887  10.059  0.9712 -0.2934  0.4037
  119OSM    H8S12545   0.682   0.805  10.045  0.3845  0.3999 -0.6731
  119OSM    H8T12546   0.848   0.829  10.085  1.8631  1.8202  2.2962
  119OSM    C9S12547   0.768   0.965   9.926  0.1599 -0.1437 -0.4040
  119OSM    H9S12548   0.866   1.017   9.929 -0.2375  0.7277 -1.4978
  119OSM    H9T12549   0.692   1.046   9.933 -0.6361 -0.9632  0.6845
  119OSM   C10S12550   0.739   0.887   9.797  0.4488 -0.0368 -0.5750
  119OSM   H10S12551   0.655   0.820   9.824  0.9505 -0.4577 -0.0439
  119OSM   H10T12552   0.823   0.818   9.777 -0.1512 -0.2568 -2.5429
  119OSM   C11S12553   0.699   0.980   9.685 -0.7283 -0.0172 -0.0425
  119OSM   H11S12554   0.785   1.046   9.660 -1.6156  0.5706 -1.6957
  119OSM   H11T12555   0.615   1.045   9.719  0.7890  1.0382  1.9568
  119OSM   C12S12556   0.663   0.901   9.564  0.4248  0.7899 -0.4446
  119OSM   H12S12557   0.594   0.814   9.577  0.3016  1.0928  1.1319
  119OSM   H12T12558   0.757   0.863   9.517  2.1437  1.0715  2.5361
  119OSM   C13S12559   0.603   0.992   9.454  0.1631  0.0448  0.9044
  119OSM   H13S12560   0.660   1.083   9.427 -0.9386  0.5600  0.2211
  119OSM   H13T12561   0.494   1.011   9.466  0.2430  1.4904 -0.3448
  119OSM   C14S12562   0.625   0.924   9.313  0.2202 -0.4563 -0.2650
  119OSM   H14S12563   0.565   0.830   9.313  0.8296 -0.9629  2.9917
  119OSM   H14T12564   0.729   0.886   9.307  0.0007 -1.2128  0.4098
  119OSM   C15S12565   0.603   1.013   9.188 -0.3805 -0.2746 -0.8997
  119OSM   H15S12566   0.671   1.100   9.200  1.4643 -1.6650 -0.9190
  119OSM   H15T12567   0.504   1.064   9.193 -0.1384  0.0977  0.6754
  119OSM   C16S12568   0.632   0.938   9.060 -0.2290  0.1057 -0.0966
  119OSM   H16S12569   0.567   0.849   9.062  0.1003 -0.1428 -0.3153
  119OSM   H16T12570   0.731   0.888   9.051 -1.7489 -3.1834  0.4309
  119OSM   C17S12571   0.604   1.024   8.935  0.2955  0.2370 -0.4949
  119OSM   H17S12572   0.556   1.119   8.967 -0.9843 -0.3764 -0.5415
  119OSM   H17T12573   0.520   0.979   8.877 -0.3478  0.6768  0.0905
  119OSM   C18S12574   0.737   1.059   8.863  0.2223 -0.4777 -0.0599
  119OSM   H18S12575   0.708   1.128   8.781 -1.5303 -0.3505  0.6145
  119OSM   H18T12576   0.792   0.973   8.819  1.6250  2.1133 -3.8863
  119OSM   H18U12577   0.811   1.115   8.923 -0.2931 -0.2992  0.4169
  119OSM    C1F12578   0.716   1.512  10.324 -0.4324 -1.1258  0.2188
  119OSM     OF12579   0.821   1.566  10.356 -0.3301 -0.1087  0.1826
  119OSM    C2F12580   0.644   1.536  10.196  0.2943  0.0626 -0.2403
  119OSM    H2F12581   0.607   1.640  10.197 -1.2422 -0.3725 -2.8291
  119OSM    H2G12582   0.548   1.480  10.197 -0.4939  1.3856  0.0492
  119OSM    C3F12583   0.719   1.519  10.069 -0.2017 -0.1895  0.1655
  119OSM    H3F12584   0.781   1.427  10.072 -0.7861 -0.5632  1.0659
  119OSM    H3G12585   0.802   1.589  10.048  1.6450 -2.4283 -0.4180
  119OSM    C4F12586   0.633   1.513   9.937  0.4261  0.2724  0.1374
  119OSM    H4F12587   0.586   1.613   9.930  1.9988  1.0732  0.6036
  119OSM    H4G12588   0.554   1.441   9.967 -0.0507  1.3773  1.6189
  119OSM    C5F12589   0.705   1.488   9.807  0.2450 -0.4157  0.5479
  119OSM    H5F12590   0.780   1.408   9.822 -2.1348 -2.8202  0.4844
  119OSM    H5G12591   0.759   1.581   9.781  0.0700  0.3022  2.5320
  119OSM    C6F12592   0.622   1.435   9.691  0.4248  0.0696 -0.3335
  119OSM    H6F12593   0.558   1.521   9.662  1.0141  1.0488  1.1479
  119OSM    H6G12594   0.548   1.357   9.719 -0.1025  0.9358  0.7579
  119OSM    C7F12595   0.709   1.397   9.567  0.3805  0.3788 -0.1190
  119OSM    H7F12596   0.750   1.297   9.592  2.8392  1.2078 -0.6166
  119OSM    H7G12597   0.794   1.468   9.566  0.9110 -0.2480 -0.1759
  119OSM    C8F12598   0.632   1.382   9.430  0.4019 -0.3035 -0.1677
  119OSM    H8F12599   0.551   1.308   9.446 -2.6956  2.9701  0.7201
  119OSM    H8G12600   0.699   1.330   9.358  0.7627 -2.8299  1.8490
  119OSM    C9F12601   0.590   1.515   9.365  0.5194 -0.0998  0.0427
  119OSM    H9F12602   0.493   1.563   9.384 -0.3810 -0.4879 -2.9779
  119OSM   C10F12603   0.675   1.589   9.287  0.8400 -0.5109 -0.3842
  119OSM   H10F12604   0.636   1.680   9.240  0.7908  0.9967  2.4142
  119OSM   C11F12605   0.825   1.563   9.264 -0.4818  0.5791 -0.4452
  119OSM   H11F12606   0.858   1.465   9.307 -1.4943  0.7301  0.7513
  119OSM   H11G12607   0.883   1.624   9.337 -0.4900 -1.0773  1.0349
  119OSM   C12F12608   0.880   1.569   9.118 -0.6750  0.2654  0.3251
  119OSM   H12F12609   0.815   1.501   9.057 -0.2561 -0.2124  0.4092
  119OSM   H12G12610   0.980   1.524   9.135 -0.0056  1.1549 -1.0525
  119OSM   C13F12611   0.868   1.708   9.053 -0.7330  0.0171  0.1829
  119OSM   H13F12612   0.941   1.772   9.106  0.6647 -0.2460 -1.3364
  119OSM   H13G12613   0.769   1.758   9.057 -0.4057  0.5857  1.6097
  119OSM   C14F12614   0.914   1.707   8.910 -0.0077  0.1308  0.1200
  119OSM   H14F12615   0.867   1.621   8.859  0.3311 -1.3552  2.1837
  119OSM   H14G12616   1.021   1.682   8.898 -0.6014 -1.3575 -2.9481
  119OSM   C15F12617   0.896   1.842   8.833 -0.6755  0.5200 -0.1738
  119OSM   H15F12618   0.924   1.927   8.899  0.1971  0.5027 -0.5088
  119OSM   H15G12619   0.789   1.851   8.804 -0.8226 -1.1922 -0.2820
  119OSM   C16F12620   0.983   1.858   8.710  0.2012  0.1728 -0.1487
  119OSM   H16F12621   0.954   1.791   8.627  0.8957 -0.2615 -0.0520
  119OSM   H16G12622   1.088   1.833   8.736  0.7413  0.9211 -1.4836
  119OSM   C17F12623   0.985   1.999   8.657 -0.6963  0.0011 -0.8323
  119OSM   H17F12624   1.020   2.075   8.729 -1.7600 -0.7938  0.5677
  119OSM   H17G12625   0.879   2.027   8.646 -0.9479 -0.0173  1.1636
  119OSM   C18F12626   1.056   2.012   8.523  0.2595  0.8511 -0.0503
  119OSM   H18F12627   1.158   1.983   8.555 -0.6093 -0.8101  1.4544
  119OSM   H18G12628   1.064   2.113   8.479  0.1025  0.5343 -0.8130
  119OSM   H18H12629   1.008   1.932   8.463  0.4246  0.5632  0.1986
  120OSM      N12630   6.198   5.042  10.775  0.2832  0.1901 -0.0494
  120OSM    C1512631   6.319   5.003  10.847 -0.7269  0.3372 -0.6614
  120OSM   H15A12632   6.318   4.900  10.879 -1.0455 -0.3801 -2.8409
  120OSM   H15B12633   6.334   5.071  10.930 -1.8184  0.0281 -0.1889
  120OSM   H15C12634   6.405   5.012  10.783 -0.9423 -0.4249 -1.0743
  120OSM    C1412635   6.078   5.014  10.854 -0.2935 -0.3546  0.0700
  120OSM   H14A12636   6.075   5.070  10.947  0.7868 -0.9437  0.4841
  120OSM   H14B12637   6.068   4.912  10.888  0.5569 -0.3190  0.4742
  120OSM   H14C12638   5.992   5.041  10.796 -0.6781 -0.3771  0.6181
  120OSM    C1312639   6.204   5.178  10.741  0.2108 -0.1597 -0.3349
  120OSM   H13A12640   6.123   5.210  10.677  0.9011  1.4178 -0.4777
  120OSM   H13B12641   6.287   5.204  10.677  0.1887  1.5410  0.2794
  120OSM   H13C12642   6.190   5.224  10.838 -1.3494 -2.0853  0.4205
  120OSM    C1212643   6.197   4.956  10.651  0.2914  0.3857 -0.1015
  120OSM   H12A12644   6.193   4.852  10.681  0.3481  0.4244  0.0417
  120OSM   H12B12645   6.282   4.977  10.589 -0.2596  0.8401 -0.7215
  120OSM    C1112646   6.086   4.971  10.544  0.4534 -0.3411 -0.2788
  120OSM   H11A12647   6.105   4.896  10.464 -0.1538  0.0323 -0.7833
  120OSM   H11B12648   6.105   5.065  10.488 -2.2289 -0.4408 -1.4885
  120OSM      P12649   5.901   4.800  10.621 -0.5286  0.0331  0.0324
  120OSM    O1312650   6.013   4.717  10.668  0.5126 -0.4892 -0.2221
  120OSM    O1412651   5.784   4.807  10.710  0.6532  0.2564  0.1185
  120OSM    O1112652   5.857   4.758  10.473  0.0693 -0.3112 -0.0963
  120OSM    O1212653   5.953   4.946  10.599 -0.5842  0.1328  0.7192
  120OSM    C1S12654   5.788   4.849  10.385 -0.0988  0.5594  0.3124
  120OSM    H1S12655   5.771   4.948  10.433 -2.4317 -0.3166  1.4392
  120OSM    H1T12656   5.681   4.823  10.368 -1.0102  3.0599  1.5899
  120OSM     NF12657   5.785   4.943  10.154 -0.5426 -0.5450 -0.3461
  120OSM    HNF12658   5.735   4.892  10.084  0.9341 -2.1734 -0.2561
  120OSM    C2S12659   5.859   4.860  10.246 -0.5377  0.2018  1.2140
  120OSM    H2S12660   5.956   4.913  10.256 -0.1793  0.9693 -3.7312
  120OSM    C3S12661   5.899   4.718  10.190 -0.2499  0.2231  0.2962
  120OSM    H3S12662   5.811   4.651  10.183 -0.9177  1.1965 -1.2399
  120OSM     O312663   5.999   4.658  10.276  0.2948 -0.2828  0.2960
  120OSM    HO312664   5.981   4.684  10.367 -0.3272  0.6192 -0.0607
  120OSM    C4S12665   5.954   4.733  10.050  0.0705 -0.1884  0.9500
  120OSM    H4S12666   5.874   4.758   9.978 -1.5079 -0.6161  2.4823
  120OSM    C5S12667   6.082   4.716  10.007  0.5335  0.4170  0.5534
  120OSM    H5S12668   6.149   4.669  10.081 -0.5875  0.2096  1.4683
  120OSM    C6S12669   6.133   4.712   9.862 -0.5638 -0.7387 -0.3603
  120OSM    H6S12670   6.183   4.617   9.836  0.5844  0.3821 -2.6175
  120OSM    H6T12671   6.210   4.792   9.857 -2.1624  0.8940  0.1323
  120OSM    C7S12672   6.033   4.722   9.753  0.6195  0.2198 -1.2036
  120OSM    H7S12673   5.980   4.819   9.763 -0.1388 -0.4287  2.2159
  120OSM    H7T12674   5.963   4.636   9.758  1.2131 -0.1707  1.7318
  120OSM    C8S12675   6.103   4.716   9.618 -0.1693  0.1613  0.2270
  120OSM    H8S12676   6.176   4.634   9.633 -0.6436  0.1417  3.0247
  120OSM    H8T12677   6.143   4.818   9.600  1.5808 -0.1634  1.9213
  120OSM    C9S12678   6.007   4.675   9.507  0.0572  0.3115  1.0305
  120OSM    H9S12679   5.906   4.719   9.515  0.0893  0.6630 -0.2514
  120OSM    H9T12680   5.996   4.566   9.527 -0.1051  0.4232  1.5554
  120OSM   C10S12681   6.053   4.689   9.360  0.4473  0.3480 -0.1715
  120OSM   H10S12682   6.162   4.672   9.356  0.5827  1.2188 -0.2317
  120OSM   H10T12683   6.042   4.788   9.312  0.7013 -0.2182 -1.4408
  120OSM   C11S12684   5.976   4.593   9.270 -1.1472  0.6455 -0.0732
  120OSM   H11S12685   5.870   4.628   9.264 -2.0525 -1.4974  1.9319
  120OSM   H11T12686   5.973   4.493   9.318  1.9724  1.3118  1.7582
  120OSM   C12S12687   6.041   4.572   9.133 -0.1723 -0.1446  0.3184
  120OSM   H12S12688   6.004   4.478   9.085 -0.9663  0.4320 -0.2187
  120OSM   H12T12689   6.149   4.555   9.151 -0.3160 -2.2497 -0.4418
  120OSM   C13S12690   6.017   4.693   9.042  0.0946  0.3442  0.2622
  120OSM   H13S12691   6.070   4.786   9.075 -0.5579  1.4661 -1.6914
  120OSM   H13T12692   5.909   4.709   9.060 -0.1633 -1.2889  0.2938
  120OSM   C14S12693   6.046   4.665   8.891  0.3171  0.0585  0.3347
  120OSM   H14S12694   5.973   4.586   8.861  1.0061 -1.0216  1.3804
  120OSM   H14T12695   6.148   4.620   8.883  0.1813  0.0581 -2.2790
  120OSM   C15S12696   6.040   4.783   8.795 -0.3169  0.2046 -0.0765
  120OSM   H15S12697   6.117   4.851   8.837  1.1194 -1.7705  0.6622
  120OSM   H15T12698   5.941   4.833   8.794  0.1823  1.2240 -1.2341
  120OSM   C16S12699   6.090   4.762   8.643 -0.0501 -0.1268 -0.8376
  120OSM   H16S12700   6.195   4.726   8.645  0.6233  1.7323  0.8679
  120OSM   H16T12701   6.083   4.858   8.588  0.0275  0.7488  0.6387
  120OSM   C17S12702   5.991   4.677   8.560  0.3068  0.4275 -0.0626
  120OSM   H17S12703   5.912   4.745   8.522 -0.0365 -0.3192 -0.7124
  120OSM   H17T12704   5.944   4.600   8.626  0.4628 -0.0508 -0.4987
  120OSM   C18S12705   6.060   4.610   8.450 -0.5217  1.0296  0.2731
  120OSM   H18S12706   6.087   4.507   8.479 -0.3512  1.0518  0.1966
  120OSM   H18T12707   6.150   4.668   8.419 -0.2886  1.4356  1.6504
  120OSM   H18U12708   5.999   4.605   8.357 -1.0106 -1.6382  0.6687
  120OSM    C1F12709   5.757   5.065  10.183  0.7981 -0.2417 -0.5119
  120OSM     OF12710   5.830   5.129  10.257  0.0927 -0.0623  0.1406
  120OSM    C2F12711   5.625   5.117  10.132 -1.0172 -0.0386 -0.2005
  120OSM    H2F12712   5.587   5.183  10.213  0.2030  0.8535 -0.3143
  120OSM    H2G12713   5.560   5.030  10.109  1.6616 -2.4822  0.8885
  120OSM    C3F12714   5.659   5.206  10.017  0.8314 -0.1405  0.5701
  120OSM    H3F12715   5.710   5.138   9.945  3.0239  1.2957  0.7128
  120OSM    H3G12716   5.735   5.278  10.051 -0.0556 -0.8672  4.6830
  120OSM    C4F12717   5.539   5.276   9.943  0.1060  0.7597 -0.4662
  120OSM    H4F12718   5.496   5.359  10.003 -1.0290 -0.5084  0.5282
  120OSM    H4G12719   5.464   5.198   9.919 -0.1472  0.7012  0.4686
  120OSM    C5F12720   5.593   5.344   9.821  0.1118 -0.4030 -0.1038
  120OSM    H5F12721   5.673   5.418   9.841 -0.9182  0.6894  0.0664
  120OSM    H5G12722   5.508   5.404   9.781  1.6064  0.7333 -1.7383
  120OSM    C6F12723   5.637   5.260   9.701 -1.1347  0.3861 -0.1259
  120OSM    H6F12724   5.559   5.183   9.678  0.2561 -0.9880 -0.4007
  120OSM    H6G12725   5.729   5.207   9.733 -0.8245  0.6882 -0.5190
  120OSM    C7F12726   5.663   5.326   9.568 -0.3012  0.1926 -0.0080
  120OSM    H7F12727   5.571   5.380   9.539 -0.4674 -0.3049 -0.4250
  120OSM    H7G12728   5.691   5.264   9.480  3.0144  0.3744  0.7732
  120OSM    C8F12729   5.778   5.432   9.569 -0.2559  0.6231  0.1037
  120OSM    H8F12730   5.805   5.466   9.467 -0.6621 -1.4386 -0.7350
  120OSM    H8G12731   5.854   5.365   9.615 -2.5179 -0.7032  2.1526
  120OSM    C9F12732   5.757   5.563   9.642 -0.1600 -0.1350 -0.3588
  120OSM    H9F12733   5.809   5.560   9.739 -0.1269  0.1296 -0.3668
  120OSM   C10F12734   5.697   5.675   9.599 -0.1517  0.0658 -0.1576
  120OSM   H10F12735   5.696   5.757   9.673 -0.6200 -1.7346  1.9253
  120OSM   C11F12736   5.631   5.713   9.479  0.2072  0.0818  1.0918
  120OSM   H11F12737   5.709   5.724   9.400  0.3942  1.6326  1.4625
  120OSM   H11G12738   5.584   5.811   9.501  0.5326  0.5122 -0.0203
  120OSM   C12F12739   5.527   5.622   9.420 -0.4712 -0.1108 -0.1901
  120OSM   H12F12740   5.441   5.604   9.488 -0.1153  2.2895  0.9843
  120OSM   H12G12741   5.581   5.525   9.412  1.2089  0.3508  3.4371
  120OSM   C13F12742   5.476   5.667   9.276 -1.1442 -0.4302  0.3733
  120OSM   H13F12743   5.551   5.683   9.195  0.4399 -0.7958  1.7151
  120OSM   H13G12744   5.418   5.760   9.297 -0.1878 -0.0651  1.5175
  120OSM   C14F12745   5.361   5.578   9.217  0.2024 -0.0778 -0.8263
  120OSM   H14F12746   5.306   5.631   9.136  1.4577 -0.4724 -1.9942
  120OSM   H14G12747   5.291   5.538   9.293  2.2853 -3.2992 -0.4105
  120OSM   C15F12748   5.424   5.452   9.156  0.6080  0.0098 -0.4336
  120OSM   H15F12749   5.344   5.374   9.146 -2.3248  2.5203  1.5970
  120OSM   H15G12750   5.497   5.410   9.228  0.9136 -3.6279 -2.5556
  120OSM   C16F12751   5.483   5.472   9.012 -0.3233 -0.4971  0.0847
  120OSM   H16F12752   5.588   5.505   9.024 -0.2153 -1.2843  1.4470
  120OSM   H16G12753   5.427   5.549   8.955  2.7655  0.4924 -1.8321
  120OSM   C17F12754   5.480   5.342   8.933  0.7262 -0.7581  0.3570
  120OSM   H17F12755   5.377   5.302   8.934  0.5336 -0.4034 -1.2262
  120OSM   H17G12756   5.550   5.262   8.964  0.2690  0.0477  3.7834
  120OSM   C18F12757   5.501   5.369   8.780 -0.1216  0.1468  0.0051
  120OSM   H18F12758   5.514   5.276   8.720  1.5243 -1.8614  3.2270
  120OSM   H18G12759   5.593   5.429   8.765 -0.9724  2.0904  1.9991
  120OSM   H18H12760   5.414   5.418   8.730  0.3236  0.7799 -0.1572
  121OSM      N12761   4.887   1.513  11.042  0.3108 -0.3536 -0.0141
  121OSM    C1512762   4.834   1.379  10.999  0.5160 -0.2858 -0.7314
  121OSM   H15A12763   4.908   1.331  10.937  0.5955 -0.2254 -0.6836
  121OSM   H15B12764   4.745   1.409  10.947 -0.3875  0.6200  1.2129
  121OSM   H15C12765   4.809   1.323  11.088  1.0623  0.0463 -0.3616
  121OSM    C1412766   4.771   1.594  11.090 -0.2962  0.5844 -0.6528
  121OSM   H14A12767   4.795   1.695  11.121 -1.8044  1.1149 -1.1251
  121OSM   H14B12768   4.735   1.539  11.175 -1.6028 -0.0822 -1.6040
  121OSM   H14C12769   4.685   1.607  11.026  0.2035  0.6459 -1.3286
  121OSM    C1312770   4.994   1.495  11.149  0.4505 -0.3835  1.0246
  121OSM   H13A12771   4.953   1.460  11.243 -1.5126 -0.4338  0.1985
  121OSM   H13B12772   5.029   1.595  11.173  1.6388 -0.3659 -0.5925
  121OSM   H13C12773   5.081   1.443  11.113 -2.7102 -4.2008 -1.8952
  121OSM    C1212774   4.944   1.576  10.920 -0.0934 -0.7019  0.1231
  121OSM   H12A12775   4.980   1.676  10.942 -2.2937  0.6169 -1.9081
  121OSM   H12B12776   4.865   1.603  10.852  0.6699  3.4227  0.6125
  121OSM    C1112777   5.066   1.517  10.848 -0.9619  0.3855 -0.1945
  121OSM   H11A12778   5.089   1.556  10.747 -3.1303  0.0043 -0.8848
  121OSM   H11B12779   5.040   1.411  10.828 -1.3418  0.2564  0.8890
  121OSM      P12780   5.277   1.631  10.949 -0.1537  0.0266 -0.0157
  121OSM    O1312781   5.206   1.744  11.010  0.0256 -0.2841 -0.2626
  121OSM    O1412782   5.393   1.568  11.019  0.1036 -0.8425  0.3622
  121OSM    O1112783   5.339   1.671  10.802  0.3586 -0.3792  0.3642
  121OSM    O1212784   5.183   1.511  10.933 -0.2055 -0.4585  0.2887
  121OSM    C1S12785   5.380   1.570  10.719 -0.0203  0.4867  0.1781
  121OSM    H1S12786   5.318   1.478  10.724 -1.3667  1.2279 -1.9006
  121OSM    H1T12787   5.486   1.546  10.743 -0.4580 -0.6206  1.1166
  121OSM     NF12788   5.410   1.505  10.477  0.1656 -0.8031  0.2387
  121OSM    HNF12789   5.507   1.482  10.469  0.0826 -2.9051  3.4660
  121OSM    C2S12790   5.374   1.618  10.566  0.3545  0.0861  0.2695
  121OSM    H2S12791   5.269   1.651  10.554  0.8819  0.8094 -4.3850
  121OSM    C3S12792   5.464   1.745  10.564  0.0016  0.0166 -0.0983
  121OSM    H3S12793   5.560   1.712  10.609 -0.3051  0.3448  0.8304
  121OSM     O312794   5.419   1.856  10.646 -0.4149 -0.1075  0.2686
  121OSM    HO312795   5.372   1.806  10.712 -0.2609 -0.7079 -0.0716
  121OSM    C4S12796   5.487   1.794  10.424  0.4109  0.2663 -0.4161
  121OSM    H4S12797   5.564   1.733  10.376  0.3225 -0.1670 -0.0103
  121OSM    C5S12798   5.411   1.884  10.364  0.0844  0.6276 -0.6292
  121OSM    H5S12799   5.334   1.940  10.419 -1.6355 -1.1376 -1.0998
  121OSM    C6S12800   5.420   1.929  10.223 -0.3580 -0.2565  0.3815
  121OSM    H6S12801   5.482   2.021  10.221 -0.5655 -0.0930 -2.7708
  121OSM    H6T12802   5.320   1.961  10.189 -0.7667 -1.0693  0.7946
  121OSM    C7S12803   5.475   1.827  10.120 -0.3173 -0.1631 -0.0240
  121OSM    H7S12804   5.420   1.731  10.135  1.3185 -1.1823 -0.3302
  121OSM    H7T12805   5.583   1.808  10.140 -0.5671 -0.7445  0.8439
  121OSM    C8S12806   5.460   1.872   9.978  0.6208 -0.0032  0.2863
  121OSM    H8S12807   5.515   1.967   9.959  1.6036 -0.4319  0.9045
  121OSM    H8T12808   5.354   1.906   9.970  0.5267  0.1298  1.6856
  121OSM    C9S12809   5.492   1.753   9.879  0.3919  0.5272  0.6286
  121OSM    H9S12810   5.419   1.671   9.898 -1.5599  1.3779 -2.4313
  121OSM    H9T12811   5.599   1.724   9.887  0.2776 -0.2720 -0.5214
  121OSM   C10S12812   5.474   1.802   9.738  0.2100  0.6348  0.6183
  121OSM   H10S12813   5.513   1.906   9.725 -0.4434  0.7116 -0.9232
  121OSM   H10T12814   5.369   1.819   9.706  0.7011  0.4778 -1.1652
  121OSM   C11S12815   5.544   1.720   9.625  0.0911  0.1178 -0.0257
  121OSM   H11S12816   5.505   1.616   9.624  2.8680 -0.9833 -0.0263
  121OSM   H11T12817   5.652   1.718   9.648  0.0199 -0.2519  0.2893
  121OSM   C12S12818   5.546   1.787   9.480 -0.1281 -0.3819 -0.7071
  121OSM   H12S12819   5.641   1.747   9.441  0.6970 -0.0309  0.8379
  121OSM   H12T12820   5.555   1.896   9.499 -1.4106 -0.4482  0.5225
  121OSM   C13S12821   5.435   1.760   9.387  0.1039 -0.4903 -0.6495
  121OSM   H13S12822   5.333   1.788   9.423  0.6760  2.5879 -1.1106
  121OSM   H13T12823   5.430   1.653   9.361  0.1844 -0.5106 -0.5800
  121OSM   C14S12824   5.449   1.832   9.255  0.0779 -0.3904  0.3617
  121OSM   H14S12825   5.546   1.802   9.210 -0.4942 -1.0526 -0.4561
  121OSM   H14T12826   5.451   1.943   9.262 -3.9096  0.0246 -2.1429
  121OSM   C15S12827   5.341   1.800   9.147  0.7816  0.8325 -0.3684
  121OSM   H15S12828   5.239   1.831   9.179 -0.7398 -2.1365 -1.9564
  121OSM   H15T12829   5.331   1.690   9.136  1.1461  0.7067  0.4671
  121OSM   C16S12830   5.375   1.863   9.012  0.2538 -0.0684  0.0595
  121OSM   H16S12831   5.478   1.835   8.980  0.4425 -0.3986  0.9299
  121OSM   H16T12832   5.375   1.971   9.035 -0.7945 -0.1486  0.4716
  121OSM   C17S12833   5.276   1.840   8.898  0.9487  0.3296  0.0893
  121OSM   H17S12834   5.174   1.859   8.938  0.6794 -1.6468  0.4396
  121OSM   H17T12835   5.294   1.734   8.870  0.7237  0.3539 -0.1475
  121OSM   C18S12836   5.311   1.932   8.778 -0.0964  1.0051 -0.7706
  121OSM   H18S12837   5.416   1.910   8.747  0.6385  2.0248  0.8394
  121OSM   H18T12838   5.298   2.037   8.810 -0.4891  0.8544 -0.4238
  121OSM   H18U12839   5.247   1.911   8.690  0.6544 -0.3183 -1.0300
  121OSM    C1F12840   5.320   1.409  10.446  0.2066  0.7074 -0.9144
  121OSM     OF12841   5.205   1.420  10.476  0.3611 -1.0399 -0.3229
  121OSM    C2F12842   5.385   1.291  10.380  0.0026  0.4496 -0.6380
  121OSM    H2F12843   5.381   1.212  10.458 -0.2282  0.0820 -1.0249
  121OSM    H2G12844   5.490   1.320  10.355  0.1386  1.0612  0.5395
  121OSM    C3F12845   5.323   1.238  10.251 -0.1017 -0.7800  0.3934
  121OSM    H3F12846   5.212   1.233  10.260 -0.0887  1.0670  2.1492
  121OSM    H3G12847   5.364   1.135  10.237  0.1520 -1.0209  2.6519
  121OSM    C4F12848   5.350   1.321  10.129  0.1624 -0.2373 -0.3444
  121OSM    H4F12849   5.461   1.314  10.130  0.1099 -1.3018 -0.4059
  121OSM    H4G12850   5.313   1.425  10.136 -1.2499 -0.6690 -1.0030
  121OSM    C5F12851   5.299   1.267   9.998  0.4108  0.4781  0.6350
  121OSM    H5F12852   5.189   1.282   9.991  0.2385 -1.4408 -2.2394
  121OSM    H5G12853   5.311   1.158   9.980  1.8590  0.8081 -0.5832
  121OSM    C6F12854   5.351   1.345   9.867 -0.2720  0.0191  0.0017
  121OSM    H6F12855   5.460   1.326   9.859 -0.1409 -0.9905  2.8515
  121OSM    H6G12856   5.333   1.451   9.893  0.1152  0.5618 -1.8125
  121OSM    C7F12857   5.276   1.306   9.751  0.3690  0.2611  1.4835
  121OSM    H7F12858   5.172   1.342   9.764 -0.1426 -0.5243 -0.2145
  121OSM    H7G12859   5.275   1.197   9.729  0.4750  0.4403  0.5262
  121OSM    C8F12860   5.322   1.377   9.617  0.1529 -0.7341  0.4108
  121OSM    H8F12861   5.313   1.487   9.633 -2.6472 -0.8997  0.4383
  121OSM    H8G12862   5.231   1.361   9.557  0.6864 -0.3388 -0.5280
  121OSM    C9F12863   5.452   1.336   9.555 -0.2691 -0.6316 -0.5740
  121OSM    H9F12864   5.532   1.320   9.629 -2.0690 -1.2939  1.3342
  121OSM   C10F12865   5.480   1.299   9.431  0.4492  0.3446 -0.1953
  121OSM   H10F12866   5.577   1.252   9.415 -0.7498 -2.3742  0.0657
  121OSM   C11F12867   5.370   1.307   9.320 -0.3214  0.7216  0.4630
  121OSM   H11F12868   5.382   1.405   9.268  2.7000  0.0538 -0.2979
  121OSM   H11G12869   5.268   1.331   9.355 -1.8254 -0.9883 -2.3972
  121OSM   C12F12870   5.377   1.185   9.224 -0.1148 -0.3700 -0.0601
  121OSM   H12F12871   5.296   1.192   9.148  3.6063  1.0699 -4.2853
  121OSM   H12G12872   5.347   1.095   9.283  0.5982 -0.1853  0.5997
  121OSM   C13F12873   5.509   1.165   9.147  0.2321 -0.8558 -0.0392
  121OSM   H13F12874   5.594   1.130   9.210  2.0929  0.2195 -1.8160
  121OSM   H13G12875   5.536   1.256   9.088 -3.2587 -0.1048 -0.6661
  121OSM   C14F12876   5.503   1.059   9.032 -0.1373 -0.6956  0.3963
  121OSM   H14F12877   5.597   1.076   8.974 -0.3066 -0.0130  0.3079
  121OSM   H14G12878   5.417   1.086   8.968 -0.5556 -0.5199  1.0247
  121OSM   C15F12879   5.481   0.911   9.071 -0.2532  0.4772  0.3376
  121OSM   H15F12880   5.390   0.910   9.135  1.6849 -0.8466  3.2808
  121OSM   H15G12881   5.564   0.880   9.138  0.3036 -1.9001 -1.3244
  121OSM   C16F12882   5.457   0.822   8.946  0.6835  0.1979  0.6076
  121OSM   H16F12883   5.350   0.829   8.916  0.8432  0.0887 -0.0062
  121OSM   H16G12884   5.457   0.720   8.989  1.3854  0.2557  0.7540
  121OSM   C17F12885   5.549   0.840   8.826 -1.0726  0.2485  0.4248
  121OSM   H17F12886   5.657   0.824   8.849 -0.9743  0.5131  0.1527
  121OSM   H17G12887   5.538   0.946   8.794  0.4609  0.1374 -0.6016
  121OSM   C18F12888   5.530   0.742   8.708 -0.0173 -0.2759  0.4334
  121OSM   H18F12889   5.483   0.647   8.739 -1.7773  0.0566 -1.0435
  121OSM   H18G12890   5.627   0.742   8.654  0.1728  3.7071  0.4871
  121OSM   H18H12891   5.459   0.776   8.630  1.0284 -0.9061 -0.8176
  122OSM      N12892   5.795   6.551  11.091 -0.5553  0.5538  0.2287
  122OSM    C1512893   5.685   6.450  11.102  0.3167  0.4781 -0.5626
  122OSM   H15A12894   5.694   6.408  11.201  2.8780  1.1766 -0.4188
  122OSM   H15B12895   5.700   6.368  11.034  0.4228 -0.1903  0.2501
  122OSM   H15C12896   5.587   6.494  11.098  0.5837  1.1206 -0.1702
  122OSM    C1412897   5.794   6.651  11.200  0.0861  0.5332 -0.2640
  122OSM   H14A12898   5.852   6.736  11.168 -0.8035  0.4938 -2.1263
  122OSM   H14B12899   5.829   6.605  11.291 -0.0951 -2.6491 -1.6691
  122OSM   H14C12900   5.693   6.683  11.219  0.4892  1.8672 -0.2528
  122OSM    C1312901   5.926   6.484  11.093 -0.8205  0.6130  0.0325
  122OSM   H13A12902   5.942   6.413  11.013  1.5756  1.7822 -0.6211
  122OSM   H13B12903   5.963   6.440  11.185  1.3812  0.6464 -0.7697
  122OSM   H13C12904   5.997   6.565  11.080  1.2580 -1.1950 -0.5808
  122OSM    C1212905   5.772   6.621  10.960 -0.2361  0.6482  0.3166
  122OSM   H12A12906   5.679   6.675  10.968 -1.4890 -1.3877  0.1680
  122OSM   H12B12907   5.748   6.549  10.883  1.4307  0.0103  0.3450
  122OSM    C1112908   5.896   6.704  10.897 -0.0366  0.1076 -0.9357
  122OSM   H11A12909   5.858   6.731  10.796 -1.7069  1.1700 -0.0777
  122OSM   H11B12910   5.987   6.641  10.890  1.8923  2.6598 -0.3834
  122OSM      P12911   5.894   6.969  10.946 -0.1499 -0.0351  0.0810
  122OSM    O1312912   5.780   6.965  10.849 -0.4200  0.0113  0.6355
  122OSM    O1412913   5.876   7.058  11.061  0.2879  0.2661  0.0836
  122OSM    O1112914   6.016   7.026  10.878  0.3020 -0.8529  0.2407
  122OSM    O1212915   5.935   6.820  10.982 -0.4610  0.0294 -0.4669
  122OSM    C1S12916   6.077   6.967  10.762 -0.3841  0.3797 -0.5905
  122OSM    H1S12917   6.029   6.870  10.734  1.7046 -0.1032 -2.8125
  122OSM    H1T12918   6.181   6.935  10.780 -0.1978 -0.0402 -2.2605
  122OSM     NF12919   6.112   6.972  10.517  0.0388  0.8451  0.5580
  122OSM    HNF12920   6.203   6.995  10.485  0.8763  0.4173  2.5274
  122OSM    C2S12921   6.072   7.049  10.635  0.5575  0.0072  1.0857
  122OSM    H2S12922   5.967   7.079  10.612  0.9044 -0.8978 -2.2474
  122OSM    C3S12923   6.152   7.183  10.653  0.0038 -0.5266 -0.2129
  122OSM    H3S12924   6.260   7.171  10.676 -0.3351 -0.3362  1.6102
  122OSM     O312925   6.094   7.269  10.748  0.1194  0.0960  0.8106
  122OSM    HO312926   6.020   7.217  10.782  0.3212 -0.7161  0.0497
  122OSM    C4S12927   6.162   7.261  10.528  0.6258 -0.5485 -1.1409
  122OSM    H4S12928   6.073   7.317  10.495  0.4716  0.4390  0.7802
  122OSM    C5S12929   6.269   7.267  10.450  0.9884 -0.4017  0.2489
  122OSM    H5S12930   6.358   7.207  10.477  0.6557 -1.3615 -0.7007
  122OSM    C6S12931   6.280   7.345  10.325 -0.6021  0.2208 -0.5412
  122OSM    H6S12932   6.375   7.397  10.301 -0.3909 -0.0171 -0.2255
  122OSM    H6T12933   6.195   7.416  10.327 -0.8554 -0.0927  0.2018
  122OSM    C7S12934   6.235   7.246  10.211 -0.3566 -0.2611 -0.3770
  122OSM    H7S12935   6.134   7.208  10.237 -0.4545 -0.7678 -1.4450
  122OSM    H7T12936   6.301   7.159  10.191  0.2669 -0.4449  2.1735
  122OSM    C8S12937   6.212   7.319  10.080  0.5022  0.1338  0.6345
  122OSM    H8S12938   6.308   7.366  10.050  1.3770 -1.0344  1.5021
  122OSM    H8T12939   6.136   7.399  10.092  0.4008  0.3174 -1.0002
  122OSM    C9S12940   6.160   7.245   9.953  0.5487 -0.5378 -0.4550
  122OSM    H9S12941   6.076   7.294   9.899 -0.2862 -0.7200  0.6349
  122OSM    H9T12942   6.119   7.144   9.977 -0.3350  0.1401  1.0999
  122OSM   C10S12943   6.269   7.198   9.848 -0.3747 -0.6924 -0.2652
  122OSM   H10S12944   6.345   7.133   9.896  0.5506 -0.7648 -1.7666
  122OSM   H10T12945   6.316   7.292   9.811 -1.6979 -0.1485 -0.6153
  122OSM   C11S12946   6.203   7.120   9.734 -0.1023  0.4562  0.5467
  122OSM   H11S12947   6.096   7.149   9.733  0.1841  1.5237 -0.4627
  122OSM   H11T12948   6.206   7.014   9.768  0.4301  0.2801 -0.0389
  122OSM   C12S12949   6.244   7.160   9.590 -0.0283  0.4700 -0.2025
  122OSM   H12S12950   6.349   7.197   9.585  0.2567 -0.3394 -0.4144
  122OSM   H12T12951   6.179   7.247   9.568  0.2612  0.7663  0.0957
  122OSM   C13S12952   6.231   7.041   9.501 -0.2071 -0.4379  1.0756
  122OSM   H13S12953   6.134   7.002   9.462  1.9657 -1.1288 -4.5415
  122OSM   H13T12954   6.284   6.961   9.555  1.1856  1.7972  3.2391
  122OSM   C14S12955   6.308   7.061   9.366 -0.8179 -0.2184 -0.2313
  122OSM   H14S12956   6.418   7.066   9.381 -0.7148 -3.1133  0.6802
  122OSM   H14T12957   6.273   7.163   9.340 -2.2888 -0.5017  0.5552
  122OSM   C15S12958   6.279   6.971   9.247  0.1660 -0.7211 -0.0793
  122OSM   H15S12959   6.173   6.985   9.217  0.0159 -2.5963 -0.6052
  122OSM   H15T12960   6.281   6.863   9.274 -2.0202 -0.8483 -0.3071
  122OSM   C16S12961   6.366   7.006   9.123 -1.0629 -0.2437 -0.6894
  122OSM   H16S12962   6.336   6.933   9.045  3.3046 -0.9073 -2.0308
  122OSM   H16T12963   6.474   6.980   9.132 -1.1279 -0.2310  0.1873
  122OSM   C17S12964   6.352   7.154   9.077 -0.0857  0.8150 -0.0085
  122OSM   H17S12965   6.357   7.220   9.167  1.4152  1.9304 -0.8536
  122OSM   H17T12966   6.249   7.174   9.041 -0.8717  0.0637  1.6924
  122OSM   C18S12967   6.452   7.196   8.971 -0.5937 -0.2403  0.1696
  122OSM   H18S12968   6.428   7.298   8.934  2.0053  0.7344  0.9288
  122OSM   H18T12969   6.440   7.124   8.887 -0.5438  1.9597 -1.8197
  122OSM   H18U12970   6.557   7.182   9.004  0.6671 -1.7052 -3.7728
  122OSM    C1F12971   6.035   6.881  10.460 -0.4609  0.3803  0.2410
  122OSM     OF12972   5.933   6.847  10.513 -0.7533 -0.2344 -0.5371
  122OSM    C2F12973   6.081   6.812  10.339  0.1595 -0.3130  0.7502
  122OSM    H2F12974   6.130   6.714  10.356  1.7017 -0.1744 -2.3063
  122OSM    H2G12975   6.158   6.872  10.287 -0.0847 -1.1069 -0.5512
  122OSM    C3F12976   5.973   6.795  10.232 -0.3442 -0.0201 -0.3016
  122OSM    H3F12977   5.960   6.881  10.163 -1.8401 -1.8067 -2.3977
  122OSM    H3G12978   5.874   6.781  10.281  0.4795 -1.5642  1.0169
  122OSM    C4F12979   5.997   6.671  10.138 -0.5358 -0.1445  0.1757
  122OSM    H4F12980   5.900   6.633  10.099 -1.0160  2.1276 -0.9938
  122OSM    H4G12981   6.039   6.586  10.195 -2.0435 -1.3096 -0.3711
  122OSM    C5F12982   6.090   6.716  10.019  0.4450  0.4798  0.0050
  122OSM    H5F12983   6.194   6.725  10.057  1.0741 -4.1305 -0.1214
  122OSM    H5G12984   6.065   6.819   9.985  0.4105  0.2740 -0.5878
  122OSM    C6F12985   6.096   6.622   9.897  0.2084 -0.1987  0.3195
  122OSM    H6F12986   6.012   6.549   9.897  0.3692 -0.4189  1.9100
  122OSM    H6G12987   6.191   6.565   9.902 -0.1414 -0.8354 -0.1282
  122OSM    C7F12988   6.099   6.700   9.764 -0.2366  0.4831 -0.1538
  122OSM    H7F12989   6.197   6.751   9.753 -0.2517  0.3348 -1.0850
  122OSM    H7G12990   6.019   6.777   9.769 -0.1555  0.5854 -0.4193
  122OSM    C8F12991   6.076   6.618   9.635 -1.4751 -0.3073  0.1665
  122OSM    H8F12992   6.143   6.529   9.631 -0.0639  0.7362 -2.9462
  122OSM    H8G12993   6.106   6.687   9.554  1.9713 -0.5700  1.0567
  122OSM    C9F12994   5.928   6.583   9.626 -0.7578  0.3120  0.5564
  122OSM    H9F12995   5.856   6.667   9.620 -2.1021 -0.9226 -2.2986
  122OSM   C10F12996   5.884   6.456   9.652 -0.6728 -0.5783 -0.3873
  122OSM   H10F12997   5.779   6.430   9.669  0.3861 -3.3315  2.9612
  122OSM   C11F12998   5.969   6.334   9.672 -0.6223 -0.2899 -0.3754
  122OSM   H11F12999   5.914   6.273   9.748 -0.9904  0.1264 -0.3024
  122OSM   H11G13000   6.073   6.349   9.707  0.6252 -1.8550 -3.1430
  122OSM   C12F13001   5.984   6.258   9.546  0.5621  0.0189 -0.2461
  122OSM   H12F13002   5.878   6.236   9.520  0.5991 -0.8843  0.3346
  122OSM   H12G13003   6.031   6.157   9.555 -0.7709 -0.5953  0.0062
  122OSM   C13F13004   6.045   6.323   9.420 -0.1720 -0.0974 -0.5363
  122OSM   H13F13005   6.153   6.339   9.436 -0.5610  3.4782 -0.7724
  122OSM   H13G13006   5.994   6.419   9.398  0.3056  0.1104 -0.7492
  122OSM   C14F13007   6.024   6.226   9.294 -0.1392 -0.5717 -0.5785
  122OSM   H14F13008   5.916   6.197   9.288 -0.3263  0.2817 -1.5744
  122OSM   H14G13009   6.091   6.138   9.290  1.5744  0.7056 -1.3610
  122OSM   C15F13010   6.062   6.311   9.167 -0.2423 -0.1574 -1.3230
  122OSM   H15F13011   6.171   6.298   9.148 -0.0964  0.9886 -1.3716
  122OSM   H15G13012   6.062   6.420   9.188  2.5069 -0.6358  2.1416
  122OSM   C16F13013   5.971   6.280   9.051 -0.1176  0.0921  0.0294
  122OSM   H16F13014   5.871   6.322   9.076 -0.3974 -1.9548  2.9036
  122OSM   H16G13015   5.958   6.170   9.049  1.6763 -0.1468  0.4654
  122OSM   C17F13016   6.011   6.328   8.915  0.0818  0.6458 -0.2300
  122OSM   H17F13017   6.119   6.304   8.899  0.3590  1.4949  0.2927
  122OSM   H17G13018   6.010   6.439   8.917 -2.2356  0.8476 -3.5689
  122OSM   C18F13019   5.924   6.286   8.801  0.1578  0.2291  0.6064
  122OSM   H18F13020   5.952   6.337   8.707  1.6562  0.6930  1.2556
  122OSM   H18G13021   5.817   6.305   8.820 -0.5936 -1.3533 -1.6725
  122OSM   H18H13022   5.938   6.177   8.782  1.4788  0.5184 -0.2554
  123OSM      N13023   1.558   4.913   5.647  0.5683  0.5427  0.8348
  123OSM    C1513024   1.429   4.846   5.603  0.0591 -0.5259  0.5717
  123OSM   H15A13025   1.354   4.924   5.603  0.7165  0.1264  0.8258
  123OSM   H15B13026   1.397   4.773   5.675  1.3795 -1.9756 -0.2591
  123OSM   H15C13027   1.443   4.794   5.509 -1.0540 -0.4033  0.3256
  123OSM    C1413028   1.667   4.819   5.610 -0.5248 -0.1739 -0.3239
  123OSM   H14A13029   1.635   4.718   5.632  0.1566 -0.0401  1.4309
  123OSM   H14B13030   1.754   4.856   5.661  0.2500 -0.7284 -1.2056
  123OSM   H14C13031   1.703   4.830   5.509 -1.8514 -1.1061 -0.9252
  123OSM    C1313032   1.590   5.040   5.575 -0.1133 -0.4438  0.0684
  123OSM   H13A13033   1.495   5.087   5.554  0.0075 -0.2593 -0.0597
  123OSM   H13B13034   1.627   5.014   5.477  1.0238 -0.0105  0.3677
  123OSM   H13C13035   1.659   5.098   5.634  0.0548 -0.3269 -0.2404
  123OSM    C1213036   1.551   4.921   5.798 -0.3271  0.2829 -0.7234
  123OSM   H12A13037   1.544   4.826   5.848 -0.0839  0.6156 -0.0431
  123OSM   H12B13038   1.465   4.979   5.828  0.2363  2.2229 -2.5834
  123OSM    C1113039   1.662   5.006   5.872  0.0538  0.0635  0.0021
  123OSM   H11A13040   1.761   4.964   5.843 -0.2899 -2.0175  1.6353
  123OSM   H11B13041   1.659   4.978   5.979  1.9407 -1.4228 -0.2757
  123OSM      P13042   1.528   5.226   5.904  0.2761 -0.5275  0.1737
  123OSM    O1313043   1.489   5.324   5.800  0.6278 -0.7949  0.3442
  123OSM    O1413044   1.417   5.136   5.952  0.3176 -0.3702 -0.1237
  123OSM    O1113045   1.586   5.304   6.028 -0.1030 -0.1027  0.5585
  123OSM    O1213046   1.653   5.148   5.850  0.3362  0.0492  0.2456
  123OSM    C1S13047   1.507   5.373   6.123  0.1574  0.5549 -0.1714
  123OSM    H1S13048   1.398   5.352   6.109 -0.3637  2.2707  0.9994
  123OSM    H1T13049   1.540   5.479   6.129  0.9076  0.3511 -0.6563
  123OSM     NF13050   1.427   5.371   6.359  0.2041  0.0445  0.2330
  123OSM    HNF13051   1.464   5.439   6.423  0.8167  0.5935 -0.6871
  123OSM    C2S13052   1.522   5.314   6.267 -0.0415 -0.3225 -0.0917
  123OSM    H2S13053   1.496   5.206   6.273  1.7221 -0.7036  3.9753
  123OSM    C3S13054   1.672   5.330   6.316  0.3388  0.7166 -0.1824
  123OSM    H3S13055   1.695   5.435   6.290 -3.3998  1.6821 -0.1500
  123OSM     O313056   1.767   5.245   6.245 -0.0599  0.2373  0.0740
  123OSM    HO313057   1.709   5.193   6.189 -0.3117 -0.9297  1.3602
  123OSM    C4S13058   1.681   5.300   6.466 -0.0748 -0.2906  0.0177
  123OSM    H4S13059   1.707   5.388   6.526 -0.2253  0.6726 -1.2940
  123OSM    C5S13060   1.646   5.186   6.529 -0.0232  0.3343 -0.2821
  123OSM    H5S13061   1.618   5.099   6.467  1.0790  1.1160 -1.9593
  123OSM    C6S13062   1.654   5.172   6.682 -0.4598 -0.2513  0.2096
  123OSM    H6S13063   1.558   5.143   6.729 -1.3730  1.9496 -0.2045
  123OSM    H6T13064   1.671   5.273   6.725 -2.3719  1.2996 -2.4003
  123OSM    C7S13065   1.781   5.087   6.725  0.0242 -0.9676  0.3410
  123OSM    H7S13066   1.871   5.145   6.696  1.6134 -2.3746  2.1646
  123OSM    H7T13067   1.787   4.992   6.667 -0.9951 -2.3799  2.3942
  123OSM    C8S13068   1.796   5.062   6.874  0.6250 -0.1673 -0.9318
  123OSM    H8S13069   1.902   5.035   6.892  0.0983 -2.1026 -0.5460
  123OSM    H8T13070   1.730   4.974   6.888  1.1122 -0.2421  1.1151
  123OSM    C9S13071   1.765   5.171   6.975  0.3754  0.2405 -0.2097
  123OSM    H9S13072   1.655   5.185   6.972  0.3553 -0.1379 -1.6875
  123OSM    H9T13073   1.817   5.267   6.954 -0.2708  0.2117 -2.1380
  123OSM   C10S13074   1.798   5.127   7.123  0.3380  0.0254  0.1656
  123OSM   H10S13075   1.905   5.098   7.126  0.5048 -0.1569 -3.4965
  123OSM   H10T13076   1.729   5.046   7.155 -2.5705  1.6617 -1.5530
  123OSM   C11S13077   1.769   5.232   7.233  0.2866  0.5817  0.4403
  123OSM   H11S13078   1.834   5.321   7.220  0.6498  0.2106 -0.3588
  123OSM   H11T13079   1.806   5.171   7.318 -0.3376 -0.3323  0.0624
  123OSM   C12S13080   1.630   5.276   7.244 -0.4220  0.0630 -0.3357
  123OSM   H12S13081   1.561   5.190   7.243  2.9030 -2.8539 -0.5460
  123OSM   H12T13082   1.598   5.327   7.151 -0.3578  0.3304 -0.2136
  123OSM   C13S13083   1.608   5.365   7.372 -0.0628 -0.3161 -0.0882
  123OSM   H13S13084   1.498   5.373   7.383 -0.1716 -1.0553 -0.5520
  123OSM   H13T13085   1.656   5.465   7.358  1.9525 -1.2581 -0.2211
  123OSM   C14S13086   1.659   5.303   7.509 -0.3040  0.5315  0.6405
  123OSM   H14S13087   1.769   5.295   7.518 -0.2010  0.6242 -0.4848
  123OSM   H14T13088   1.613   5.203   7.526  0.6537  0.0410  0.4258
  123OSM   C15S13089   1.627   5.397   7.631  0.3096 -0.1247  0.5307
  123OSM   H15S13090   1.521   5.424   7.653 -0.3374 -2.1541  0.1009
  123OSM   H15T13091   1.691   5.486   7.613  2.0854 -1.5033 -0.2119
  123OSM   C16S13092   1.672   5.331   7.761 -0.3219  0.9228  0.2822
  123OSM   H16S13093   1.770   5.280   7.751 -2.2364 -3.4792  1.2986
  123OSM   H16T13094   1.609   5.244   7.790 -1.0412  1.7657  1.3416
  123OSM   C17S13095   1.666   5.426   7.882  0.0732 -0.2751  0.0851
  123OSM   H17S13096   1.570   5.481   7.884 -0.6193 -1.4382 -0.4948
  123OSM   H17T13097   1.742   5.504   7.861  1.0171 -1.1945  0.0024
  123OSM   C18S13098   1.698   5.360   8.007  0.4300  0.7263  0.2558
  123OSM   H18S13099   1.805   5.333   7.995  0.6555  1.9527 -0.7189
  123OSM   H18T13100   1.631   5.274   8.025  1.5449  0.0805  1.5061
  123OSM   H18U13101   1.685   5.420   8.100 -0.3510 -0.4884  0.9549
  123OSM    C1F13102   1.300   5.335   6.369 -0.3281 -0.2872  0.1895
  123OSM     OF13103   1.248   5.273   6.283  0.4595 -0.1129  0.2823
  123OSM    C2F13104   1.238   5.396   6.493 -0.3471  0.1987 -0.0713
  123OSM    H2F13105   1.180   5.485   6.461  0.1066  0.8706  0.9338
  123OSM    H2G13106   1.319   5.432   6.559  1.6868 -0.1929 -2.2314
  123OSM    C3F13107   1.159   5.284   6.562  0.1052  0.4987 -0.2169
  123OSM    H3F13108   1.235   5.203   6.574  1.6571  1.8415 -0.7241
  123OSM    H3G13109   1.077   5.240   6.502 -0.6457  0.1452  1.0377
  123OSM    C4F13110   1.113   5.323   6.706  0.0695 -0.3696  0.0625
  123OSM    H4F13111   1.039   5.405   6.696 -1.2331 -1.1952  2.1269
  123OSM    H4G13112   1.199   5.365   6.763  0.0469  0.0994 -0.2426
  123OSM    C5F13113   1.052   5.198   6.779  0.4760  0.2020  0.2308
  123OSM    H5F13114   1.126   5.115   6.780  0.0903 -0.1439  1.5083
  123OSM    H5G13115   0.963   5.159   6.726  0.4934  1.5902 -0.8990
  123OSM    C6F13116   1.013   5.231   6.919 -0.3290 -0.6509 -0.1773
  123OSM    H6F13117   0.957   5.144   6.959 -1.5737  0.3174  0.2671
  123OSM    H6G13118   0.957   5.327   6.924 -2.0955 -1.6486 -0.0118
  123OSM    C7F13119   1.129   5.256   7.021 -0.2438  0.0259 -0.2787
  123OSM    H7F13120   1.147   5.365   7.029 -2.1428  0.2961  1.0826
  123OSM    H7G13121   1.206   5.207   6.959  0.6669 -0.8413  1.4706
  123OSM    C8F13122   1.106   5.181   7.158  0.3112 -0.4844 -0.2360
  123OSM    H8F13123   1.203   5.157   7.206 -0.1700 -0.7269  0.6361
  123OSM    H8G13124   1.058   5.085   7.130  0.9482 -0.4308 -1.6434
  123OSM    C9F13125   1.010   5.263   7.239 -0.1906  0.1578  0.0410
  123OSM    H9F13126   0.913   5.268   7.187 -0.1234 -0.6525 -0.1778
  123OSM   C10F13127   1.034   5.309   7.363  0.7525 -0.3011 -0.0616
  123OSM   H10F13128   0.955   5.376   7.401  1.7760  1.0174 -0.1615
  123OSM   C11F13129   1.161   5.290   7.448 -0.0522  0.8944 -0.4764
  123OSM   H11F13130   1.245   5.250   7.388 -1.7888 -0.1374 -2.3458
  123OSM   H11G13131   1.151   5.217   7.531  0.8498  1.8922  0.5504
  123OSM   C12F13132   1.206   5.429   7.496 -0.8967 -0.8440  0.7820
  123OSM   H12F13133   1.230   5.495   7.410  0.9533  2.7313  3.7805
  123OSM   H12G13134   1.296   5.411   7.558 -0.7829 -2.5150  0.1931
  123OSM   C13F13135   1.097   5.499   7.588 -0.8164 -0.5522 -0.5622
  123OSM   H13F13136   1.057   5.418   7.653 -0.4798 -1.3029 -1.2699
  123OSM   H13G13137   1.007   5.523   7.527 -1.4406 -1.3792  0.0027
  123OSM   C14F13138   1.138   5.622   7.667  0.0786 -0.4920 -0.5066
  123OSM   H14F13139   1.167   5.707   7.602  0.4427 -2.0126 -2.4546
  123OSM   H14G13140   1.226   5.590   7.727 -0.4986 -3.9840 -1.3085
  123OSM   C15F13141   1.021   5.676   7.750  0.0556  0.3008  0.4696
  123OSM   H15F13142   0.979   5.594   7.812  1.3312 -0.1398  0.7878
  123OSM   H15G13143   0.944   5.702   7.675  2.7332  0.4278 -2.4638
  123OSM   C16F13144   1.057   5.809   7.817  0.0305 -0.7104  0.1844
  123OSM   H16F13145   1.110   5.867   7.738  1.1868 -0.3982  1.1556
  123OSM   H16G13146   1.135   5.789   7.894  1.3777  0.2528 -0.8915
  123OSM   C17F13147   0.935   5.887   7.875 -0.2568  0.1102  0.0087
  123OSM   H17F13148   0.859   5.909   7.796  0.5698  0.6279 -0.6650
  123OSM   H17G13149   0.984   5.979   7.914 -0.7704  1.0367 -1.4304
  123OSM   C18F13150   0.874   5.807   7.991  0.2528 -0.1206 -0.2600
  123OSM   H18F13151   0.910   5.830   8.094 -1.3628 -1.4066  0.6543
  123OSM   H18G13152   0.911   5.704   7.971  2.4459  0.8813 -1.8009
  123OSM   H18H13153   0.763   5.804   7.990  0.2153  0.7034  0.4300
  124OSM      N13154   4.984   2.669   6.086  0.5190  1.0187  0.4402
  124OSM    C1513155   4.955   2.622   5.952  0.9186 -1.1440  0.0472
  124OSM   H15A13156   4.853   2.649   5.930  1.4770  1.0327 -0.0593
  124OSM   H15B13157   4.969   2.515   5.943 -1.3680 -1.5351  0.6272
  124OSM   H15C13158   5.015   2.675   5.880  1.0231 -2.6156 -0.9970
  124OSM    C1413159   4.889   2.608   6.188  0.0653  0.2728  0.4466
  124OSM   H14A13160   4.793   2.656   6.182 -1.3316 -2.5103 -1.5168
  124OSM   H14B13161   4.936   2.635   6.282  4.1392 -2.3141 -0.5502
  124OSM   H14C13162   4.870   2.503   6.201 -1.9483  0.8534  3.2621
  124OSM    C1313163   5.121   2.619   6.136 -1.5395 -0.3196 -0.6549
  124OSM   H13A13164   5.125   2.514   6.161 -2.0751 -0.3693 -0.7780
  124OSM   H13B13165   5.147   2.677   6.224 -3.9350  1.2137 -0.8767
  124OSM   H13C13166   5.202   2.649   6.071 -0.5375  1.1453  1.1692
  124OSM    C1213167   4.979   2.822   6.097 -0.5096  0.1817 -0.4977
  124OSM   H12A13168   5.071   2.856   6.052  1.3941  0.2382  3.0924
  124OSM   H12B13169   4.989   2.857   6.199 -0.0334 -2.7250  0.5320
  124OSM    C1113170   4.857   2.891   6.043 -0.1134  0.0626  0.5545
  124OSM   H11A13171   4.845   2.858   5.938 -1.9213 -0.7879  0.9825
  124OSM   H11B13172   4.880   2.999   6.034 -1.0008  0.1498 -0.9909
  124OSM      P13173   4.697   2.955   6.224 -0.6659 -0.1836  0.6203
  124OSM    O1313174   4.617   3.068   6.168  0.4967  0.0579 -0.0764
  124OSM    O1413175   4.640   2.883   6.334 -0.1296  0.1707  0.2542
  124OSM    O1113176   4.835   3.006   6.269 -0.1122 -0.0491  0.6786
  124OSM    O1213177   4.736   2.858   6.102  0.7930  0.8883  0.1069
  124OSM    C1S13178   4.860   3.107   6.363 -0.1246  0.2158 -0.2405
  124OSM    H1S13179   4.775   3.177   6.376  0.5260  1.1359 -0.8363
  124OSM    H1T13180   4.949   3.166   6.330 -0.6788  0.4133 -1.4138
  124OSM     NF13181   4.898   3.166   6.605 -0.0281 -0.2028  0.2741
  124OSM    HNF13182   4.993   3.186   6.631 -0.2512 -0.0730  1.0089
  124OSM    C2S13183   4.885   3.053   6.511 -0.2589  0.2984 -0.0097
  124OSM    H2S13184   4.784   3.010   6.529 -0.8735  2.2822  1.5898
  124OSM    C3S13185   4.993   2.933   6.513  0.1673 -0.4717 -0.6385
  124OSM    H3S13186   5.095   2.972   6.494  0.6055 -2.1618 -2.0269
  124OSM     O313187   4.975   2.833   6.417  0.1571 -0.7025  0.1312
  124OSM    HO313188   4.915   2.882   6.360 -1.0019 -2.2588 -0.0468
  124OSM    C4S13189   4.986   2.871   6.651 -0.5936  0.0697 -0.6111
  124OSM    H4S13190   5.075   2.897   6.711 -1.7975  0.4298  1.0784
  124OSM    C5S13191   4.890   2.787   6.705 -0.4450 -0.8765  0.5805
  124OSM    H5S13192   4.803   2.753   6.647 -0.9201  2.1895 -0.7163
  124OSM    C6S13193   4.899   2.740   6.848  1.0859 -0.1166 -0.1222
  124OSM    H6S13194   4.873   2.632   6.851  0.2002  0.1019  0.3106
  124OSM    H6T13195   4.813   2.784   6.903  1.8991 -1.1872  2.1301
  124OSM    C7S13196   5.012   2.785   6.943 -0.1800  0.0058 -0.0716
  124OSM    H7S13197   5.011   2.896   6.953 -0.8082 -0.1208  1.5481
  124OSM    H7T13198   5.112   2.762   6.901 -0.5247 -0.6742 -0.5396
  124OSM    C8S13199   5.013   2.713   7.081  0.0942 -0.2401 -0.1804
  124OSM    H8S13200   5.067   2.616   7.074  3.3083  1.3399  0.8165
  124OSM    H8T13201   4.905   2.700   7.103  0.2496 -1.0173  0.1646
  124OSM    C9S13202   5.082   2.795   7.191  0.1783 -0.2559  0.0948
  124OSM    H9S13203   5.018   2.882   7.220  0.2281 -0.0025 -0.5402
  124OSM    H9T13204   5.176   2.831   7.145 -0.9016 -1.8042 -3.7246
  124OSM   C10S13205   5.091   2.719   7.330  0.3648 -0.6952 -0.1009
  124OSM   H10S13206   5.140   2.620   7.318  1.4123 -0.2080  0.1241
  124OSM   H10T13207   4.986   2.708   7.365  0.3385  1.4547  0.6436
  124OSM   C11S13208   5.182   2.799   7.421 -0.7974 -0.0808 -0.1912
  124OSM   H11S13209   5.153   2.906   7.420  0.1198  0.1839 -1.5335
  124OSM   H11T13210   5.285   2.798   7.379 -0.7387  0.6213 -0.0880
  124OSM   C12S13211   5.182   2.725   7.560 -0.0422  0.6327  0.4643
  124OSM   H12S13212   5.264   2.765   7.623 -2.4894  0.7197  3.8604
  124OSM   H12T13213   5.215   2.619   7.551  1.2340  1.1555 -1.7157
  124OSM   C13S13214   5.056   2.747   7.642  0.4480  0.4357 -0.5148
  124OSM   H13S13215   4.985   2.669   7.608  2.1466 -0.0956 -3.0524
  124OSM   H13T13216   5.013   2.847   7.623  0.3511  0.3083 -0.9710
  124OSM   C14S13217   5.073   2.722   7.791 -0.3500 -0.4637  0.0690
  124OSM   H14S13218   4.985   2.756   7.850  0.2805 -0.1921  0.8634
  124OSM   H14T13219   5.152   2.795   7.818 -1.3762  1.0456 -0.9125
  124OSM   C15S13220   5.122   2.581   7.827 -0.3253  0.0083  0.4214
  124OSM   H15S13221   5.230   2.570   7.803 -0.0427 -0.9665  2.0303
  124OSM   H15T13222   5.068   2.514   7.757 -1.3295  1.9220 -0.7018
  124OSM   C16S13223   5.117   2.545   7.974 -0.7144  0.3445 -0.8246
  124OSM   H16S13224   5.179   2.620   8.028  0.2046 -1.0671  0.1576
  124OSM   H16T13225   5.174   2.450   7.986 -1.3865 -0.0541 -0.7369
  124OSM   C17S13226   4.975   2.528   8.025 -0.4115 -0.3945 -0.4325
  124OSM   H17S13227   4.908   2.458   7.970 -0.3886 -0.9706  0.2537
  124OSM   H17T13228   4.936   2.632   8.019 -0.5760 -0.2891  1.6282
  124OSM   C18S13229   4.971   2.487   8.169 -0.1476 -0.1776  0.0042
  124OSM   H18S13230   5.019   2.566   8.230 -0.6034  1.0652 -1.2022
  124OSM   H18T13231   5.012   2.385   8.185 -3.7309 -1.6724  0.6711
  124OSM   H18U13232   4.863   2.498   8.195 -0.1517 -0.0654 -0.0599
  124OSM    C1F13233   4.798   3.254   6.629 -0.3715 -0.0108 -0.0067
  124OSM     OF13234   4.687   3.221   6.593  0.0692 -0.0384 -0.0179
  124OSM    C2F13235   4.844   3.382   6.682  1.0071 -0.0111 -0.1818
  124OSM    H2F13236   4.753   3.445   6.690  0.4900 -0.7811  0.2028
  124OSM    H2G13237   4.901   3.434   6.602 -1.4616  0.9735 -1.4167
  124OSM    C3F13238   4.929   3.368   6.810  0.2111  0.0653  0.7065
  124OSM    H3F13239   4.963   3.465   6.853 -0.0119  1.8729 -2.8147
  124OSM    H3G13240   5.024   3.315   6.787  0.8528  1.3564  0.2537
  124OSM    C4F13241   4.850   3.315   6.920 -0.3426 -0.4229 -0.5699
  124OSM    H4F13242   4.794   3.226   6.884 -0.2584 -0.1101 -1.5304
  124OSM    H4G13243   4.774   3.393   6.940  0.7579  0.4763  0.1918
  124OSM    C5F13244   4.922   3.295   7.051 -0.3478  0.3874  0.2608
  124OSM    H5F13245   4.944   3.395   7.093 -0.6566 -0.7241  3.2466
  124OSM    H5G13246   5.024   3.254   7.032 -0.2056  1.4459 -1.5247
  124OSM    C6F13247   4.854   3.209   7.150 -0.1505  0.7892 -0.0594
  124OSM    H6F13248   4.822   3.113   7.104  0.1145  0.4973  0.3529
  124OSM    H6G13249   4.762   3.257   7.191 -0.2758 -0.0815  0.7047
  124OSM    C7F13250   4.942   3.174   7.266  0.7680 -0.2233 -0.5136
  124OSM    H7F13251   4.984   3.273   7.293 -0.0509  0.1774 -0.6829
  124OSM    H7G13252   5.035   3.117   7.247  0.4711 -0.4839 -1.2085
  124OSM    C8F13253   4.871   3.113   7.383 -0.0550  0.6014 -0.4875
  124OSM    H8F13254   4.846   3.007   7.361  0.3790  0.4840 -0.4407
  124OSM    H8G13255   4.775   3.166   7.400  1.6815  3.1000  2.8356
  124OSM    C9F13256   4.952   3.101   7.512  0.1693  0.5133 -0.4419
  124OSM    H9F13257   5.057   3.076   7.492  0.0995  0.1686 -0.3861
  124OSM   C10F13258   4.912   3.126   7.643 -0.1048 -0.0622  0.6361
  124OSM   H10F13259   4.990   3.111   7.719  2.7552  0.2319 -2.0091
  124OSM   C11F13260   4.778   3.178   7.684 -0.1016  0.2206  0.3651
  124OSM   H11F13261   4.737   3.109   7.761  1.2956 -1.1472 -0.0814
  124OSM   H11G13262   4.700   3.164   7.606  0.2620 -1.5645  0.2832
  124OSM   C12F13263   4.773   3.315   7.754  0.8081 -0.4119  0.1669
  124OSM   H12F13264   4.857   3.336   7.824  0.3973  1.0586  0.2521
  124OSM   H12G13265   4.677   3.321   7.808  0.7197  0.5738 -0.0865
  124OSM   C13F13266   4.778   3.427   7.644  0.3375  0.6377 -0.0903
  124OSM   H13F13267   4.850   3.395   7.566  0.2767 -2.9007  1.1155
  124OSM   H13G13268   4.803   3.523   7.694  1.0041 -0.0906  1.0070
  124OSM   C14F13269   4.641   3.443   7.572 -0.2161  0.2189  0.7830
  124OSM   H14F13270   4.551   3.471   7.631 -1.7181 -0.6310 -1.0091
  124OSM   H14G13271   4.618   3.345   7.525  0.3053  0.5377 -0.1451
  124OSM   C15F13272   4.643   3.538   7.451 -0.3409  1.0709 -0.4357
  124OSM   H15F13273   4.702   3.497   7.366  0.3284 -0.3022  0.6635
  124OSM   H15G13274   4.694   3.626   7.497 -2.3788  1.3059  1.5650
  124OSM   C16F13275   4.520   3.595   7.389  0.3822  0.6440  0.7044
  124OSM   H16F13276   4.537   3.703   7.374  2.7315  0.1008 -1.0115
  124OSM   H16G13277   4.435   3.581   7.460 -0.0130 -1.0721 -0.0574
  124OSM   C17F13278   4.477   3.523   7.258 -0.1475 -0.4584  0.9384
  124OSM   H17F13279   4.465   3.415   7.280 -0.9880 -0.2262  1.6921
  124OSM   H17G13280   4.564   3.525   7.189  0.2598 -2.3480  1.3585
  124OSM   C18F13281   4.349   3.563   7.196  0.1290 -0.3957  0.2049
  124OSM   H18F13282   4.274   3.595   7.272 -0.8846 -1.7403 -0.1790
  124OSM   H18G13283   4.307   3.482   7.133 -2.5227  1.4696 -0.6328
  124OSM   H18H13284   4.374   3.651   7.133  0.2032 -0.8318 -0.3812
  125OSM      N13285   3.037   4.543   6.280  0.5750  0.6418 -0.3672
  125OSM    C1513286   3.082   4.656   6.368  0.6228  0.1711  0.4230
  125OSM   H15A13287   3.181   4.632   6.404  0.5482 -1.7352 -0.5050
  125OSM   H15B13288   3.011   4.666   6.449  2.6618  1.8095  2.0864
  125OSM   H15C13289   3.089   4.748   6.312 -0.4097  0.6909  1.1037
  125OSM    C1413290   2.914   4.578   6.212  0.2861  0.1374  0.0503
  125OSM   H14A13291   2.886   4.499   6.144 -0.4484  2.1122 -2.0707
  125OSM   H14B13292   2.931   4.663   6.147 -0.7993 -0.4920 -1.0877
  125OSM   H14C13293   2.833   4.586   6.284  1.6619  1.3802  1.5526
  125OSM    C1313294   3.135   4.521   6.174  0.3577  0.0512 -0.7245
  125OSM   H13A13295   3.129   4.601   6.102 -1.4890  0.5831 -0.0324
  125OSM   H13B13296   3.121   4.424   6.130  0.0341  0.9807 -2.7971
  125OSM   H13C13297   3.231   4.499   6.219 -1.2558 -1.0673  2.4974
  125OSM    C1213298   3.003   4.422   6.365 -0.0655  0.6317 -0.4122
  125OSM   H12A13299   2.979   4.338   6.301 -0.2848 -0.1698  0.6876
  125OSM   H12B13300   2.906   4.431   6.410 -1.0906 -0.8585 -2.1628
  125OSM    C1113301   3.112   4.363   6.462  0.3755  0.0992 -0.4943
  125OSM   H11A13302   3.063   4.279   6.515  2.1522  0.1488  1.3843
  125OSM   H11B13303   3.141   4.438   6.540  0.5068 -1.1971  0.7519
  125OSM      P13304   3.261   4.208   6.313  0.3199  0.3538 -0.6619
  125OSM    O1313305   3.135   4.155   6.254 -0.0819  0.1287 -0.5636
  125OSM    O1413306   3.369   4.233   6.214  0.0763 -0.1013  0.0460
  125OSM    O1113307   3.317   4.106   6.416 -0.4748  0.3824 -0.3902
  125OSM    O1213308   3.235   4.336   6.402 -0.2970  0.4231  1.0140
  125OSM    C1S13309   3.451   4.116   6.477  0.4276  0.2955 -0.0162
  125OSM    H1S13310   3.520   4.189   6.429 -0.0172  1.4748  1.0786
  125OSM    H1T13311   3.501   4.018   6.461 -1.6757 -0.7530 -0.5352
  125OSM     NF13312   3.584   4.175   6.671 -0.2366 -0.6571  0.0247
  125OSM    HNF13313   3.647   4.103   6.697 -1.7501 -1.4151  1.8675
  125OSM    C2S13314   3.448   4.152   6.627  0.0328  0.5668  0.1063
  125OSM    H2S13315   3.404   4.254   6.635 -0.9373  0.0527  1.5573
  125OSM    C3S13316   3.377   4.033   6.701 -0.4226 -0.3081 -0.2913
  125OSM    H3S13317   3.428   3.939   6.674  1.3231  0.5321 -0.0464
  125OSM     O313318   3.236   4.006   6.670  0.1500 -0.1207  0.0311
  125OSM    HO313319   3.232   4.022   6.576 -0.3802 -3.5058 -0.6751
  125OSM    C4S13320   3.402   4.049   6.852  0.2533  0.7833  0.3223
  125OSM    H4S13321   3.465   3.966   6.886 -2.5705 -1.4261  0.4792
  125OSM    C5S13322   3.335   4.133   6.932 -0.2550  0.1910 -0.6626
  125OSM    H5S13323   3.255   4.195   6.889  1.5865  1.6902 -2.1643
  125OSM    C6S13324   3.360   4.146   7.082  0.2313  0.4405 -0.4695
  125OSM    H6S13325   3.264   4.159   7.137  0.7510 -0.1417  0.5971
  125OSM    H6T13326   3.420   4.238   7.100  0.0018  0.0352  3.3760
  125OSM    C7S13327   3.426   4.026   7.149  0.6921 -0.1215  0.2943
  125OSM    H7S13328   3.530   4.008   7.114  1.1649  3.1076 -0.2726
  125OSM    H7T13329   3.363   3.941   7.114 -0.6188  1.1141 -0.4675
  125OSM    C8S13330   3.435   4.024   7.300  0.9183 -0.1375  0.4685
  125OSM    H8S13331   3.458   3.923   7.338  1.3083  0.7571  2.7878
  125OSM    H8T13332   3.333   4.054   7.330  0.1587 -1.7302 -0.4155
  125OSM    C9S13333   3.524   4.127   7.354 -0.4430 -0.0889 -0.2420
  125OSM    H9S13334   3.503   4.231   7.320 -2.6797 -0.1535  0.7451
  125OSM    H9T13335   3.625   4.107   7.312 -0.0297 -1.2754  1.2278
  125OSM   C10S13336   3.536   4.121   7.511 -0.6653 -0.2104 -0.6423
  125OSM   H10S13337   3.440   4.114   7.567  0.4038 -0.1267  1.2989
  125OSM   H10T13338   3.581   4.217   7.544 -1.4066  0.6288 -2.0219
  125OSM   C11S13339   3.623   4.003   7.553 -1.0483 -0.4567 -0.0158
  125OSM   H11S13340   3.725   4.020   7.512 -1.1956 -1.6620 -0.9589
  125OSM   H11T13341   3.573   3.910   7.517  0.3044 -0.9294 -0.7353
  125OSM   C12S13342   3.633   3.994   7.707 -0.3549 -0.6993  0.3423
  125OSM   H12S13343   3.706   3.915   7.735 -0.4410 -0.7424  0.4430
  125OSM   H12T13344   3.533   3.959   7.740 -0.3854 -2.7303 -1.6702
  125OSM   C13S13345   3.663   4.127   7.788 -0.0093  0.6853  0.3212
  125OSM   H13S13346   3.582   4.200   7.768 -1.2191 -0.4281  0.9778
  125OSM   H13T13347   3.753   4.176   7.745 -1.5083  1.5578 -2.0207
  125OSM   C14S13348   3.685   4.105   7.936 -0.2085  0.2574 -0.8308
  125OSM   H14S13349   3.762   4.029   7.963  0.2765  1.1913  0.5439
  125OSM   H14T13350   3.592   4.071   7.986 -0.2698  1.9378  0.2832
  125OSM   C15S13351   3.734   4.229   8.010  0.9641  0.0509  0.3379
  125OSM   H15S13352   3.647   4.297   8.025  1.1946  0.5356 -0.4938
  125OSM   H15T13353   3.806   4.288   7.951  0.7635 -0.4217 -0.3897
  125OSM   C16S13354   3.795   4.202   8.149 -0.6928 -0.2834  1.0309
  125OSM   H16S13355   3.887   4.141   8.149 -0.7990 -0.4438  0.9870
  125OSM   H16T13356   3.729   4.151   8.222 -2.7252  1.1276  0.2920
  125OSM   C17S13357   3.834   4.335   8.208 -0.7681  0.2933 -0.1548
  125OSM   H17S13358   3.741   4.396   8.207 -1.1558 -0.2573  0.9535
  125OSM   H17T13359   3.910   4.383   8.142  0.6367 -0.1692  1.0571
  125OSM   C18S13360   3.905   4.311   8.342  0.1599 -0.3081 -0.4528
  125OSM   H18S13361   4.006   4.266   8.328 -0.0779 -0.2979 -2.6633
  125OSM   H18T13362   3.845   4.244   8.406 -0.3152  0.2361 -0.3177
  125OSM   H18U13363   3.909   4.410   8.392  0.8502 -0.0133 -1.0662
  125OSM    C1F13364   3.648   4.295   6.659  0.2930 -0.4475  0.4574
  125OSM     OF13365   3.587   4.388   6.597 -0.0412 -0.2671  0.5372
  125OSM    C2F13366   3.782   4.309   6.719 -0.7515 -0.3170 -0.6790
  125OSM    H2F13367   3.858   4.264   6.652  0.3216 -0.4110  0.5516
  125OSM    H2G13368   3.790   4.258   6.818  1.4287 -0.2966 -0.8028
  125OSM    C3F13369   3.823   4.457   6.739  0.3267  0.6591 -0.3737
  125OSM    H3F13370   3.789   4.519   6.654  0.7084  0.2489 -0.8405
  125OSM    H3G13371   3.934   4.464   6.744  0.2918  3.3839 -1.7200
  125OSM    C4F13372   3.757   4.510   6.876  0.5386 -0.6555  0.3493
  125OSM    H4F13373   3.664   4.453   6.891  0.7116 -0.9463  0.3257
  125OSM    H4G13374   3.732   4.617   6.855 -0.2896 -0.9848 -0.4100
  125OSM    C5F13375   3.847   4.500   6.993 -0.2655  0.1189  0.1064
  125OSM    H5F13376   3.932   4.570   6.978 -0.2132  0.4857  1.9098
  125OSM    H5G13377   3.880   4.394   6.989 -3.2933 -0.8721 -1.4230
  125OSM    C6F13378   3.782   4.515   7.132 -0.0487 -0.9147 -0.4553
  125OSM    H6F13379   3.694   4.450   7.148 -1.2579  1.3853  3.3536
  125OSM    H6G13380   3.734   4.613   7.112  0.8947 -0.1619  0.8528
  125OSM    C7F13381   3.878   4.509   7.255  0.3833 -0.9888  0.1295
  125OSM    H7F13382   3.970   4.566   7.232 -0.9366  2.1764  2.0238
  125OSM    H7G13383   3.907   4.403   7.272  1.0061 -0.9990 -0.9167
  125OSM    C8F13384   3.820   4.586   7.381 -0.2201  0.5498  0.0661
  125OSM    H8F13385   3.769   4.678   7.344 -1.2329 -0.0952 -0.1852
  125OSM    H8G13386   3.904   4.618   7.446 -1.1877  1.6409  0.8271
  125OSM    C9F13387   3.729   4.495   7.448  0.1780  0.0545  0.8069
  125OSM    H9F13388   3.642   4.467   7.387  2.0228  0.5693 -2.2498
  125OSM   C10F13389   3.743   4.440   7.571 -0.6313  0.2246 -0.1547
  125OSM   H10F13390   3.661   4.385   7.620  0.2209  2.3975  4.2934
  125OSM   C11F13391   3.853   4.464   7.679  0.2497  0.2478  0.6061
  125OSM   H11F13392   3.950   4.467   7.625 -0.5527  0.6495 -0.8849
  125OSM   H11G13393   3.855   4.373   7.743  2.0997 -0.7247 -0.7412
  125OSM   C12F13394   3.817   4.589   7.756  0.4823 -0.2110 -0.3743
  125OSM   H12F13395   3.730   4.568   7.823  0.4696 -0.8415 -0.5799
  125OSM   H12G13396   3.789   4.677   7.694 -1.7391 -0.1076  0.6732
  125OSM   C13F13397   3.923   4.635   7.855 -0.2643 -0.4238  0.5924
  125OSM   H13F13398   4.017   4.659   7.801  0.0563 -1.1513  0.8093
  125OSM   H13G13399   3.949   4.548   7.919 -1.4860 -1.1518  0.1285
  125OSM   C14F13400   3.883   4.764   7.936  0.6368 -0.1734 -0.1928
  125OSM   H14F13401   3.803   4.726   8.004  0.2197  1.6854  0.4372
  125OSM   H14G13402   3.828   4.834   7.869 -1.1438  0.8011  2.0857
  125OSM   C15F13403   3.990   4.831   8.013  0.1798 -0.3501 -0.0743
  125OSM   H15F13404   4.043   4.901   7.945 -0.5278  1.2063  0.9129
  125OSM   H15G13405   4.063   4.752   8.042  0.2832 -1.1595 -2.3666
  125OSM   C16F13406   3.940   4.904   8.142  0.1460  0.4177 -0.1027
  125OSM   H16F13407   4.012   4.874   8.222 -0.3107  0.5271  0.3531
  125OSM   H16G13408   3.835   4.880   8.168 -0.0005  1.7343  0.5741
  125OSM   C17F13409   3.965   5.065   8.122  0.6330 -0.2051 -0.1783
  125OSM   H17F13410   3.885   5.119   8.066  0.4562 -0.6122 -0.3240
  125OSM   H17G13411   4.057   5.086   8.063  1.1578 -2.2485 -0.1865
  125OSM   C18F13412   3.982   5.121   8.257 -1.0451 -0.3331  0.2996
  125OSM   H18F13413   3.899   5.098   8.326 -1.5701 -2.9783 -1.0696
  125OSM   H18G13414   4.007   5.229   8.245  0.4145 -0.6748  0.0798
  125OSM   H18H13415   4.072   5.076   8.303 -0.7771 -1.1184 -0.9390
  126OSM      N13416   1.387   3.839   6.188 -0.3046 -0.2356 -0.3929
  126OSM    C1513417   1.350   3.692   6.183 -0.3081 -0.3550 -0.5683
  126OSM   H15A13418   1.305   3.653   6.093 -0.3044  0.5186 -0.9603
  126OSM   H15B13419   1.271   3.672   6.254 -2.2968  0.6008 -2.4212
  126OSM   H15C13420   1.439   3.631   6.194  1.1531  1.0298 -3.6240
  126OSM    C1413421   1.480   3.864   6.067 -0.1400  0.6234 -0.4065
  126OSM   H14A13422   1.424   3.846   5.977 -1.2104  1.0946  0.1563
  126OSM   H14B13423   1.565   3.797   6.064  0.4443  1.3268 -0.0770
  126OSM   H14C13424   1.505   3.970   6.068  1.5017  0.3899  3.6189
  126OSM    C1313425   1.271   3.936   6.171 -0.0178  0.1870 -0.4058
  126OSM   H13A13426   1.300   4.037   6.194 -1.6684  0.1914  2.0098
  126OSM   H13B13427   1.195   3.897   6.237 -1.6724 -0.1388 -2.4077
  126OSM   H13C13428   1.242   3.932   6.067  1.4339  1.9012 -0.9226
  126OSM    C1213429   1.454   3.859   6.320 -0.1397 -0.4633 -0.4572
  126OSM   H12A13430   1.499   3.957   6.325  3.3701 -1.9523  0.0845
  126OSM   H12B13431   1.547   3.805   6.330 -0.0061 -0.1623 -0.0680
  126OSM    C1113432   1.367   3.847   6.449 -0.9215 -0.3438 -0.4274
  126OSM   H11A13433   1.274   3.906   6.438  0.1053  1.5758  0.6732
  126OSM   H11B13434   1.426   3.905   6.523 -0.6626 -0.1840 -0.7529
  126OSM      P13435   1.452   3.614   6.536  0.3579 -0.1652  0.7088
  126OSM    O1313436   1.399   3.479   6.564 -0.2893 -0.1773  0.2753
  126OSM    O1413437   1.572   3.624   6.451  0.0834  0.7173 -0.3262
  126OSM    O1113438   1.494   3.680   6.671  0.0042 -0.2841 -0.4666
  126OSM    O1213439   1.342   3.710   6.477 -0.0689  0.7201 -0.4521
  126OSM    C1S13440   1.396   3.696   6.777 -0.0810  0.6485 -0.2129
  126OSM    H1S13441   1.349   3.598   6.797  2.3977 -0.3799  1.0928
  126OSM    H1T13442   1.327   3.775   6.742 -0.1213 -0.2662 -2.3673
  126OSM     NF13443   1.371   3.759   7.016  0.2421  0.1058 -0.1877
  126OSM    HNF13444   1.358   3.856   7.033 -0.5708 -0.1659  0.8910
  126OSM    C2S13445   1.469   3.732   6.909  0.7111 -0.1053 -0.2373
  126OSM    H2S13446   1.529   3.649   6.952  2.1600  1.3953  0.8204
  126OSM    C3S13447   1.577   3.848   6.889 -0.9708 -0.6052 -0.8035
  126OSM    H3S13448   1.544   3.947   6.852  0.2631  0.5834  1.1288
  126OSM     O313449   1.675   3.809   6.796 -0.2078  0.0788  0.0272
  126OSM    HO313450   1.625   3.749   6.741  2.5669 -2.3381 -0.0992
  126OSM    C4S13451   1.639   3.871   7.023  0.6418 -0.3257 -0.4719
  126OSM    H4S13452   1.616   3.974   7.057  2.4816  0.2904 -0.9946
  126OSM    C5S13453   1.716   3.787   7.091 -0.4199  0.2313  0.8797
  126OSM    H5S13454   1.747   3.690   7.049  0.0405 -1.1447  4.0814
  126OSM    C6S13455   1.773   3.818   7.221  0.1070  0.4451 -0.2395
  126OSM    H6S13456   1.884   3.809   7.220  0.1791  1.2048 -1.9681
  126OSM    H6T13457   1.741   3.742   7.295 -1.5526  0.7316 -0.6267
  126OSM    C7S13458   1.724   3.947   7.290 -0.9539  0.2341  0.6178
  126OSM    H7S13459   1.614   3.950   7.305 -1.6169 -2.2956 -2.7245
  126OSM    H7T13460   1.757   4.037   7.234 -1.0203 -1.8164 -3.0313
  126OSM    C8S13461   1.787   3.945   7.437  0.5178  0.2076 -0.4083
  126OSM    H8S13462   1.892   3.914   7.419  0.3202  0.3761 -2.0379
  126OSM    H8T13463   1.728   3.862   7.482  0.1455  1.0306  0.6536
  126OSM    C9S13464   1.782   4.072   7.514  0.3378  0.2566 -0.7820
  126OSM    H9S13465   1.680   4.113   7.528  0.6148  0.5493  0.6449
  126OSM    H9T13466   1.835   4.150   7.455  1.1673 -0.7180 -1.3613
  126OSM   C10S13467   1.858   4.052   7.646  0.5710  0.9131  0.3835
  126OSM   H10S13468   1.964   4.057   7.614  0.1169  0.5209 -1.2667
  126OSM   H10T13469   1.833   3.948   7.678  0.0948  1.3141  1.3713
  126OSM   C11S13470   1.818   4.140   7.756 -0.3195  0.1466 -0.3194
  126OSM   H11S13471   1.708   4.135   7.774 -0.8533  1.7639 -2.6951
  126OSM   H11T13472   1.830   4.247   7.730 -1.3436 -0.0812 -1.8580
  126OSM   C12S13473   1.878   4.103   7.897 -0.0553 -0.0279 -0.4050
  126OSM   H12S13474   1.910   3.997   7.899 -2.0116 -0.7425 -2.1646
  126OSM   H12T13475   1.795   4.093   7.970  1.8802  0.6891  2.0110
  126OSM   C13S13476   1.970   4.205   7.954 -0.1933  0.1768  0.1891
  126OSM   H13S13477   1.934   4.308   7.934  1.5871  0.7682 -0.1106
  126OSM   H13T13478   2.062   4.211   7.892  0.8711  0.6359  1.7413
  126OSM   C14S13479   2.001   4.187   8.108 -0.4347 -0.1067 -0.4176
  126OSM   H14S13480   1.908   4.189   8.168  0.6930 -0.2919  1.4101
  126OSM   H14T13481   2.055   4.280   8.138 -0.5703 -0.5022  1.1553
  126OSM   C15S13482   2.077   4.056   8.142  0.5849 -0.1113  0.5546
  126OSM   H15S13483   2.176   4.061   8.091  0.7474 -0.7225  0.7967
  126OSM   H15T13484   2.016   3.970   8.106  2.6518 -1.4453  0.0566
  126OSM   C16S13485   2.101   4.030   8.295  0.3605 -0.4439 -0.5610
  126OSM   H16S13486   2.090   3.922   8.315 -2.7720  0.2898  2.8116
  126OSM   H16T13487   2.007   4.060   8.347  1.0010  0.0701  0.3349
  126OSM   C17S13488   2.226   4.099   8.351  0.0859  0.6504 -0.8351
  126OSM   H17S13489   2.209   4.208   8.343  1.4871  0.9005 -0.6105
  126OSM   H17T13490   2.316   4.078   8.290  1.1358  0.3825  0.7298
  126OSM   C18S13491   2.252   4.077   8.506  0.1429  0.0328  0.2638
  126OSM   H18S13492   2.334   4.147   8.530  0.5062  0.6096 -2.3464
  126OSM   H18T13493   2.293   3.978   8.538  3.5255  0.2001 -2.9291
  126OSM   H18U13494   2.160   4.095   8.566  0.3486  1.9506  0.0459
  126OSM    C1F13495   1.283   3.667   7.067  0.7787  0.1116  0.1891
  126OSM     OF13496   1.283   3.553   7.027 -0.2404  0.4597  0.1850
  126OSM    C2F13497   1.181   3.716   7.168  0.1066 -0.6046  0.5076
  126OSM    H2F13498   1.093   3.729   7.101  0.8849  3.7969  0.0288
  126OSM    H2G13499   1.205   3.822   7.190 -0.5252 -0.0266 -1.3572
  126OSM    C3F13500   1.159   3.623   7.294 -0.6520 -0.2974  0.6163
  126OSM    H3F13501   1.120   3.529   7.249  1.5226 -1.9521  1.9675
  126OSM    H3G13502   1.074   3.667   7.351 -2.4721 -1.6888 -0.8926
  126OSM    C4F13503   1.270   3.604   7.393  0.4172 -0.1923  0.5970
  126OSM    H4F13504   1.343   3.539   7.340 -1.0973  0.2423 -2.1920
  126OSM    H4G13505   1.233   3.534   7.472 -0.7246  0.2556  0.4908
  126OSM    C5F13506   1.335   3.732   7.457  0.3588  0.7212 -0.3995
  126OSM    H5F13507   1.254   3.805   7.478  1.0509  1.4193 -0.1135
  126OSM    H5G13508   1.392   3.787   7.380 -0.6787  1.9622 -0.3149
  126OSM    C6F13509   1.423   3.702   7.584  0.2450  0.3214  0.5952
  126OSM    H6F13510   1.515   3.657   7.540  1.2899  0.2684  2.7224
  126OSM    H6G13511   1.369   3.623   7.641 -3.6463  0.9002 -1.8862
  126OSM    C7F13512   1.460   3.819   7.678  0.2349  0.0216 -0.5078
  126OSM    H7F13513   1.372   3.841   7.742  3.2995  0.6006  3.9771
  126OSM    H7G13514   1.470   3.905   7.608  0.8528  1.1469  0.9078
  126OSM    C8F13515   1.570   3.799   7.782  0.3964  0.1092  0.7018
  126OSM    H8F13516   1.580   3.900   7.827 -0.8026  1.4764 -1.8553
  126OSM    H8G13517   1.665   3.801   7.725  0.4586  0.3241  0.8133
  126OSM    C9F13518   1.553   3.674   7.863  0.4459 -0.2449 -0.1964
  126OSM    H9F13519   1.557   3.581   7.803 -0.9933 -0.1813 -0.4337
  126OSM   C10F13520   1.520   3.667   7.995 -0.3054 -0.0594 -0.2943
  126OSM   H10F13521   1.515   3.569   8.045  2.7981  0.4471  1.2788
  126OSM   C11F13522   1.491   3.778   8.093 -0.8797  0.4199  0.6989
  126OSM   H11F13523   1.383   3.778   8.119 -0.6410  2.4634  1.9606
  126OSM   H11G13524   1.529   3.872   8.048  2.9986 -1.3947 -0.2791
  126OSM   C12F13525   1.581   3.750   8.218  0.4216  0.1584 -0.0762
  126OSM   H12F13526   1.576   3.642   8.244 -0.3196  0.4486  1.0650
  126OSM   H12G13527   1.526   3.813   8.291 -1.9444  0.9277 -2.3378
  126OSM   C13F13528   1.726   3.793   8.219 -0.0662  0.0532  0.1669
  126OSM   H13F13529   1.725   3.886   8.157 -1.2381 -0.7878 -1.1220
  126OSM   H13G13530   1.779   3.715   8.161  0.3036  0.1885  0.3161
  126OSM   C14F13531   1.783   3.796   8.359  0.2386 -0.1379  0.6724
  126OSM   H14F13532   1.893   3.786   8.349  0.0597 -1.4036 -0.3250
  126OSM   H14G13533   1.753   3.701   8.408  0.6829 -0.8915 -0.4817
  126OSM   C15F13534   1.747   3.923   8.441 -0.6808 -0.4181 -0.1719
  126OSM   H15F13535   1.642   3.905   8.474 -1.2565  0.1035 -1.6392
  126OSM   H15G13536   1.737   4.022   8.393 -0.3182 -0.6359 -0.6991
  126OSM   C16F13537   1.833   3.941   8.570  0.0894 -0.7376 -0.1442
  126OSM   H16F13538   1.936   3.921   8.534  0.6864 -1.8769  2.0397
  126OSM   H16G13539   1.810   3.857   8.640 -1.0370  0.5319  1.0633
  126OSM   C17F13540   1.817   4.073   8.646 -0.5128 -0.7652 -0.2283
  126OSM   H17F13541   1.708   4.087   8.660 -0.2009  0.1729  1.4996
  126OSM   H17G13542   1.848   4.156   8.578 -0.9367 -2.0348 -2.0511
  126OSM   C18F13543   1.896   4.077   8.775  0.7128 -0.5631 -0.8064
  126OSM   H18F13544   1.851   4.012   8.853  2.9105  0.8750  1.8047
  126OSM   H18G13545   1.890   4.179   8.817 -0.7526 -0.9584  0.0411
  126OSM   H18H13546   2.001   4.042   8.770  1.3910  1.0168  1.2845
  127OSM      N13547   2.643   2.844   6.060 -1.0826 -0.4679  1.0020
  127OSM    C1513548   2.715   2.803   5.933  0.0562  1.1288  0.2048
  127OSM   H15A13549   2.714   2.695   5.938 -0.5384  1.1038 -0.3750
  127OSM   H15B13550   2.812   2.849   5.918  0.4931 -0.0078 -0.6096
  127OSM   H15C13551   2.661   2.825   5.842  3.4237  2.6696 -1.6059
  127OSM    C1413552   2.652   3.001   6.061  0.1401  0.0020  0.3698
  127OSM   H14A13553   2.603   3.040   6.149 -0.7875 -0.8993  0.2891
  127OSM   H14B13554   2.591   3.036   5.978 -1.2517 -1.0677  0.8900
  127OSM   H14C13555   2.753   3.036   6.050 -0.4694  1.3839 -1.2028
  127OSM    C1313556   2.500   2.806   6.053  0.4219  0.4799 -0.5758
  127OSM   H13A13557   2.484   2.703   6.081 -0.0779 -0.0973 -2.8116
  127OSM   H13B13558   2.463   2.826   5.953  1.3334  0.9836 -0.8203
  127OSM   H13C13559   2.434   2.850   6.126 -0.2093 -1.5239  0.1374
  127OSM    C1213560   2.707   2.791   6.191 -0.1246 -0.3560 -0.1392
  127OSM   H12A13561   2.652   2.838   6.271 -0.6104 -0.0101 -0.6678
  127OSM   H12B13562   2.804   2.837   6.203  0.1165 -1.0455  0.6340
  127OSM    C1113563   2.706   2.640   6.219 -0.0504 -0.1012 -0.2092
  127OSM   H11A13564   2.769   2.628   6.309  0.6718  0.0039 -0.6871
  127OSM   H11B13565   2.758   2.591   6.133  0.2547  1.0616 -0.7122
  127OSM      P13566   2.543   2.448   6.228  0.2754  0.1203  0.3269
  127OSM    O1313567   2.403   2.434   6.279 -0.2311 -0.0599 -0.3289
  127OSM    O1413568   2.577   2.391   6.091 -0.4585 -0.6645 -0.3566
  127OSM    O1113569   2.637   2.391   6.339 -0.0197 -0.6190 -0.5095
  127OSM    O1213570   2.575   2.597   6.229 -0.2557 -0.7498 -0.2452
  127OSM    C1S13571   2.614   2.440   6.470 -0.0247 -0.7731 -0.8468
  127OSM    H1S13572   2.510   2.418   6.501  0.1243  0.5095  0.6613
  127OSM    H1T13573   2.634   2.549   6.470  1.2999 -0.9936 -0.7018
  127OSM     NF13574   2.677   2.447   6.700  0.0377  0.1336 -0.2965
  127OSM    HNF13575   2.726   2.534   6.709 -1.5867  1.2214 -1.3704
  127OSM    C2S13576   2.713   2.380   6.577  0.8437  0.5430  0.2391
  127OSM    H2S13577   2.695   2.271   6.592  1.1439  0.4566 -0.0208
  127OSM    C3S13578   2.862   2.390   6.536  0.1761 -0.1403  1.2086
  127OSM    H3S13579   2.882   2.499   6.542 -0.0651  0.0196 -0.5122
  127OSM     O313580   2.893   2.357   6.401 -0.5613  0.5543  0.2749
  127OSM    HO313581   2.811   2.366   6.352 -0.8896  1.7412  0.9949
  127OSM    C4S13582   2.951   2.311   6.633  0.5873 -0.2040  0.1716
  127OSM    H4S13583   3.001   2.378   6.705 -0.0139 -0.4639  0.8442
  127OSM    C5S13584   2.980   2.177   6.628 -0.1868 -0.4414 -0.1120
  127OSM    H5S13585   2.913   2.115   6.568 -2.1245  2.6491 -1.3733
  127OSM    C6S13586   3.076   2.117   6.731 -0.1759 -0.6733 -0.3423
  127OSM    H6S13587   3.161   2.068   6.680 -0.5590 -1.8473  0.0892
  127OSM    H6T13588   3.020   2.037   6.786  1.1896 -0.0949  2.0474
  127OSM    C7S13589   3.153   2.212   6.829 -0.0663  0.3032 -0.3358
  127OSM    H7S13590   3.074   2.261   6.891  0.1239 -0.4367  0.5155
  127OSM    H7T13591   3.211   2.283   6.767 -0.1029 -1.9642 -3.1752
  127OSM    C8S13592   3.250   2.129   6.919 -0.3112  0.0775 -0.0241
  127OSM    H8S13593   3.329   2.075   6.863  0.3735  0.4951  0.5176
  127OSM    H8T13594   3.189   2.061   6.983 -1.0610  0.2397 -0.5455
  127OSM    C9S13595   3.325   2.221   7.017 -0.4416  0.4213  0.1338
  127OSM    H9S13596   3.383   2.290   6.953  0.2003 -0.3071 -0.0839
  127OSM    H9T13597   3.389   2.159   7.083 -0.1698 -0.7354 -1.1706
  127OSM   C10S13598   3.225   2.313   7.099  0.1568 -0.0367  0.6007
  127OSM   H10S13599   3.156   2.250   7.158  0.1987 -0.2384  0.4384
  127OSM   H10T13600   3.171   2.375   7.024  1.6809 -0.3312 -0.7958
  127OSM   C11S13601   3.302   2.408   7.192  0.1858  0.3756 -0.3368
  127OSM   H11S13602   3.359   2.489   7.142 -0.3575  0.4040 -0.9224
  127OSM   H11T13603   3.382   2.352   7.245 -0.7224 -2.6991 -1.9653
  127OSM   C12S13604   3.214   2.465   7.300  0.9323  0.2906 -0.5640
  127OSM   H12S13605   3.157   2.378   7.340  0.8322  1.0107  0.9261
  127OSM   H12T13606   3.138   2.533   7.256  1.4018  0.5908 -0.9214
  127OSM   C13S13607   3.272   2.561   7.400 -0.0151  0.9719 -0.0529
  127OSM   H13S13608   3.294   2.658   7.351  1.7313  0.4130 -0.4497
  127OSM   H13T13609   3.369   2.532   7.446 -0.0412  3.8596  2.1489
  127OSM   C14S13610   3.172   2.595   7.516 -0.2191 -0.1149  0.2371
  127OSM   H14S13611   3.143   2.499   7.563 -0.0240  0.2754  1.1805
  127OSM   H14T13612   3.081   2.646   7.476 -1.6705 -0.5160  2.7559
  127OSM   C15S13613   3.223   2.693   7.626  0.2938  0.1532 -0.6156
  127OSM   H15S13614   3.236   2.800   7.600 -0.3493  1.2902  3.1186
  127OSM   H15T13615   3.325   2.652   7.645  0.5493  0.9701 -0.1829
  127OSM   C16S13616   3.146   2.681   7.762 -0.6565 -0.2599  0.0683
  127OSM   H16S13617   3.142   2.573   7.784  2.2425 -0.9317 -2.0897
  127OSM   H16T13618   3.042   2.717   7.752 -0.7080 -0.3650  0.2421
  127OSM   C17S13619   3.197   2.747   7.892  0.3265  0.6707  0.5998
  127OSM   H17S13620   3.204   2.857   7.889  1.2243  0.6130  0.3300
  127OSM   H17T13621   3.294   2.698   7.912  0.1104  0.0661  0.2090
  127OSM   C18S13622   3.106   2.712   8.010  0.4953  0.1969 -0.3800
  127OSM   H18S13623   3.001   2.747   8.004  1.2547  2.3906 -2.6062
  127OSM   H18T13624   3.141   2.758   8.105 -0.4051 -1.3526  0.7545
  127OSM   H18U13625   3.107   2.604   8.036 -0.8236  0.0987 -0.6961
  127OSM    C1F13626   2.557   2.421   6.758  0.4451 -1.1620  0.1822
  127OSM     OF13627   2.491   2.328   6.727 -0.1457 -0.5043 -0.0366
  127OSM    C2F13628   2.510   2.518   6.858  0.2071  0.2527 -0.5093
  127OSM    H2F13629   2.407   2.539   6.820  0.5572 -0.4394 -1.9405
  127OSM    H2G13630   2.567   2.613   6.849 -1.1650  1.0239 -1.6623
  127OSM    C3F13631   2.505   2.462   7.001 -0.9222  0.4911 -0.2471
  127OSM    H3F13632   2.608   2.450   7.041  0.2197 -1.6572 -3.4863
  127OSM    H3G13633   2.462   2.360   7.006  1.1618 -0.3949  2.3524
  127OSM    C4F13634   2.423   2.548   7.106  0.6199  0.1042  0.4220
  127OSM    H4F13635   2.330   2.577   7.053  2.3613  2.2865 -1.6524
  127OSM    H4G13636   2.475   2.645   7.121  0.9233  0.1374 -0.7784
  127OSM    C5F13637   2.404   2.477   7.234  0.0031 -0.4404  0.4232
  127OSM    H5F13638   2.505   2.433   7.250  0.1187 -0.3080  0.0822
  127OSM    H5G13639   2.345   2.386   7.211  0.7756 -0.8665  0.0493
  127OSM    C6F13640   2.345   2.570   7.342 -0.2282  0.0950  0.0272
  127OSM    H6F13641   2.260   2.623   7.295 -0.5907 -0.3477  0.1745
  127OSM    H6G13642   2.422   2.644   7.375  1.1152 -0.6913 -1.2223
  127OSM    C7F13643   2.292   2.488   7.458 -0.2506 -0.1593 -0.3194
  127OSM    H7F13644   2.378   2.440   7.510 -1.1647  0.6408  2.0635
  127OSM    H7G13645   2.229   2.406   7.416 -0.5189 -0.5397  0.7796
  127OSM    C8F13646   2.209   2.576   7.552 -0.8119  0.3688 -0.3275
  127OSM    H8F13647   2.132   2.633   7.496 -1.3685 -1.1865 -1.1720
  127OSM    H8G13648   2.289   2.646   7.586  0.2358 -1.1155  0.3464
  127OSM    C9F13649   2.147   2.515   7.675 -0.9984 -0.7874  0.4400
  127OSM    H9F13650   2.038   2.508   7.664 -0.8112 -0.3576 -2.3383
  127OSM   C10F13651   2.211   2.466   7.785 -0.3509 -0.6803  0.5583
  127OSM   H10F13652   2.157   2.415   7.866 -0.0182  0.2920  1.4037
  127OSM   C11F13653   2.362   2.471   7.800  0.6244  0.3378  0.1500
  127OSM   H11F13654   2.386   2.537   7.886  1.8260  1.7715 -1.2248
  127OSM   H11G13655   2.396   2.505   7.700 -2.3702 -0.7018 -1.3547
  127OSM   C12F13656   2.425   2.337   7.833  0.1608 -0.1407 -0.0905
  127OSM   H12F13657   2.534   2.355   7.828  0.3440 -0.7339  1.3279
  127OSM   H12G13658   2.407   2.256   7.759  0.9876 -0.6612  0.2734
  127OSM   C13F13659   2.400   2.292   7.979  0.9369  0.2491 -0.3097
  127OSM   H13F13660   2.426   2.186   8.002  0.8943  0.1322 -0.7843
  127OSM   H13G13661   2.290   2.292   7.994  0.7896  0.9972 -1.3214
  127OSM   C14F13662   2.464   2.375   8.093  0.1294 -0.1189  0.0024
  127OSM   H14F13663   2.406   2.469   8.107 -1.8100 -1.3744  0.7179
  127OSM   H14G13664   2.564   2.410   8.058  1.6089 -2.1058  1.9258
  127OSM   C15F13665   2.477   2.316   8.232  0.0047 -0.0861 -0.3786
  127OSM   H15F13666   2.536   2.382   8.299 -0.2790  0.0608 -0.2699
  127OSM   H15G13667   2.544   2.228   8.226 -0.9209 -0.7491 -1.7468
  127OSM   C16F13668   2.345   2.274   8.300 -0.1876  1.1492  0.2022
  127OSM   H16F13669   2.294   2.212   8.224  1.0516 -1.0676  1.0808
  127OSM   H16G13670   2.274   2.358   8.317 -0.0588  1.4039 -0.5028
  127OSM   C17F13671   2.355   2.191   8.431  0.5133 -0.3524 -0.5614
  127OSM   H17F13672   2.380   2.083   8.421 -2.3020 -1.0324 -1.0455
  127OSM   H17G13673   2.255   2.201   8.478 -0.6364 -0.3477 -2.8759
  127OSM   C18F13674   2.457   2.257   8.526 -0.4422  0.4229 -0.5347
  127OSM   H18F13675   2.461   2.184   8.610 -0.0605  0.4398 -0.5371
  127OSM   H18G13676   2.441   2.358   8.567  1.7222  0.0224  1.5281
  127OSM   H18H13677   2.558   2.254   8.480 -0.2605 -0.5415 -0.0963
  128OSM      N13678   4.703   5.367   5.864  0.1546 -0.0945  0.0142
  128OSM    C1513679   4.747   5.477   5.782  0.4720 -0.0247  0.0915
  128OSM   H15A13680   4.686   5.566   5.794 -1.0250 -0.5084 -3.0137
  128OSM   H15B13681   4.749   5.452   5.677  1.9773  0.8075 -0.1101
  128OSM   H15C13682   4.842   5.506   5.824  0.6975  1.8670 -1.6003
  128OSM    C1413683   4.563   5.328   5.823 -0.4752 -0.2585 -0.8028
  128OSM   H14A13684   4.557   5.308   5.717  1.1609  1.5916 -1.2954
  128OSM   H14B13685   4.494   5.406   5.852 -0.3147 -0.5600  0.4411
  128OSM   H14C13686   4.541   5.232   5.867  2.1641 -0.6680 -0.2262
  128OSM    C1313687   4.776   5.241   5.839  0.3226  0.1037 -0.0056
  128OSM   H13A13688   4.744   5.199   5.744  0.4864 -0.9551  0.4034
  128OSM   H13B13689   4.736   5.172   5.910 -0.6846  1.0286  0.3538
  128OSM   H13C13690   4.882   5.263   5.842  0.3332  0.0235  0.1643
  128OSM    C1213691   4.710   5.412   6.007  0.8864 -0.5709 -0.5045
  128OSM   H12A13692   4.635   5.488   6.021  0.1217 -1.4900  0.6251
  128OSM   H12B13693   4.805   5.460   6.029 -0.0790  0.7930  0.9357
  128OSM    C1113694   4.685   5.304   6.119 -0.1838 -0.0131  0.3285
  128OSM   H11A13695   4.689   5.344   6.223 -3.0174 -1.2464  1.0021
  128OSM   H11B13696   4.770   5.232   6.118 -0.7332 -0.6651  0.1557
  128OSM      P13697   4.566   5.074   6.112  0.1576 -0.0332  0.1138
  128OSM    O1313698   4.436   5.020   6.065 -0.3807  0.1677  0.0577
  128OSM    O1413699   4.689   5.017   6.050  0.4354  0.6868  0.3596
  128OSM    O1113700   4.581   5.064   6.268  0.5140 -0.6535  0.4036
  128OSM    O1213701   4.566   5.231   6.095  0.2058  0.1309  0.2780
  128OSM    C1S13702   4.498   5.148   6.347 -0.0561  0.3314  0.2441
  128OSM    H1S13703   4.406   5.184   6.295  1.2861  1.7957 -1.2403
  128OSM    H1T13704   4.553   5.236   6.387  1.7204 -0.3910 -0.5111
  128OSM     NF13705   4.342   5.155   6.543  0.1882 -0.7217 -0.0534
  128OSM    HNF13706   4.367   5.201   6.628 -0.8237 -1.8349  0.8812
  128OSM    C2S13707   4.446   5.080   6.476  0.8845  0.4691  0.1618
  128OSM    H2S13708   4.395   4.982   6.461  0.8392  0.4520  0.4207
  128OSM    C3S13709   4.567   5.043   6.557  0.2929 -0.5685  0.5122
  128OSM    H3S13710   4.639   5.126   6.573  1.3847 -1.4375  0.2320
  128OSM     O313711   4.654   4.951   6.490 -0.3306  0.5778  0.3896
  128OSM    HO313712   4.623   4.943   6.400 -0.7551 -1.2818  0.6529
  128OSM    C4S13713   4.526   4.982   6.681 -0.5897 -0.0212  0.5561
  128OSM    H4S13714   4.513   4.873   6.668 -0.8063  0.2144 -1.5977
  128OSM    C5S13715   4.516   5.043   6.802  0.0056  0.6064  0.0611
  128OSM    H5S13716   4.537   5.150   6.817 -1.0801  1.0230 -1.2506
  128OSM    C6S13717   4.471   4.963   6.920  0.5946  0.5524  0.0142
  128OSM    H6S13718   4.450   4.858   6.892  2.2684  0.3309 -0.5333
  128OSM    H6T13719   4.376   5.011   6.953  0.8724  1.8851 -1.0046
  128OSM    C7S13720   4.566   4.953   7.035 -1.0484 -1.1159  0.2775
  128OSM    H7S13721   4.592   5.058   7.059 -1.2976 -0.8845 -0.4401
  128OSM    H7T13722   4.656   4.899   6.998  0.0053  1.4380 -1.1699
  128OSM    C8S13723   4.520   4.888   7.164 -0.0107  0.4880 -0.6595
  128OSM    H8S13724   4.519   4.780   7.136  0.5849  0.7998 -1.9855
  128OSM    H8T13725   4.417   4.924   7.186  0.4634  1.2020  0.4336
  128OSM    C9S13726   4.615   4.929   7.281 -0.0523  0.4594 -0.3717
  128OSM    H9S13727   4.582   5.028   7.317  0.9334  0.2261  1.2858
  128OSM    H9T13728   4.717   4.952   7.246  1.0958 -0.6397  2.0133
  128OSM   C10S13729   4.627   4.828   7.400  0.0824 -0.1832  0.3052
  128OSM   H10S13730   4.693   4.747   7.362  3.3341  2.4158 -0.0901
  128OSM   H10T13731   4.528   4.789   7.431  0.3212 -1.2059 -0.1820
  128OSM   C11S13732   4.707   4.878   7.530  0.6839  0.1927  0.5571
  128OSM   H11S13733   4.638   4.930   7.599  1.2429  0.7998  0.6667
  128OSM   H11T13734   4.782   4.952   7.495  0.7881  0.5498  1.5111
  128OSM   C12S13735   4.771   4.758   7.608 -0.3832  0.6300 -0.2526
  128OSM   H12S13736   4.852   4.721   7.542 -0.8200 -2.2286  0.6659
  128OSM   H12T13737   4.697   4.675   7.606  0.7533 -0.3927 -0.3827
  128OSM   C13S13738   4.836   4.791   7.748  0.9520 -1.2300  0.4347
  128OSM   H13S13739   4.761   4.856   7.797  2.0618  0.9516 -0.6173
  128OSM   H13T13740   4.933   4.844   7.742 -0.1311  1.3604  3.2102
  128OSM   C14S13741   4.853   4.664   7.827 -0.3301  0.3575 -0.6059
  128OSM   H14S13742   4.898   4.591   7.756  0.6527  1.2585 -0.9242
  128OSM   H14T13743   4.750   4.629   7.852 -0.7044  0.2752 -2.1697
  128OSM   C15S13744   4.939   4.661   7.961  0.5428  0.1487  0.0813
  128OSM   H15S13745   5.048   4.657   7.941  0.7175 -2.1693  1.1270
  128OSM   H15T13746   4.931   4.568   8.022  0.4747  1.3773  2.0176
  128OSM   C16S13747   4.908   4.779   8.057 -0.4120  0.2247 -0.3733
  128OSM   H16S13748   4.815   4.739   8.104 -0.1592 -0.8026 -0.7124
  128OSM   H16T13749   4.880   4.875   8.009  0.7297 -0.3245 -2.2088
  128OSM   C17S13750   5.027   4.815   8.147  0.2541 -0.1002  0.3635
  128OSM   H17S13751   4.988   4.891   8.217 -2.2848  2.0272 -3.0372
  128OSM   H17T13752   5.097   4.867   8.078  0.6845 -0.8053  0.2599
  128OSM   C18S13753   5.092   4.701   8.213  0.0409 -0.6063 -0.1063
  128OSM   H18S13754   5.163   4.653   8.141  0.9766  0.5472  0.0282
  128OSM   H18T13755   5.020   4.624   8.248 -2.8351  1.6846 -0.5052
  128OSM   H18U13756   5.153   4.727   8.301 -0.8128  0.1713  0.2772
  128OSM    C1F13757   4.211   5.176   6.500 -0.2700  0.3615 -0.3539
  128OSM     OF13758   4.161   5.129   6.400 -0.0130  0.7613  0.3180
  128OSM    C2F13759   4.134   5.275   6.585  0.3489  0.1241 -0.0288
  128OSM    H2F13760   4.152   5.379   6.551 -0.6781  0.4884  0.5123
  128OSM    H2G13761   4.184   5.269   6.684 -0.5397  0.8032  0.4698
  128OSM    C3F13762   3.989   5.233   6.598 -0.4886 -0.0894  0.2132
  128OSM    H3F13763   3.981   5.127   6.627 -0.8122  0.1365  0.9682
  128OSM    H3G13764   3.936   5.257   6.503 -0.2088 -1.3377 -0.2763
  128OSM    C4F13765   3.892   5.299   6.709 -0.1237 -0.2056 -0.1462
  128OSM    H4F13766   3.789   5.265   6.685  0.0307  1.3939 -3.7336
  128OSM    H4G13767   3.896   5.409   6.695  2.2264  0.1685  2.4555
  128OSM    C5F13768   3.933   5.241   6.848  0.6377  0.5918  0.0079
  128OSM    H5F13769   4.043   5.237   6.853  0.6676  1.3839  0.0653
  128OSM    H5G13770   3.889   5.139   6.855  0.8514  0.4233 -0.9317
  128OSM    C6F13771   3.887   5.330   6.966  0.5656 -0.0249  0.5223
  128OSM    H6F13772   3.811   5.274   7.025 -0.3461  1.9143  1.2762
  128OSM    H6G13773   3.836   5.420   6.926 -1.2568 -1.4108 -0.4654
  128OSM    C7F13774   4.001   5.361   7.067  0.2569 -0.1016 -0.2381
  128OSM    H7F13775   4.083   5.417   7.016 -1.7064  2.6929 -0.5755
  128OSM    H7G13776   4.035   5.266   7.112  0.0734 -0.2749 -0.4692
  128OSM    C8F13777   3.973   5.462   7.176  0.3161  0.5486 -0.2554
  128OSM    H8F13778   3.941   5.558   7.131 -0.2169  1.0757  1.1780
  128OSM    H8G13779   4.069   5.484   7.227 -0.8892  0.8297  2.0225
  128OSM    C9F13780   3.866   5.424   7.274  0.3266  0.4131 -0.5860
  128OSM    H9F13781   3.763   5.437   7.238  0.8258  0.6209 -1.9963
  128OSM   C10F13782   3.879   5.366   7.399 -0.0983  0.7181  0.3815
  128OSM   H10F13783   3.788   5.345   7.456 -0.4711 -0.5747 -0.6428
  128OSM   C11F13784   4.002   5.322   7.469 -0.3159  0.4509  0.5330
  128OSM   H11F13785   4.089   5.330   7.400 -1.3531 -1.8278 -1.1481
  128OSM   H11G13786   3.995   5.214   7.494  0.8151  0.0210 -0.8830
  128OSM   C12F13787   4.034   5.400   7.597  0.0847 -0.4853 -0.2057
  128OSM   H12F13788   4.034   5.504   7.559 -0.4423 -0.6253 -0.5996
  128OSM   H12G13789   4.138   5.374   7.626  0.5883 -0.2203 -1.6679
  128OSM   C13F13790   3.940   5.367   7.710  0.4417  0.1156 -0.3676
  128OSM   H13F13791   3.908   5.261   7.698  0.6802 -0.0691  0.5668
  128OSM   H13G13792   3.850   5.433   7.715  0.4089  0.2206 -1.8510
  128OSM   C14F13793   4.004   5.380   7.855 -0.1481 -0.3886  0.2110
  128OSM   H14F13794   4.090   5.310   7.863  0.4403  0.1944 -0.7614
  128OSM   H14G13795   3.924   5.326   7.910  0.0835 -1.0437 -0.0881
  128OSM   C15F13796   4.030   5.524   7.904 -0.3691 -0.3422  0.2374
  128OSM   H15F13797   3.934   5.570   7.874 -1.5430 -1.6316  1.8277
  128OSM   H15G13798   4.118   5.566   7.850  0.9168 -2.9580  0.1421
  128OSM   C16F13799   4.040   5.546   8.061 -0.1282 -0.1961 -0.2620
  128OSM   H16F13800   4.134   5.499   8.097  1.2582  1.3738 -1.6662
  128OSM   H16G13801   3.953   5.494   8.106 -0.5568  0.5534 -0.2030
  128OSM   C17F13802   4.039   5.696   8.100 -0.7334  0.2254 -0.3165
  128OSM   H17F13803   4.066   5.706   8.207 -1.0368 -2.5703  0.1147
  128OSM   H17G13804   3.936   5.734   8.086 -0.2441  2.1503  0.9141
  128OSM   C18F13805   4.146   5.779   8.029  0.2287 -0.4954  0.0039
  128OSM   H18F13806   4.179   5.864   8.093 -0.7825  1.0540 -1.4421
  128OSM   H18G13807   4.099   5.827   7.941 -1.7928  1.3590  1.9567
  128OSM   H18H13808   4.236   5.720   8.000  0.2036 -0.8392  0.6047
  129OSM      N13809   2.837   1.747   6.096 -0.5767 -0.6680 -0.4633
  129OSM    C1513810   2.972   1.816   6.098  0.3724 -0.9700  0.1903
  129OSM   H15A13811   3.024   1.825   6.004 -0.4993  2.8243 -0.0809
  129OSM   H15B13812   3.037   1.789   6.179  0.4337 -1.3578  0.0167
  129OSM   H15C13813   2.956   1.921   6.117 -0.2915 -1.1874  0.8834
  129OSM    C1413814   2.760   1.806   5.984  0.4058 -0.3117  0.2898
  129OSM   H14A13815   2.717   1.898   6.020  1.8825 -0.3979  2.5075
  129OSM   H14B13816   2.675   1.745   5.957 -0.6869  0.9050  0.8772
  129OSM   H14C13817   2.818   1.818   5.895  2.1543  0.3468  1.4678
  129OSM    C1313818   2.856   1.602   6.076 -0.3065  0.3495  0.1435
  129OSM   H13A13819   2.765   1.545   6.070  0.0968 -0.5289  1.7173
  129OSM   H13B13820   2.912   1.554   6.155 -1.0067 -3.5593 -1.5079
  129OSM   H13C13821   2.918   1.585   5.989  0.4831  1.7133  0.4000
  129OSM    C1213822   2.765   1.769   6.230  0.3881 -0.3603 -0.0684
  129OSM   H12A13823   2.773   1.872   6.260  1.7617 -0.6405  0.5782
  129OSM   H12B13824   2.820   1.714   6.305  1.3160  2.2391  1.2825
  129OSM    C1113825   2.618   1.728   6.251  0.3393 -0.6159 -0.0109
  129OSM   H11A13826   2.594   1.692   6.353 -1.0398  0.6474  0.1595
  129OSM   H11B13827   2.594   1.646   6.179 -0.7629 -1.3094  1.1205
  129OSM      P13828   2.542   1.972   6.310  0.1755  0.0548  0.3690
  129OSM    O1313829   2.675   2.033   6.312  0.2234 -0.1832 -0.6832
  129OSM    O1413830   2.427   2.053   6.264  0.0685  0.1655 -0.2097
  129OSM    O1113831   2.522   1.924   6.457  0.0940 -0.1468 -0.4005
  129OSM    O1213832   2.535   1.842   6.214 -0.4579  0.2778 -0.5328
  129OSM    C1S13833   2.428   1.992   6.542  0.3987  0.6972 -0.1788
  129OSM    H1S13834   2.328   1.955   6.512  0.8520 -1.3116  0.6369
  129OSM    H1T13835   2.444   2.102   6.538  0.5840  0.6232 -1.8197
  129OSM     NF13836   2.364   2.038   6.772 -1.1508  0.4707 -0.1673
  129OSM    HNF13837   2.380   2.135   6.787 -0.5468  0.0061  2.6262
  129OSM    C2S13838   2.456   1.953   6.691 -0.2226 -0.5885  0.0766
  129OSM    H2S13839   2.431   1.846   6.710 -0.6702 -0.7515 -1.3284
  129OSM    C3S13840   2.616   1.977   6.713  0.6925 -0.2578  0.1735
  129OSM    H3S13841   2.634   2.076   6.667  0.0975 -1.0020 -1.7926
  129OSM     O313842   2.705   1.884   6.653 -0.0625 -0.1972  0.3930
  129OSM    HO313843   2.657   1.839   6.583  0.6021  3.7013 -2.9170
  129OSM    C4S13844   2.652   1.972   6.860  0.3799 -0.4496 -0.2083
  129OSM    H4S13845   2.647   1.871   6.904  1.0847 -0.4137 -0.0289
  129OSM    C5S13846   2.697   2.075   6.937 -0.0457 -0.2737 -0.1659
  129OSM    H5S13847   2.733   2.169   6.892  0.8638 -1.0895 -1.1811
  129OSM    C6S13848   2.729   2.077   7.082 -0.5463  0.0938  0.0845
  129OSM    H6S13849   2.682   1.992   7.136  1.3333 -1.5041 -0.6765
  129OSM    H6T13850   2.684   2.172   7.119 -0.8380  1.3919 -3.3150
  129OSM    C7S13851   2.884   2.085   7.105 -0.2809  0.2691  0.3950
  129OSM    H7S13852   2.903   2.190   7.074 -1.1705  0.9633  2.0877
  129OSM    H7T13853   2.940   2.018   7.035  0.0257  1.1442 -0.2136
  129OSM    C8S13854   2.936   2.063   7.250  0.4046 -0.0048  0.0142
  129OSM    H8S13855   3.036   2.018   7.230  1.4141  1.6209  1.1313
  129OSM    H8T13856   2.880   1.983   7.303  1.6844 -0.6515  0.4402
  129OSM    C9S13857   2.937   2.181   7.346  0.4310  0.4169  0.4780
  129OSM    H9S13858   2.829   2.205   7.360  0.4176 -0.8408  3.4004
  129OSM    H9T13859   2.991   2.269   7.305 -0.2725  0.6406  0.0184
  129OSM   C10S13860   2.987   2.146   7.487 -1.0281 -0.2252  0.1388
  129OSM   H10S13861   3.033   2.234   7.536  0.5630  0.0492 -1.7222
  129OSM   H10T13862   3.061   2.063   7.481  1.1570  1.7137 -1.1699
  129OSM   C11S13863   2.866   2.105   7.577  0.1543 -0.5975 -1.0002
  129OSM   H11S13864   2.816   2.017   7.534  1.1241 -1.2148 -0.8981
  129OSM   H11T13865   2.789   2.185   7.566 -0.1236 -0.6925  0.1317
  129OSM   C12S13866   2.895   2.077   7.729 -0.4840  0.7897  0.5008
  129OSM   H12S13867   2.987   2.015   7.736 -0.8546  0.1889  0.2053
  129OSM   H12T13868   2.812   2.018   7.774 -0.1374  0.8097  1.1855
  129OSM   C13S13869   2.893   2.210   7.808  0.0976  0.3503 -0.4764
  129OSM   H13S13870   2.788   2.247   7.808  0.0077  0.1243  0.7111
  129OSM   H13T13871   2.945   2.291   7.754 -0.9000  1.6568  0.4596
  129OSM   C14S13872   2.931   2.188   7.951 -0.2371  0.3801 -0.1184
  129OSM   H14S13873   3.040   2.191   7.973 -0.1187 -0.9095 -0.4379
  129OSM   H14T13874   2.898   2.092   7.996 -0.5742  0.4254 -0.2648
  129OSM   C15S13875   2.884   2.307   8.037 -0.5220 -0.8178 -0.7488
  129OSM   H15S13876   2.777   2.332   8.021  0.3145  2.6177 -1.7915
  129OSM   H15T13877   2.946   2.394   8.006  0.4333 -1.4732 -0.7301
  129OSM   C16S13878   2.908   2.275   8.186  0.5300 -0.2113  0.7765
  129OSM   H16S13879   3.012   2.254   8.219  0.0619 -0.7581  1.9451
  129OSM   H16T13880   2.848   2.182   8.199  0.2656 -0.5627 -2.1515
  129OSM   C17S13881   2.861   2.382   8.278  0.0265  0.4199  0.6958
  129OSM   H17S13882   2.751   2.386   8.268  0.1406  1.3364 -0.4272
  129OSM   H17T13883   2.888   2.477   8.227 -0.8840 -0.1858 -0.9974
  129OSM   C18S13884   2.902   2.376   8.424  0.0718  0.6989  0.1955
  129OSM   H18S13885   2.858   2.290   8.478 -0.0925  0.1694 -0.7681
  129OSM   H18T13886   2.850   2.461   8.474 -0.7078 -0.2817  1.0823
  129OSM   H18U13887   3.013   2.380   8.434 -0.0046  0.9778  1.0394
  129OSM    C1F13888   2.241   1.992   6.810 -0.2646 -0.0028  1.1389
  129OSM     OF13889   2.194   1.884   6.775  0.0667  0.3496  0.5332
  129OSM    C2F13890   2.152   2.087   6.891 -0.1441 -0.1769 -0.3690
  129OSM    H2F13891   2.068   2.030   6.934 -1.8537  1.7038 -1.0480
  129OSM    H2G13892   2.104   2.151   6.813 -2.1857 -1.1359  0.0457
  129OSM    C3F13893   2.229   2.172   6.997 -0.6353 -0.0608 -0.4393
  129OSM    H3F13894   2.149   2.221   7.057  0.5432  0.2363  0.9328
  129OSM    H3G13895   2.271   2.249   6.930 -1.5160 -0.4288 -1.4378
  129OSM    C4F13896   2.312   2.091   7.098  0.4663 -0.0666 -0.5540
  129OSM    H4F13897   2.348   2.157   7.180  0.4100 -1.6685  0.8118
  129OSM    H4G13898   2.406   2.045   7.061  1.3586  0.1912  1.2534
  129OSM    C5F13899   2.238   1.981   7.172  0.3989  0.1267  0.6812
  129OSM    H5F13900   2.207   1.908   7.094  1.2312  2.5061 -2.0443
  129OSM    H5G13901   2.154   2.031   7.225 -0.0345  1.2729 -1.0326
  129OSM    C6F13902   2.337   1.917   7.273  0.7230  0.8312  0.2278
  129OSM    H6F13903   2.425   1.985   7.276  1.7885 -0.4823 -0.0065
  129OSM    H6G13904   2.376   1.823   7.228 -1.9268 -0.5335  0.5884
  129OSM    C7F13905   2.270   1.905   7.415  0.3255 -0.1923 -0.4272
  129OSM    H7F13906   2.187   1.834   7.397 -0.5699  0.8094 -0.2963
  129OSM    H7G13907   2.223   2.003   7.436 -0.3836  0.4113 -4.2445
  129OSM    C8F13908   2.348   1.852   7.538  0.4146  0.3209  0.0545
  129OSM    H8F13909   2.396   1.765   7.487 -0.4728  2.0141 -4.0152
  129OSM    H8G13910   2.283   1.810   7.618  2.9826 -0.7047  1.7233
  129OSM    C9F13911   2.451   1.944   7.596  0.5610 -0.4467  0.3801
  129OSM    H9F13912   2.522   2.000   7.533  1.5368  0.0261  1.8258
  129OSM   C10F13913   2.462   1.973   7.729 -0.0486 -1.2001  0.1465
  129OSM   H10F13914   2.538   2.042   7.766 -0.8832  1.7257 -3.0989
  129OSM   C11F13915   2.379   1.910   7.835 -0.1397  0.3284 -0.0344
  129OSM   H11F13916   2.302   1.837   7.803  2.4346 -2.0441 -1.1520
  129OSM   H11G13917   2.321   1.998   7.872  0.2973  1.5305 -1.9859
  129OSM   C12F13918   2.443   1.844   7.956 -0.2172  0.9572 -0.1996
  129OSM   H12F13919   2.472   1.742   7.921 -0.6296  0.9547 -0.5454
  129OSM   H12G13920   2.369   1.820   8.035 -1.7559 -2.2093 -2.3704
  129OSM   C13F13921   2.564   1.910   8.025  0.2335 -0.0745  0.2594
  129OSM   H13F13922   2.546   2.018   8.040 -1.9342 -0.7159  3.0086
  129OSM   H13G13923   2.653   1.899   7.959 -0.5375  0.8332 -0.9880
  129OSM   C14F13924   2.585   1.846   8.158  0.0415 -0.4518 -0.7675
  129OSM   H14F13925   2.617   1.739   8.156  1.5367 -0.0648  0.2944
  129OSM   H14G13926   2.498   1.857   8.227 -0.5009 -2.2524 -1.1047
  129OSM   C15F13927   2.706   1.926   8.228 -0.0645 -0.6884 -0.2931
  129OSM   H15F13928   2.687   2.031   8.197 -0.4055 -0.4070  0.8003
  129OSM   H15G13929   2.802   1.879   8.199  0.9817  0.3876  1.2358
  129OSM   C16F13930   2.698   1.918   8.378 -0.0913  0.2245 -1.7683
  129OSM   H16F13931   2.602   1.955   8.419  1.0479 -0.2060  1.6068
  129OSM   H16G13932   2.776   1.985   8.420 -1.4519 -0.2657  1.9718
  129OSM   C17F13933   2.719   1.776   8.438 -0.8798 -0.2471 -0.5251
  129OSM   H17F13934   2.814   1.741   8.392 -1.2876 -0.0910 -1.5197
  129OSM   H17G13935   2.643   1.710   8.391 -1.1143  0.8504 -1.7697
  129OSM   C18F13936   2.745   1.775   8.586  0.0345  0.1249  0.2955
  129OSM   H18F13937   2.826   1.849   8.606  1.1016 -0.9434  0.0771
  129OSM   H18G13938   2.776   1.677   8.626 -0.8304 -0.1361  0.3390
  129OSM   H18H13939   2.652   1.805   8.638 -0.5381 -2.1673  0.6763
  130OSM      N13940   5.424   4.027   5.813  0.5959  0.7154 -0.1831
  130OSM    C1513941   5.314   4.125   5.813 -0.3007 -0.2493  0.1410
  130OSM   H15A13942   5.280   4.149   5.713  1.4278  2.0787  0.0351
  130OSM   H15B13943   5.361   4.210   5.859  0.3645  1.1907 -2.8980
  130OSM   H15C13944   5.237   4.093   5.881 -0.4084  1.9729  1.1433
  130OSM    C1413945   5.383   3.887   5.760  0.6523 -0.1228  0.7406
  130OSM   H14A13946   5.355   3.898   5.656 -1.1489 -1.6304  1.0309
  130OSM   H14B13947   5.298   3.856   5.817 -0.1236  1.8430  0.7237
  130OSM   H14C13948   5.456   3.808   5.766  0.1089 -1.1670 -3.3194
  130OSM    C1313949   5.527   4.079   5.718  0.5003  0.6977 -0.5816
  130OSM   H13A13950   5.615   4.017   5.717  0.1404  0.1539  0.2712
  130OSM   H13B13951   5.541   4.183   5.743 -0.9054  0.6339  0.6311
  130OSM   H13C13952   5.493   4.090   5.616  2.2461  1.5801 -1.0972
  130OSM    C1213953   5.479   4.009   5.950 -0.4659  0.7749  0.6917
  130OSM   H12A13954   5.572   3.957   5.939 -1.0300 -0.4300  1.4631
  130OSM   H12B13955   5.420   3.937   6.005 -1.0513  0.8348  0.1583
  130OSM    C1113956   5.513   4.121   6.049  0.1009 -0.6604 -0.0674
  130OSM   H11A13957   5.559   4.070   6.137  0.6165 -1.3768 -0.7363
  130OSM   H11B13958   5.411   4.161   6.067 -0.5498 -2.5102  0.6321
  130OSM      P13959   5.755   4.196   5.967  0.3082 -0.2865  0.1538
  130OSM    O1313960   5.797   4.050   5.979 -0.5633 -0.2108 -0.0259
  130OSM    O1413961   5.791   4.261   5.839 -0.1814 -0.1794 -0.7443
  130OSM    O1113962   5.817   4.278   6.081  0.1615 -0.2210  0.0343
  130OSM    O1213963   5.595   4.215   5.990  0.2050 -0.3060  0.2308
  130OSM    C1S13964   5.755   4.387   6.153 -0.1488  0.1802 -0.6663
  130OSM    H1S13965   5.645   4.389   6.140 -0.3399 -3.3083 -0.2851
  130OSM    H1T13966   5.803   4.481   6.117 -1.5252  0.8215 -0.8927
  130OSM     NF13967   5.718   4.478   6.366 -0.1497 -0.2018  0.1363
  130OSM    HNF13968   5.759   4.569   6.373 -1.6054  0.4914 -0.0073
  130OSM    C2S13969   5.789   4.370   6.305  0.1743  0.3900  0.9418
  130OSM    H2S13970   5.748   4.270   6.332 -1.0681 -1.0855 -4.9973
  130OSM    C3S13971   5.947   4.360   6.332 -0.1096  0.4269 -0.8439
  130OSM    H3S13972   5.994   4.453   6.294 -0.4025  1.1225  0.4422
  130OSM     O313973   6.024   4.256   6.268  0.4354  0.2872 -0.2807
  130OSM    HO313974   5.980   4.242   6.184 -1.7314  1.9342  0.4780
  130OSM    C4S13975   5.969   4.345   6.484 -0.3643 -0.2712 -0.1853
  130OSM    H4S13976   5.898   4.277   6.533 -0.6047 -1.6428 -2.2914
  130OSM    C5S13977   6.079   4.384   6.556  0.8574 -0.5436 -0.3048
  130OSM    H5S13978   6.159   4.444   6.511  0.4279  0.5105  0.2965
  130OSM    C6S13979   6.096   4.381   6.703  0.3688 -0.2376 -0.1034
  130OSM    H6S13980   6.184   4.442   6.734 -1.0560  0.7516  2.2784
  130OSM    H6T13981   6.147   4.285   6.729 -0.9951 -0.6324  1.3012
  130OSM    C7S13982   5.973   4.396   6.796  0.0355 -0.4888  0.4580
  130OSM    H7S13983   5.905   4.308   6.794 -1.1764  0.4256 -1.6920
  130OSM    H7T13984   5.914   4.479   6.752 -0.2323 -1.7701 -1.7119
  130OSM    C8S13985   6.012   4.411   6.949 -0.4995 -0.2900 -0.0908
  130OSM    H8S13986   6.062   4.506   6.975  2.2917 -1.7263  0.1780
  130OSM    H8T13987   6.087   4.330   6.963  0.0377  0.1779 -0.2599
  130OSM    C9S13988   5.898   4.389   7.046 -0.4922  0.5052  0.3100
  130OSM    H9S13989   5.884   4.279   7.055  1.7177  0.2428  1.1651
  130OSM    H9T13990   5.798   4.425   7.013 -0.7010 -0.6934 -0.4346
  130OSM   C10S13991   5.923   4.473   7.168  0.1893  0.4231 -0.6028
  130OSM   H10S13992   5.934   4.578   7.132 -0.1543  0.3789 -0.8368
  130OSM   H10T13993   6.023   4.444   7.209 -0.0778  0.3578  0.0074
  130OSM   C11S13994   5.805   4.476   7.267  0.4161 -0.2218  0.8566
  130OSM   H11S13995   5.792   4.371   7.301 -0.1282 -0.0112  1.3147
  130OSM   H11T13996   5.708   4.506   7.221 -0.3151 -2.9954  0.4415
  130OSM   C12S13997   5.830   4.562   7.390  0.4794  0.3736  0.3371
  130OSM   H12S13998   5.745   4.568   7.461  1.1126 -1.5221  1.3073
  130OSM   H12T13999   5.860   4.664   7.357 -1.9600  1.0577  0.0612
  130OSM   C13S14000   5.942   4.489   7.475 -0.2574 -0.1766  0.1519
  130OSM   H13S14001   6.041   4.471   7.429 -1.4275 -2.0474 -1.8873
  130OSM   H13T14002   5.916   4.382   7.493  0.2988 -0.4681 -0.7100
  130OSM   C14S14003   5.961   4.563   7.605 -0.2396  0.0142  0.4469
  130OSM   H14S14004   5.880   4.557   7.681 -0.9274  2.2698 -0.0259
  130OSM   H14T14005   5.970   4.669   7.571 -1.6485 -0.6935 -2.4498
  130OSM   C15S14006   6.094   4.524   7.670 -0.0995 -0.1003  0.4351
  130OSM   H15S14007   6.133   4.591   7.750  0.0167  0.0544  0.2509
  130OSM   H15T14008   6.176   4.535   7.595  1.3735 -1.4136  1.7611
  130OSM   C16S14009   6.088   4.389   7.750 -0.5636 -0.5343 -0.0906
  130OSM   H16S14010   6.075   4.305   7.679  1.4073 -2.6546  1.8974
  130OSM   H16T14011   6.001   4.391   7.819 -1.8727 -2.4472 -1.5706
  130OSM   C17S14012   6.220   4.357   7.829  0.4261  0.0271  0.2815
  130OSM   H17S14013   6.201   4.261   7.881  2.0836 -1.2905 -1.3952
  130OSM   H17T14014   6.237   4.436   7.906 -0.9071  1.2849 -0.6602
  130OSM   C18S14015   6.348   4.348   7.737 -0.0305 -0.0439  0.2715
  130OSM   H18S14016   6.385   4.447   7.703  1.3650  0.3230  2.6702
  130OSM   H18T14017   6.322   4.302   7.639  0.1623 -2.3606  1.2478
  130OSM   H18U14018   6.435   4.296   7.782  1.7095  2.0112 -0.5477
  130OSM    C1F14019   5.591   4.468   6.392 -0.6204 -0.2427 -0.0834
  130OSM     OF14020   5.545   4.357   6.401  0.2054 -1.3193  0.2731
  130OSM    C2F14021   5.512   4.597   6.416 -0.3509  1.1686  0.0337
  130OSM    H2F14022   5.433   4.608   6.339  0.9539  1.4044 -1.3138
  130OSM    H2G14023   5.594   4.671   6.420  1.1773 -0.4757  0.0681
  130OSM    C3F14024   5.434   4.592   6.551  0.5962 -0.6395  0.1697
  130OSM    H3F14025   5.378   4.497   6.565 -2.2370  0.9935  0.7999
  130OSM    H3G14026   5.354   4.669   6.540  1.5502  0.4578  0.7447
  130OSM    C4F14027   5.510   4.611   6.684  0.0084 -0.0267 -0.1196
  130OSM    H4F14028   5.578   4.524   6.686  0.8991  0.5380 -2.5129
  130OSM    H4G14029   5.442   4.597   6.771 -0.3437  1.0406 -0.2106
  130OSM    C5F14030   5.576   4.748   6.698 -0.5194  0.1655 -0.2856
  130OSM    H5F14031   5.498   4.824   6.718  0.0561  0.9947 -1.0963
  130OSM    H5G14032   5.632   4.768   6.604 -0.8167  1.0591 -0.2790
  130OSM    C6F14033   5.676   4.745   6.819 -0.0052 -0.5059 -0.6431
  130OSM    H6F14034   5.728   4.844   6.816 -1.7229  0.4753  0.2919
  130OSM    H6G14035   5.751   4.663   6.808  0.2611 -0.4372  0.4963
  130OSM    C7F14036   5.613   4.736   6.954 -1.0694 -0.4672 -0.5580
  130OSM    H7F14037   5.569   4.635   6.968 -0.3329 -0.5619  1.2314
  130OSM    H7G14038   5.524   4.802   6.946  0.2595  1.5806  0.6210
  130OSM    C8F14039   5.699   4.761   7.082  0.0111 -0.3341  0.2661
  130OSM    H8F14040   5.782   4.692   7.057 -1.6572 -1.9539 -1.1816
  130OSM    H8G14041   5.661   4.710   7.173 -1.5158  0.0386 -0.1383
  130OSM    C9F14042   5.751   4.898   7.109  0.2967  0.0603 -0.1486
  130OSM    H9F14043   5.795   4.951   7.024 -0.6842 -0.4800 -1.0119
  130OSM   C10F14044   5.738   4.965   7.225 -0.2364  0.6788  0.1516
  130OSM   H10F14045   5.786   5.065   7.223 -0.1845  0.6508 -0.1325
  130OSM   C11F14046   5.682   4.916   7.360  0.4244  0.3666 -0.4118
  130OSM   H11F14047   5.654   4.809   7.362  1.3201  0.1090 -0.8850
  130OSM   H11G14048   5.603   4.987   7.393  0.4539 -0.6786  2.1784
  130OSM   C12F14049   5.791   4.930   7.462  0.1692  0.2068  0.5824
  130OSM   H12F14050   5.848   5.025   7.463 -1.4934  1.3176 -1.2865
  130OSM   H12G14051   5.869   4.856   7.434 -1.3270 -0.2472 -2.9740
  130OSM   C13F14052   5.738   4.919   7.611 -0.6691  0.8218 -0.2033
  130OSM   H13F14053   5.677   4.827   7.626  1.1835 -0.4936 -0.4500
  130OSM   H13G14054   5.664   4.998   7.635  0.5281  1.8755  0.1406
  130OSM   C14F14055   5.852   4.912   7.711 -0.6088 -0.3405 -0.2395
  130OSM   H14F14056   5.901   5.012   7.716 -0.5571 -0.3864  0.1747
  130OSM   H14G14057   5.918   4.827   7.685 -1.5113 -0.7682 -1.2183
  130OSM   C15F14058   5.790   4.898   7.846  0.2177 -0.2854 -0.2947
  130OSM   H15F14059   5.742   4.798   7.855  0.5469 -0.4621 -0.4672
  130OSM   H15G14060   5.705   4.968   7.859  0.2487 -0.3605  0.3192
  130OSM   C16F14061   5.881   4.919   7.970  0.2071  0.4843  0.4527
  130OSM   H16F14062   5.828   4.921   8.068 -1.3267  3.1800 -0.3411
  130OSM   H16G14063   5.950   5.006   7.970  0.8851 -0.0376  0.0852
  130OSM   C17F14064   5.980   4.799   7.987  0.0560 -0.5367 -0.2222
  130OSM   H17F14065   6.037   4.799   7.891 -2.8000  0.0447 -2.0630
  130OSM   H17G14066   5.932   4.699   7.983  0.1210 -0.6573  1.5621
  130OSM   C18F14067   6.076   4.805   8.110  0.3901  0.7175 -0.5003
  130OSM   H18F14068   6.104   4.911   8.129 -0.3444  1.1287 -1.5736
  130OSM   H18G14069   6.165   4.739   8.105  0.0233  0.2746 -1.8799
  130OSM   H18H14070   6.020   4.766   8.197  1.4752 -1.4398 -0.7103
  131OSM      N14071   1.864   0.107   6.047  0.3063  0.2131  0.4637
  131OSM    C1514072   1.848  -0.028   6.100  0.1092  0.1605 -0.0237
  131OSM   H15A14073   1.948  -0.067   6.091 -0.3618 -1.0610 -0.2639
  131OSM   H15B14074   1.793  -0.095   6.035  0.3415  2.3599 -2.6645
  131OSM   H15C14075   1.808  -0.027   6.200  0.7749 -1.6061  0.2921
  131OSM    C1414076   1.929   0.097   5.911 -0.0089 -0.3963  0.0977
  131OSM   H14A14077   1.939   0.193   5.862  2.1020 -1.2473 -1.2935
  131OSM   H14B14078   1.866   0.046   5.839  0.3627  0.3474 -0.7847
  131OSM   H14C14079   2.032   0.064   5.916  0.0403 -0.1104  0.9738
  131OSM    C1314080   1.737   0.166   6.010  0.0196  0.1578 -0.7801
  131OSM   H13A14081   1.726   0.273   6.016 -0.4678  0.2025 -2.2259
  131OSM   H13B14082   1.658   0.134   6.077 -0.1408  0.2762 -0.9125
  131OSM   H13C14083   1.704   0.137   5.912  1.9485 -0.5854 -1.2421
  131OSM    C1214084   1.948   0.192   6.130  0.4765 -0.2462 -0.3587
  131OSM   H12A14085   1.884   0.221   6.212 -1.0698 -0.2932 -1.5195
  131OSM   H12B14086   1.980   0.277   6.070  0.7456 -1.5047 -2.0809
  131OSM    C1114087   2.076   0.136   6.193  0.8249  0.1330  0.0301
  131OSM   H11A14088   2.052   0.047   6.255  1.3950 -0.8671 -1.1266
  131OSM   H11B14089   2.108   0.206   6.272 -0.1694 -1.1620  1.6505
  131OSM      P14090   2.242  -0.020   6.060 -0.0769  0.3982  0.1671
  131OSM    O1314091   2.125  -0.109   6.025 -0.2954 -0.4631  0.4314
  131OSM    O1414092   2.343  -0.002   5.953 -0.1925  1.0585  0.1488
  131OSM    O1114093   2.304  -0.080   6.200 -0.2534  0.3059  0.1441
  131OSM    O1214094   2.179   0.118   6.097 -0.1519 -0.2748  0.4795
  131OSM    C1S14095   2.372   0.015   6.281 -0.1269  0.1588 -0.8756
  131OSM    H1S14096   2.362   0.122   6.254  1.6682  1.1634  1.9788
  131OSM    H1T14097   2.481  -0.001   6.263  0.0120  1.9354 -1.8484
  131OSM     NF14098   2.436   0.067   6.514 -0.2450 -0.6131  0.0760
  131OSM    HNF14099   2.522   0.025   6.545  0.1969  1.8100  2.4697
  131OSM    C2S14100   2.344  -0.017   6.439 -0.0531 -0.7719 -0.2587
  131OSM    H2S14101   2.241   0.021   6.459 -0.1885 -1.7346  1.0225
  131OSM    C3S14102   2.358  -0.170   6.456 -0.1096  0.6698 -0.5051
  131OSM    H3S14103   2.451  -0.212   6.412  0.2551 -0.2064  1.0472
  131OSM     O314104   2.260  -0.251   6.388  0.7705  0.0115 -0.1454
  131OSM    HO314105   2.245  -0.194   6.312 -0.8738 -2.3432 -1.7037
  131OSM    C4S14106   2.358  -0.214   6.601 -0.3926 -0.0777  0.1290
  131OSM    H4S14107   2.253  -0.222   6.632  0.2821  0.8545  2.9738
  131OSM    C5S14108   2.461  -0.253   6.685  0.0686  0.3609 -0.1327
  131OSM    H5S14109   2.564  -0.250   6.649  0.4389 -1.5955  0.6783
  131OSM    C6S14110   2.438  -0.298   6.828 -0.1230  0.5222 -0.0051
  131OSM    H6S14111   2.450  -0.407   6.838  0.5056  0.6841  1.1465
  131OSM    H6T14112   2.331  -0.286   6.857 -0.1889 -2.1029  1.0246
  131OSM    C7S14113   2.528  -0.227   6.933  0.7552  0.0059  0.4391
  131OSM    H7S14114   2.499  -0.120   6.928 -1.0192 -0.4205  0.8764
  131OSM    H7T14115   2.635  -0.229   6.904  0.2582 -1.3008 -1.5259
  131OSM    C8S14116   2.501  -0.271   7.073  0.7594  0.3795  0.1785
  131OSM    H8S14117   2.503  -0.382   7.081  1.8317  0.5216  2.8941
  131OSM    H8T14118   2.394  -0.251   7.097  1.4314  1.3418  2.7063
  131OSM    C9S14119   2.570  -0.195   7.177  0.4107  0.0859 -0.2295
  131OSM    H9S14120   2.553  -0.086   7.169  1.0428  0.4868  2.7048
  131OSM    H9T14121   2.680  -0.199   7.163  0.1634  1.7057 -3.3837
  131OSM   C10S14122   2.532  -0.245   7.307  0.3601  0.1968  0.3088
  131OSM   H10S14123   2.579  -0.345   7.299  1.9468  1.0727 -2.8479
  131OSM   H10T14124   2.422  -0.251   7.321  0.4919 -2.6912  0.5357
  131OSM   C11S14125   2.604  -0.161   7.412 -0.5271  0.2858  0.2061
  131OSM   H11S14126   2.589  -0.051   7.404  1.1535  0.5362  0.2222
  131OSM   H11T14127   2.714  -0.175   7.407 -0.7035 -0.6623 -1.8041
  131OSM   C12S14128   2.556  -0.189   7.558 -0.0142 -0.5280 -0.1696
  131OSM   H12S14129   2.609  -0.280   7.590 -0.9793 -1.0876 -0.1160
  131OSM   H12T14130   2.445  -0.196   7.565 -0.0431 -0.7498 -0.7861
  131OSM   C13S14131   2.595  -0.073   7.663 -0.1819  0.3815  0.2611
  131OSM   H13S14132   2.560   0.022   7.619 -2.1957 -0.3541  0.2047
  131OSM   H13T14133   2.706  -0.071   7.667 -0.1172  0.5101 -1.1988
  131OSM   C14S14134   2.546  -0.103   7.805  0.1038 -0.5701  0.0753
  131OSM   H14S14135   2.522  -0.210   7.824  1.2034 -0.7325  0.6402
  131OSM   H14T14136   2.456  -0.040   7.821 -0.3990 -1.7305  2.2396
  131OSM   C15S14137   2.653  -0.062   7.916 -0.1355  0.3032 -0.1584
  131OSM   H15S14138   2.709   0.031   7.894 -0.7188  0.9742  1.0508
  131OSM   H15T14139   2.724  -0.147   7.923  0.0831  0.5807  1.1525
  131OSM   C16S14140   2.576  -0.056   8.050  0.1519 -0.0370  0.0351
  131OSM   H16S14141   2.510  -0.145   8.058 -0.6648  0.6510  1.5419
  131OSM   H16T14142   2.506   0.031   8.046  0.1691 -0.0435 -0.4801
  131OSM   C17S14143   2.663  -0.032   8.173  0.0229  0.1619  0.6489
  131OSM   H17S14144   2.728   0.058   8.169  0.8196 -0.4363 -0.2772
  131OSM   H17T14145   2.732  -0.119   8.178 -0.7770 -0.4520  1.5986
  131OSM   C18S14146   2.575  -0.050   8.299 -0.5198 -0.1001 -0.4500
  131OSM   H18S14147   2.638  -0.025   8.387 -1.6925 -0.5237  0.5386
  131OSM   H18T14148   2.529  -0.151   8.311  0.2311 -0.4312 -0.3353
  131OSM   H18U14149   2.490   0.022   8.301 -0.3970  0.1038 -1.5555
  131OSM    C1F14150   2.421   0.197   6.525  0.6952  0.1666  0.7827
  131OSM     OF14151   2.303   0.241   6.523 -0.1549 -0.3964 -0.0346
  131OSM    C2F14152   2.543   0.276   6.536  0.2552  0.2585 -0.1975
  131OSM    H2F14153   2.530   0.354   6.457  0.0357 -0.4702 -0.8923
  131OSM    H2G14154   2.637   0.223   6.512  0.5220  0.6667 -0.0769
  131OSM    C3F14155   2.547   0.342   6.672  0.3411 -0.2367 -0.6097
  131OSM    H3F14156   2.531   0.263   6.749 -0.4381  1.5220  1.1247
  131OSM    H3G14157   2.473   0.421   6.698  0.4075 -0.4993  0.4001
  131OSM    C4F14158   2.689   0.399   6.696 -0.2128  0.1774 -0.0033
  131OSM    H4F14159   2.723   0.465   6.614  2.7207  0.2688  1.1947
  131OSM    H4G14160   2.760   0.315   6.706 -3.4885 -2.6792  1.4275
  131OSM    C5F14161   2.683   0.485   6.825 -0.4132 -0.5871 -0.4991
  131OSM    H5F14162   2.593   0.550   6.823  0.4871  0.7214 -0.2624
  131OSM    H5G14163   2.764   0.561   6.825  0.2057 -1.1580  2.1383
  131OSM    C6F14164   2.694   0.403   6.955  0.4818  0.3770 -0.6556
  131OSM    H6F14165   2.801   0.392   6.985  0.0736  0.8219  1.0723
  131OSM    H6G14166   2.661   0.299   6.936  0.6246  0.1547  0.2952
  131OSM    C7F14167   2.602   0.465   7.063 -0.0894 -0.4218  0.1029
  131OSM    H7F14168   2.492   0.451   7.049  0.3047 -3.5247 -0.5653
  131OSM    H7G14169   2.626   0.574   7.058 -1.2373 -0.2125 -2.8806
  131OSM    C8F14170   2.639   0.416   7.205  0.0618 -0.7935  0.0762
  131OSM    H8F14171   2.747   0.432   7.223 -0.0281  1.2968 -0.8652
  131OSM    H8G14172   2.631   0.306   7.196  3.0572 -0.9608 -1.8690
  131OSM    C9F14173   2.552   0.489   7.305 -0.2796  0.0965  0.0390
  131OSM    H9F14174   2.457   0.537   7.276 -0.5746 -0.3567  0.2356
  131OSM   C10F14175   2.579   0.510   7.433  0.6956 -0.2240 -0.4161
  131OSM   H10F14176   2.500   0.556   7.494  0.2375 -1.9378  0.3454
  131OSM   C11F14177   2.695   0.448   7.510 -0.0391 -0.0927  0.3792
  131OSM   H11F14178   2.740   0.531   7.568  0.0559  1.4372 -1.7497
  131OSM   H11G14179   2.772   0.412   7.439  0.8367  0.0849  1.2134
  131OSM   C12F14180   2.673   0.335   7.606 -0.8879  0.4703 -0.4180
  131OSM   H12F14181   2.773   0.299   7.639 -0.9153  0.6011 -0.1930
  131OSM   H12G14182   2.622   0.243   7.570 -3.3254  0.6358  2.3267
  131OSM   C13F14183   2.600   0.373   7.736  0.7952  0.0390 -0.3482
  131OSM   H13F14184   2.490   0.369   7.721  0.4527 -0.8547  2.0201
  131OSM   H13G14185   2.634   0.474   7.766 -0.5147 -0.4708  3.3876
  131OSM   C14F14186   2.611   0.267   7.853  0.3211 -0.9991 -0.9228
  131OSM   H14F14187   2.715   0.255   7.890  0.5250  1.2978 -0.6195
  131OSM   H14G14188   2.554   0.179   7.816 -2.3460  0.5252 -0.7411
  131OSM   C15F14189   2.526   0.325   7.974 -0.0629  0.5221 -0.2485
  131OSM   H15F14190   2.549   0.433   7.983  3.4236 -0.0815 -0.4155
  131OSM   H15G14191   2.560   0.280   8.069  1.6746 -0.1264 -1.1310
  131OSM   C16F14192   2.373   0.304   7.959 -0.3211  0.4411 -0.4351
  131OSM   H16F14193   2.348   0.197   7.941 -0.4747 -0.0841  2.4215
  131OSM   H16G14194   2.339   0.346   7.862 -0.8434 -0.4097 -0.6349
  131OSM   C17F14195   2.294   0.355   8.084 -0.5009  0.0061  0.4211
  131OSM   H17F14196   2.329   0.459   8.102  0.7174 -0.2660 -0.2388
  131OSM   H17G14197   2.320   0.293   8.172 -1.0042  1.0905  1.3606
  131OSM   C18F14198   2.138   0.347   8.064  0.1296 -0.2044 -0.6450
  131OSM   H18F14199   2.099   0.243   8.062 -2.3723  0.6694 -0.6732
  131OSM   H18G14200   2.110   0.383   7.963 -0.4223 -0.1610 -0.4796
  131OSM   H18H14201   2.083   0.390   8.151 -0.6067 -0.1255 -1.1414
  132OSM      N14202   3.885   2.053   6.130 -0.0031  0.1989 -0.4328
  132OSM    C1514203   3.795   1.958   6.051  0.2817  0.5614 -0.4281
  132OSM   H15A14204   3.776   1.864   6.099  1.5960  1.5707  2.3054
  132OSM   H15B14205   3.847   1.926   5.962 -0.1885 -0.4632 -0.3398
  132OSM   H15C14206   3.710   2.013   6.014  2.1489  2.7484 -1.8476
  132OSM    C1414207   3.915   2.165   6.036 -0.6946 -0.8650  0.5281
  132OSM   H14A14208   3.957   2.139   5.941  1.8500  1.7025  0.8180
  132OSM   H14B14209   3.996   2.217   6.085 -0.2940 -1.0815  0.0965
  132OSM   H14C14210   3.832   2.231   6.014  0.7005  0.9310  0.4250
  132OSM    C1314211   3.798   2.100   6.245 -0.0044 -0.0663 -0.3134
  132OSM   H13A14212   3.713   2.156   6.207  0.7504  0.9667 -0.5083
  132OSM   H13B14213   3.851   2.166   6.311 -1.1870 -1.2924  1.9752
  132OSM   H13C14214   3.753   2.020   6.303  1.5413 -0.9162 -0.2332
  132OSM    C1214215   4.008   1.980   6.173 -0.0598  0.2715  0.9565
  132OSM   H12A14216   4.063   1.949   6.086  0.6993 -0.1081  1.5641
  132OSM   H12B14217   3.991   1.890   6.231 -1.7086 -1.3727 -1.8246
  132OSM    C1114218   4.118   2.054   6.255 -0.0730 -0.1862 -0.0120
  132OSM   H11A14219   4.201   1.981   6.268 -1.5036 -1.5993  1.7181
  132OSM   H11B14220   4.071   2.071   6.354  0.9550  0.3529  0.4072
  132OSM      P14221   4.175   2.310   6.265  0.1598  0.1541  0.0278
  132OSM    O1314222   4.234   2.408   6.179  0.4867 -0.5559  0.6163
  132OSM    O1414223   4.047   2.344   6.334 -0.0073  0.2578  0.2083
  132OSM    O1114224   4.286   2.274   6.369 -0.4202  0.3585 -0.4349
  132OSM    O1214225   4.156   2.180   6.188  0.1066 -0.2660  0.1154
  132OSM    C1S14226   4.257   2.295   6.508 -0.0721 -0.1207 -0.0720
  132OSM    H1S14227   4.168   2.236   6.539 -0.3121  0.1503 -0.2347
  132OSM    H1T14228   4.249   2.404   6.531 -0.2838 -0.3517  1.0190
  132OSM     NF14229   4.346   2.271   6.739  0.0559  0.0258  0.3363
  132OSM    HNF14230   4.383   2.353   6.782 -2.5238  0.7099  1.4338
  132OSM    C2S14231   4.387   2.258   6.597  0.2068 -0.0922  0.0027
  132OSM    H2S14232   4.404   2.151   6.571 -0.6827 -0.4395  0.7952
  132OSM    C3S14233   4.513   2.341   6.552  0.3117 -0.3129 -0.5933
  132OSM    H3S14234   4.477   2.446   6.557 -0.4976 -0.5197 -1.6190
  132OSM     O314235   4.557   2.323   6.424 -0.2306  0.4490  0.4484
  132OSM    HO314236   4.474   2.313   6.377  0.8156  0.7308 -1.5823
  132OSM    C4S14237   4.618   2.326   6.655 -0.0944  0.2688  0.2317
  132OSM    H4S14238   4.614   2.408   6.728  1.0005  0.4352  0.1206
  132OSM    C5S14239   4.705   2.218   6.676  1.5751  0.1566 -0.8247
  132OSM    H5S14240   4.694   2.141   6.598 -0.0614 -0.8575  0.3395
  132OSM    C6S14241   4.800   2.205   6.788  0.0161 -0.5808  0.4504
  132OSM    H6S14242   4.884   2.155   6.736 -0.4381 -2.0366  1.0644
  132OSM    H6T14243   4.754   2.135   6.861 -0.8454  1.9737  2.5392
  132OSM    C7S14244   4.831   2.322   6.886  0.5733  0.5525 -0.4357
  132OSM    H7S14245   4.737   2.381   6.894  0.7030  0.4833  2.2983
  132OSM    H7T14246   4.904   2.392   6.839 -2.7107  3.3254 -1.9085
  132OSM    C8S14247   4.878   2.288   7.026 -0.6848  0.7318 -0.0071
  132OSM    H8S14248   4.901   2.379   7.085 -0.8968  0.0635  1.1342
  132OSM    H8T14249   4.962   2.215   7.024 -0.5407  0.9015 -1.4377
  132OSM    C9S14250   4.768   2.217   7.107 -0.3688 -0.2653  0.8047
  132OSM    H9S14251   4.778   2.107   7.099  0.3057 -0.1864  0.4573
  132OSM    H9T14252   4.664   2.242   7.076 -0.3872 -2.3777 -1.0849
  132OSM   C10S14253   4.775   2.253   7.262 -0.6779  0.3760  0.4116
  132OSM   H10S14254   4.760   2.363   7.259  1.5128  0.7970  2.2223
  132OSM   H10T14255   4.878   2.242   7.302 -0.8887 -0.2370  0.8031
  132OSM   C11S14256   4.684   2.164   7.353 -0.4740 -0.4617  0.8812
  132OSM   H11S14257   4.734   2.065   7.354 -1.3830 -0.9673  3.3361
  132OSM   H11T14258   4.584   2.147   7.307 -2.0640  3.2361  2.5046
  132OSM   C12S14259   4.676   2.209   7.498  0.3768 -0.5589 -0.1058
  132OSM   H12S14260   4.607   2.134   7.543 -1.8011  0.7766 -1.0642
  132OSM   H12T14261   4.633   2.310   7.509  0.1854 -0.7006  0.4702
  132OSM   C13S14262   4.810   2.226   7.577  0.3524  0.4892  0.3026
  132OSM   H13S14263   4.859   2.314   7.531  0.4804  0.4163  0.2983
  132OSM   H13T14264   4.883   2.147   7.550  0.0156  0.5072 -0.7207
  132OSM   C14S14265   4.807   2.249   7.731 -0.9335  0.1702 -0.3013
  132OSM   H14S14266   4.747   2.338   7.760 -0.0773  0.1219  1.7961
  132OSM   H14T14267   4.911   2.275   7.761 -0.6964 -0.2696 -0.7178
  132OSM   C15S14268   4.760   2.124   7.812 -0.2130  0.3507 -0.0912
  132OSM   H15S14269   4.813   2.037   7.767 -1.5002 -0.2100 -0.5966
  132OSM   H15T14270   4.650   2.109   7.808 -0.3407  1.5279 -1.5065
  132OSM   C16S14271   4.817   2.136   7.958  0.4541  0.4535  0.0665
  132OSM   H16S14272   4.773   2.044   8.001 -0.8797 -0.5565 -3.1392
  132OSM   H16T14273   4.779   2.230   8.004 -1.4477 -0.5115  0.5490
  132OSM   C17S14274   4.970   2.133   7.966 -0.8244 -0.1453 -0.0579
  132OSM   H17S14275   5.007   2.237   7.957 -0.2471 -0.3352  0.1196
  132OSM   H17T14276   5.013   2.078   7.879  0.4089 -1.2998  1.2306
  132OSM   C18S14277   5.022   2.077   8.090  0.4846  0.9668 -0.1144
  132OSM   H18S14278   5.132   2.090   8.100  0.7659 -1.9516  2.2642
  132OSM   H18T14279   5.002   1.967   8.089  1.1445  0.8385  0.3712
  132OSM   H18U14280   4.975   2.122   8.180 -0.7154 -0.6776  0.1397
  132OSM    C1F14281   4.266   2.188   6.800 -0.4967  0.1603 -0.2130
  132OSM     OF14282   4.224   2.081   6.753  0.1210  0.8566  0.0158
  132OSM    C2F14283   4.218   2.237   6.937  0.0843  0.3398  0.6420
  132OSM    H2F14284   4.164   2.334   6.930  0.4483  0.5206  0.3086
  132OSM    H2G14285   4.311   2.259   6.992  0.7381  0.7226 -0.5869
  132OSM    C3F14286   4.136   2.134   7.016  0.7412  0.6238  0.0879
  132OSM    H3F14287   4.059   2.079   6.957  2.0183 -2.8341  1.3724
  132OSM    H3G14288   4.089   2.183   7.104  1.1900 -0.5907  1.0448
  132OSM    C4F14289   4.214   2.010   7.069  0.3739 -0.1614 -0.4991
  132OSM    H4F14290   4.295   2.048   7.134  1.6166  0.9512 -2.5931
  132OSM    H4G14291   4.242   1.943   6.984 -3.2595 -0.3760 -1.7220
  132OSM    C5F14292   4.115   1.933   7.156  0.0247  0.2422 -0.0646
  132OSM    H5F14293   4.170   1.837   7.170 -2.1516 -0.9867  0.4176
  132OSM    H5G14294   4.016   1.920   7.107 -0.3336 -2.2269  1.1687
  132OSM    C6F14295   4.098   1.999   7.296  0.2586 -0.5197  0.7980
  132OSM    H6F14296   4.058   2.101   7.280  0.3371 -0.9827 -3.3098
  132OSM    H6G14297   4.195   2.005   7.351 -0.6157 -0.5858  2.3985
  132OSM    C7F14298   4.008   1.918   7.391  0.0549  0.0315  0.2580
  132OSM    H7F14299   4.057   1.820   7.405  0.5893  0.4936  1.7947
  132OSM    H7G14300   3.907   1.895   7.350 -0.5575  1.0570  1.1235
  132OSM    C8F14301   3.992   1.969   7.538 -0.1929  0.0952 -0.5381
  132OSM    H8F14302   3.961   2.075   7.540 -0.2510  0.0842  2.0347
  132OSM    H8G14303   4.090   1.956   7.589 -0.7391  0.0705  0.5213
  132OSM    C9F14304   3.894   1.878   7.610  0.2860  0.2003  0.8073
  132OSM    H9F14305   3.860   1.786   7.559 -2.5728  0.7739  1.4618
  132OSM   C10F14306   3.824   1.914   7.716  0.3313 -0.2177  0.3372
  132OSM   H10F14307   3.750   1.847   7.762  1.8349  0.7114  4.5863
  132OSM   C11F14308   3.834   2.046   7.789  0.2301  0.1434  0.1736
  132OSM   H11F14309   3.754   2.109   7.745  0.1362 -0.2870 -0.2813
  132OSM   H11G14310   3.932   2.094   7.767  1.1900 -0.6584  2.3190
  132OSM   C12F14311   3.811   2.030   7.938  0.2552  0.2518 -0.4206
  132OSM   H12F14312   3.885   1.953   7.970  1.0125  0.8150 -0.8039
  132OSM   H12G14313   3.707   2.005   7.968  0.5492 -1.2825 -0.5915
  132OSM   C13F14314   3.850   2.151   8.017  0.2504  0.0391  0.5730
  132OSM   H13F14315   3.805   2.241   7.972  0.2233 -1.2316 -2.1394
  132OSM   H13G14316   3.961   2.155   8.008  0.1276 -1.2477 -2.6179
  132OSM   C14F14317   3.814   2.154   8.164 -0.3940 -0.5730  0.6022
  132OSM   H14F14318   3.872   2.072   8.211  0.3750  0.0661  0.7856
  132OSM   H14G14319   3.705   2.131   8.167 -0.4740 -1.0430 -2.8361
  132OSM   C15F14320   3.872   2.276   8.244 -0.0394 -0.0068  0.5253
  132OSM   H15F14321   3.808   2.365   8.228 -1.6822 -0.7309  2.6335
  132OSM   H15G14322   3.975   2.305   8.214  0.5242 -1.0547  1.3602
  132OSM   C16F14323   3.882   2.261   8.401 -0.6666  0.6303 -0.6723
  132OSM   H16F14324   3.952   2.339   8.439  0.1860 -1.0768  1.4711
  132OSM   H16G14325   3.945   2.170   8.407  2.1014  2.4429 -0.5174
  132OSM   C17F14326   3.746   2.248   8.473  0.1496  0.0135 -0.7982
  132OSM   H17F14327   3.683   2.185   8.407 -0.9012 -1.2866  1.3719
  132OSM   H17G14328   3.682   2.339   8.473 -0.5908 -0.4874  0.1778
  132OSM   C18F14329   3.739   2.192   8.613  0.5841  0.4163 -0.0793
  132OSM   H18F14330   3.806   2.104   8.622 -1.4473 -1.1707  0.0809
  132OSM   H18G14331   3.634   2.158   8.628  0.1912  1.8555  0.6911
  132OSM   H18H14332   3.759   2.271   8.689 -1.5836 -0.0152  1.0215
  133OSM      N14333   4.498   2.090   6.070  0.3849 -0.1809 -0.2906
  133OSM    C1514334   4.374   2.040   6.003 -0.1991  0.5881 -0.2460
  133OSM   H15A14335   4.390   2.028   5.897 -0.4931 -0.0466 -0.2179
  133OSM   H15B14336   4.293   2.109   6.022  0.2406  0.8232  0.7991
  133OSM   H15C14337   4.345   1.945   6.045  0.2482  0.8254  0.6178
  133OSM    C1414338   4.625   2.027   6.018  0.6507 -0.2104 -0.3071
  133OSM   H14A14339   4.628   2.037   5.910 -0.7658  1.2754 -0.2392
  133OSM   H14B14340   4.624   1.923   6.047 -0.7699  0.4681  2.4151
  133OSM   H14C14341   4.707   2.074   6.070 -0.5287  0.7212  0.7703
  133OSM    C1314342   4.503   2.242   6.058 -0.2389  1.1436 -1.0509
  133OSM   H13A14343   4.587   2.276   6.116  0.2839  0.4077 -1.3729
  133OSM   H13B14344   4.414   2.287   6.101  0.9234 -0.3072  3.3797
  133OSM   H13C14345   4.517   2.271   5.955  1.1157 -0.8715 -1.4847
  133OSM    C1214346   4.483   2.066   6.223 -0.5188 -0.2351 -0.4726
  133OSM   H12A14347   4.384   2.098   6.251 -0.2698 -0.6391  0.9063
  133OSM   H12B14348   4.556   2.130   6.271  0.3007  0.0529 -1.9955
  133OSM    C1114349   4.499   1.920   6.279  0.8304  0.2430 -0.5156
  133OSM   H11A14350   4.489   1.934   6.388 -1.1989 -3.0435 -0.1428
  133OSM   H11B14351   4.601   1.888   6.247  0.9565  0.2237 -0.1009
  133OSM      P14352   4.404   1.681   6.255  0.4400  0.1844 -0.3047
  133OSM    O1314353   4.277   1.621   6.207  0.4233 -0.7122 -0.0802
  133OSM    O1414354   4.532   1.627   6.213 -0.4231  0.6542  0.4947
  133OSM    O1114355   4.401   1.682   6.415  0.6010  0.4143 -0.2460
  133OSM    O1214356   4.399   1.835   6.231  0.0594  0.1613 -0.4073
  133OSM    C1S14357   4.302   1.759   6.485 -0.5117  0.1630  0.6086
  133OSM    H1S14358   4.196   1.739   6.457 -0.1001  0.5327 -1.3646
  133OSM    H1T14359   4.314   1.867   6.464  0.1191  0.1716  0.9875
  133OSM     NF14360   4.218   1.808   6.715 -0.1200  0.2904  0.0696
  133OSM    HNF14361   4.224   1.907   6.725  0.3124  0.4926 -1.8597
  133OSM    C2S14362   4.324   1.741   6.639  0.2817 -0.1137 -0.2864
  133OSM    H2S14363   4.320   1.633   6.662  1.1682 -0.2919 -0.9507
  133OSM    C3S14364   4.462   1.802   6.690 -0.2674 -0.1113  1.2290
  133OSM    H3S14365   4.465   1.911   6.669  2.0964 -0.6555 -1.9699
  133OSM     O314366   4.573   1.758   6.612  0.4518  0.4079  0.2980
  133OSM    HO314367   4.533   1.733   6.529 -0.8364 -0.4416  1.1354
  133OSM    C4S14368   4.482   1.784   6.843 -1.0830 -0.5200 -0.2724
  133OSM    H4S14369   4.458   1.867   6.912 -0.8188 -0.5746 -0.1144
  133OSM    C5S14370   4.533   1.670   6.899 -0.5422  0.1271 -0.2282
  133OSM    H5S14371   4.567   1.590   6.831  0.1481  0.6116 -0.4651
  133OSM    C6S14372   4.564   1.638   7.047 -0.3720  1.1308 -0.2325
  133OSM    H6S14373   4.672   1.621   7.068 -0.5936 -4.8942 -1.9984
  133OSM    H6T14374   4.524   1.536   7.065  1.4312  0.2977 -0.7538
  133OSM    C7S14375   4.497   1.737   7.142  0.3993 -0.6719  0.0085
  133OSM    H7S14376   4.389   1.726   7.120  0.1579  0.2443  0.7172
  133OSM    H7T14377   4.522   1.843   7.119 -1.7508 -0.4849 -1.7365
  133OSM    C8S14378   4.528   1.696   7.289  0.5233  0.7290  0.1174
  133OSM    H8S14379   4.636   1.681   7.308  0.4784  0.9869  0.6088
  133OSM    H8T14380   4.483   1.599   7.319  0.7720  0.3931 -0.5756
  133OSM    C9S14381   4.483   1.800   7.390  0.0307 -0.1526  0.0872
  133OSM    H9S14382   4.372   1.791   7.390 -0.3066  3.0987  0.3073
  133OSM    H9T14383   4.507   1.901   7.351 -1.8451  0.3265  0.0814
  133OSM   C10S14384   4.533   1.782   7.534  0.3253  0.2736  0.7143
  133OSM   H10S14385   4.625   1.843   7.531  1.7686 -1.8040 -0.1474
  133OSM   H10T14386   4.561   1.676   7.556  0.6498  0.4527  1.1713
  133OSM   C11S14387   4.433   1.831   7.636 -0.0367 -0.1560 -0.3669
  133OSM   H11S14388   4.358   1.750   7.644  1.0103 -1.0798  0.2164
  133OSM   H11T14389   4.393   1.932   7.609  3.4200  1.1864 -0.9237
  133OSM   C12S14390   4.493   1.846   7.777  0.2447 -0.1283  0.4095
  133OSM   H12S14391   4.563   1.931   7.764 -0.4501  0.5026  0.7431
  133OSM   H12T14392   4.551   1.754   7.801 -1.3314 -1.9692 -2.3381
  133OSM   C13S14393   4.388   1.876   7.884 -0.0803  0.5985 -0.6433
  133OSM   H13S14394   4.322   1.789   7.904  0.8058  0.2512  0.9115
  133OSM   H13T14395   4.326   1.958   7.843 -2.0121 -0.7704 -0.6112
  133OSM   C14S14396   4.440   1.929   8.020  0.0405  0.4655  0.3607
  133OSM   H14S14397   4.359   1.977   8.080 -1.3160  0.4330 -1.3511
  133OSM   H14T14398   4.521   2.003   8.001  2.0615 -1.5615  0.7540
  133OSM   C15S14399   4.503   1.826   8.116 -0.2439  0.2627  0.7207
  133OSM   H15S14400   4.598   1.792   8.071 -0.5660 -1.1551  1.0451
  133OSM   H15T14401   4.442   1.733   8.121 -0.0820 -0.1255 -2.6261
  133OSM   C16S14402   4.523   1.880   8.257 -0.2476 -0.3646  0.8628
  133OSM   H16S14403   4.520   1.790   8.322 -1.8191 -0.8696  0.1618
  133OSM   H16T14404   4.443   1.952   8.282  0.2767  0.6401 -0.2611
  133OSM   C17S14405   4.662   1.944   8.275 -0.0125  0.1140 -0.9390
  133OSM   H17S14406   4.668   2.025   8.200 -1.4606  1.7938  0.6603
  133OSM   H17T14407   4.748   1.885   8.238  1.3691 -0.5633  2.8321
  133OSM   C18S14408   4.698   2.002   8.418 -0.7634 -0.1177  0.9671
  133OSM   H18S14409   4.806   2.030   8.425 -0.4268 -1.1715  0.3330
  133OSM   H18T14410   4.667   1.923   8.490  0.5436 -0.0667  1.6249
  133OSM   H18U14411   4.638   2.094   8.433  1.5935  1.5786  0.5713
  133OSM    C1F14412   4.102   1.747   6.728 -0.1685 -0.1918 -0.4107
  133OSM     OF14413   4.076   1.644   6.663  0.8557  0.5476  0.2839
  133OSM    C2F14414   3.999   1.797   6.826  0.0772 -0.3234  0.0531
  133OSM    H2F14415   3.984   1.907   6.819 -0.3201 -0.3845 -0.1104
  133OSM    H2G14416   4.037   1.784   6.929 -1.1618  0.4281  0.6349
  133OSM    C3F14417   3.860   1.726   6.805  1.1256 -0.1783  0.1817
  133OSM    H3F14418   3.881   1.617   6.801  1.2934 -0.1143 -1.2275
  133OSM    H3G14419   3.819   1.755   6.705  2.6197  1.7539  0.0643
  133OSM    C4F14420   3.744   1.752   6.905  0.5944 -0.2181  0.5095
  133OSM    H4F14421   3.661   1.687   6.869  0.4970  0.6312 -0.8733
  133OSM    H4G14422   3.706   1.853   6.881  1.8693 -0.4816 -3.2345
  133OSM    C5F14423   3.774   1.740   7.059  0.1925  0.4677  0.6672
  133OSM    H5F14424   3.863   1.803   7.079  1.6902 -0.7125 -1.6808
  133OSM    H5G14425   3.808   1.636   7.082 -1.4775 -0.2049  0.2900
  133OSM    C6F14426   3.651   1.781   7.137  0.2798  1.3200 -0.3700
  133OSM    H6F14427   3.562   1.719   7.112  0.3394  0.1028  2.1356
  133OSM    H6G14428   3.621   1.884   7.104  0.8807  1.4238 -0.5995
  133OSM    C7F14429   3.664   1.805   7.284  0.4053  0.3151  0.1339
  133OSM    H7F14430   3.718   1.902   7.288 -0.0837  0.7690 -2.6679
  133OSM    H7G14431   3.737   1.732   7.324  1.7835  0.1515 -2.4771
  133OSM    C8F14432   3.531   1.819   7.355 -0.1804  0.1618  0.1552
  133OSM    H8F14433   3.555   1.820   7.464 -1.0632 -0.1429  0.3563
  133OSM    H8G14434   3.480   1.721   7.342  2.5002 -1.1979 -0.9848
  133OSM    C9F14435   3.443   1.938   7.302 -0.1360 -0.3136 -0.3063
  133OSM    H9F14436   3.394   1.931   7.204  0.5973  1.8281 -0.8777
  133OSM   C10F14437   3.425   2.057   7.365 -0.5431 -0.0670  0.4311
  133OSM   H10F14438   3.359   2.134   7.321 -2.7809 -0.2968  3.1293
  133OSM   C11F14439   3.487   2.089   7.493 -0.0876  0.3240 -0.9814
  133OSM   H11F14440   3.586   2.138   7.483 -0.2464  0.8141 -0.2879
  133OSM   H11G14441   3.501   2.000   7.558  0.6443 -1.1781 -3.0774
  133OSM   C12F14442   3.402   2.183   7.592  0.7606  0.4175  0.5680
  133OSM   H12F14443   3.307   2.127   7.601  1.5618 -1.0957 -0.0818
  133OSM   H12G14444   3.383   2.274   7.530 -0.6308 -0.7437 -0.7896
  133OSM   C13F14445   3.465   2.229   7.722  0.1511 -0.1011 -0.4490
  133OSM   H13F14446   3.558   2.287   7.705  1.8148 -1.7189  2.2475
  133OSM   H13G14447   3.489   2.133   7.773  0.6339  0.5658  0.6129
  133OSM   C14F14448   3.369   2.304   7.814 -0.6267 -0.5967 -0.0238
  133OSM   H14F14449   3.277   2.241   7.813 -0.8237 -0.4249  2.0802
  133OSM   H14G14450   3.334   2.402   7.774 -2.6863 -0.0750  2.7109
  133OSM   C15F14451   3.418   2.315   7.954 -0.0663  0.2244 -0.1018
  133OSM   H15F14452   3.520   2.358   7.957 -0.6343  1.5812  0.2023
  133OSM   H15G14453   3.423   2.219   8.011 -0.0977 -0.0823 -0.6067
  133OSM   C16F14454   3.319   2.403   8.031 -0.2225 -1.0987  0.2707
  133OSM   H16F14455   3.216   2.378   8.001  0.2466 -0.8312 -1.6842
  133OSM   H16G14456   3.329   2.508   7.995 -1.2639 -0.9381  0.4171
  133OSM   C17F14457   3.338   2.397   8.180 -0.0439 -0.7425 -0.2642
  133OSM   H17F14458   3.312   2.296   8.220  0.8350 -1.6901 -2.0058
  133OSM   H17G14459   3.268   2.470   8.225  0.8202 -0.7964  1.2410
  133OSM   C18F14460   3.479   2.436   8.233 -0.8836  0.0194  0.0101
  133OSM   H18F14461   3.485   2.442   8.343  0.4138 -0.5499 -0.0043
  133OSM   H18G14462   3.501   2.540   8.199  1.1386 -0.3255  0.1054
  133OSM   H18H14463   3.568   2.377   8.199  0.5957  0.8540  2.2227
  134OSM      N14464   6.373   5.774   6.255 -0.0142 -0.0509 -0.0429
  134OSM    C1514465   6.377   5.866   6.130 -0.2360 -0.8414 -0.7290
  134OSM   H15A14466   6.416   5.806   6.050 -1.3121 -3.1463  0.3924
  134OSM   H15B14467   6.448   5.946   6.151 -0.8949  0.6177 -3.5652
  134OSM   H15C14468   6.281   5.908   6.105 -1.1626 -1.0519  2.1337
  134OSM    C1414469   6.365   5.858   6.376 -0.4409  0.2930 -0.0321
  134OSM   H14A14470   6.445   5.930   6.367 -0.7985  0.5255 -1.6555
  134OSM   H14B14471   6.376   5.803   6.468 -0.0578  1.8190  0.8640
  134OSM   H14C14472   6.278   5.922   6.383  0.0182  1.0426 -0.8377
  134OSM    C1314473   6.253   5.680   6.241 -0.2377 -0.0234 -0.1047
  134OSM   H13A14474   6.162   5.737   6.232  0.7484  1.4507 -1.2457
  134OSM   H13B14475   6.258   5.605   6.318  2.4797 -1.6187 -1.6374
  134OSM   H13C14476   6.257   5.623   6.149 -1.8400 -1.4942  0.6811
  134OSM    C1214477   6.501   5.687   6.269 -0.3140  0.0213  0.2781
  134OSM   H12A14478   6.586   5.752   6.285  0.2787 -0.9366  1.1035
  134OSM   H12B14479   6.515   5.636   6.175 -3.5894 -0.2978 -0.1562
  134OSM    C1114480   6.516   5.592   6.381  0.3712 -0.0248 -1.0740
  134OSM   H11A14481   6.497   5.645   6.476 -0.1181 -1.8756 -0.0812
  134OSM   H11B14482   6.623   5.561   6.382 -0.5526 -3.7676 -2.1205
  134OSM      P14483   6.437   5.378   6.263  0.1600  0.0498  0.2108
  134OSM    O1314484   6.319   5.401   6.182  0.0157 -0.2722  0.4021
  134OSM    O1414485   6.569   5.373   6.192  0.5326 -0.1321 -0.3977
  134OSM    O1114486   6.422   5.243   6.348  0.1662  0.5248  0.0098
  134OSM    O1214487   6.429   5.482   6.377 -0.3996  0.3862  1.0344
  134OSM    C1S14488   6.475   5.238   6.481 -0.0772 -0.3201  0.1233
  134OSM    H1S14489   6.433   5.323   6.539 -0.8532  1.3996 -2.7346
  134OSM    H1T14490   6.584   5.256   6.485 -0.1737  0.4494 -0.4084
  134OSM     NF14491   6.491   5.124   6.689 -0.5507  0.0501 -0.1192
  134OSM    HNF14492   6.589   5.114   6.704 -0.4049 -0.4086 -1.2719
  134OSM    C2S14493   6.449   5.105   6.553 -0.1891  0.0382 -0.0977
  134OSM    H2S14494   6.340   5.085   6.548 -0.0248 -0.6267 -1.9978
  134OSM    C3S14495   6.523   4.983   6.479 -0.6234 -0.0489 -0.4921
  134OSM    H3S14496   6.631   5.006   6.482 -0.7624  0.5990  1.3063
  134OSM     O314497   6.491   4.959   6.343  0.1640  0.0290  0.2342
  134OSM    HO314498   6.462   5.043   6.306  1.2104 -0.1762 -1.1111
  134OSM    C4S14499   6.507   4.853   6.557 -0.0158 -0.7105  0.0519
  134OSM    H4S14500   6.412   4.842   6.613 -1.3412  0.2439 -1.8898
  134OSM    C5S14501   6.605   4.757   6.565  0.0643  0.2094  0.0473
  134OSM    H5S14502   6.690   4.773   6.497  0.6177 -0.9926  0.4163
  134OSM    C6S14503   6.592   4.628   6.645  0.1406  0.3931  0.2267
  134OSM    H6S14504   6.696   4.599   6.671  0.3899  2.7765  2.2452
  134OSM    H6T14505   6.563   4.540   6.583  0.3788  1.2908 -1.2200
  134OSM    C7S14506   6.499   4.634   6.768  0.1105  0.5655 -0.6681
  134OSM    H7S14507   6.399   4.645   6.721 -0.5916  0.2313  0.7004
  134OSM    H7T14508   6.527   4.716   6.838 -0.6109  0.4756 -0.2725
  134OSM    C8S14509   6.510   4.507   6.851 -0.2600  0.5968 -0.0692
  134OSM    H8S14510   6.617   4.492   6.876 -0.6883 -3.2657  0.1379
  134OSM    H8T14511   6.480   4.416   6.794 -1.5971  0.0285  1.4618
  134OSM    C9S14512   6.427   4.508   6.979 -0.2225 -0.4006  0.0500
  134OSM    H9S14513   6.322   4.535   6.953 -0.3003 -0.7810 -0.0363
  134OSM    H9T14514   6.461   4.586   7.050 -1.2217  0.2887 -0.1998
  134OSM   C10S14515   6.419   4.368   7.049 -0.2572 -0.3876 -0.6192
  134OSM   H10S14516   6.524   4.331   7.059 -0.5060 -0.7448  0.8552
  134OSM   H10T14517   6.364   4.298   6.983 -1.0439 -3.2262  2.7629
  134OSM   C11S14518   6.345   4.371   7.173 -0.4548  0.2474 -0.0657
  134OSM   H11S14519   6.332   4.271   7.218 -1.1006  0.3194 -0.0917
  134OSM   H11T14520   6.244   4.406   7.144 -0.8878 -1.1945 -0.3471
  134OSM   C12S14521   6.414   4.456   7.284  0.0699 -0.1210  0.5286
  134OSM   H12S14522   6.334   4.474   7.359 -2.2975  0.2380 -1.9407
  134OSM   H12T14523   6.431   4.561   7.253  0.3942 -0.3213  0.0198
  134OSM   C13S14524   6.526   4.382   7.340 -0.2187  0.0147  0.0369
  134OSM   H13S14525   6.591   4.327   7.268  0.4930  0.9290 -0.0414
  134OSM   H13T14526   6.474   4.306   7.402  0.1678  0.4430  0.9088
  134OSM   C14S14527   6.612   4.471   7.432  0.1178 -0.5796 -0.5167
  134OSM   H14S14528   6.547   4.541   7.488 -1.1617  0.2727 -2.9151
  134OSM   H14T14529   6.688   4.543   7.393  0.3130 -0.2359  0.4787
  134OSM   C15S14530   6.689   4.372   7.528  0.0322 -0.1344 -0.6160
  134OSM   H15S14531   6.777   4.331   7.475  1.0369  0.2612  0.7097
  134OSM   H15T14532   6.622   4.285   7.548  2.0542 -2.3498 -2.7309
  134OSM   C16S14533   6.743   4.438   7.661  0.1159  0.3310 -0.0925
  134OSM   H16S14534   6.665   4.477   7.730 -0.9277  0.3979 -1.2872
  134OSM   H16T14535   6.816   4.517   7.635  0.5079  0.1584  0.4386
  134OSM   C17S14536   6.812   4.336   7.758 -0.4876  0.3499  1.1462
  134OSM   H17S14537   6.904   4.307   7.704 -1.0021  1.2994 -0.3163
  134OSM   H17T14538   6.747   4.247   7.775  0.4480  0.0272  3.3005
  134OSM   C18S14539   6.859   4.394   7.883 -0.3836 -1.9083  0.1945
  134OSM   H18S14540   6.926   4.479   7.856 -1.9319 -0.9914 -1.0054
  134OSM   H18T14541   6.901   4.324   7.957  0.5084 -1.7555 -0.1601
  134OSM   H18U14542   6.776   4.436   7.945 -0.3836 -2.2830  0.4451
  134OSM    C1F14543   6.416   5.195   6.779 -0.2143  0.3550  0.8098
  134OSM     OF14544   6.291   5.205   6.766 -0.4833  0.2959  0.2301
  134OSM    C2F14545   6.489   5.266   6.890 -0.4005  0.1666  0.2620
  134OSM    H2F14546   6.472   5.376   6.884 -1.4017 -0.0511 -1.6751
  134OSM    H2G14547   6.597   5.246   6.873 -0.6071  0.8262 -2.3635
  134OSM    C3F14548   6.446   5.214   7.023  0.2414  0.0493 -0.1163
  134OSM    H3F14549   6.482   5.109   7.034 -0.1065  0.1061  1.8464
  134OSM    H3G14550   6.335   5.206   7.027  0.3436 -1.6871  3.6171
  134OSM    C4F14551   6.492   5.297   7.146 -0.8355 -0.6814  0.2180
  134OSM    H4F14552   6.461   5.403   7.145 -4.6742 -1.6504 -1.6417
  134OSM    H4G14553   6.603   5.301   7.138 -0.8424  1.0363  0.5682
  134OSM    C5F14554   6.445   5.220   7.268  0.1099  0.1089  0.6451
  134OSM    H5F14555   6.492   5.120   7.266  1.6168  0.7441  1.9422
  134OSM    H5G14556   6.336   5.205   7.252  0.5162 -3.1053  0.3676
  134OSM    C6F14557   6.462   5.287   7.405  0.4768  0.3848 -0.3508
  134OSM    H6F14558   6.422   5.389   7.389 -1.0452 -0.2641 -0.9590
  134OSM    H6G14559   6.567   5.302   7.435 -0.0746  1.4236  1.1730
  134OSM    C7F14560   6.375   5.215   7.513  0.8554 -0.0909 -0.5350
  134OSM    H7F14561   6.423   5.122   7.552 -0.1260 -0.4959 -0.2605
  134OSM    H7G14562   6.280   5.183   7.465  2.3042 -1.7386 -2.4874
  134OSM    C8F14563   6.342   5.306   7.630  0.0263  0.9449 -0.6852
  134OSM    H8F14564   6.279   5.243   7.696  2.1733  0.1032  0.6984
  134OSM    H8G14565   6.287   5.392   7.587  0.3654  1.2143 -0.5889
  134OSM    C9F14566   6.472   5.346   7.696  0.2825 -0.4949 -0.2810
  134OSM    H9F14567   6.552   5.388   7.634  3.0080 -1.2313  2.4624
  134OSM   C10F14568   6.500   5.320   7.827 -0.5467  0.1560 -0.6238
  134OSM   H10F14569   6.598   5.330   7.875 -0.7985 -1.5361  0.2939
  134OSM   C11F14570   6.406   5.270   7.930 -0.5326  0.7739 -0.1372
  134OSM   H11F14571   6.461   5.227   8.016 -0.7723  0.1292 -0.3005
  134OSM   H11G14572   6.336   5.194   7.890 -0.2365 -0.1199  1.0027
  134OSM   C12F14573   6.323   5.391   7.994 -0.2649  0.4431  0.2959
  134OSM   H12F14574   6.265   5.455   7.924 -2.1327 -0.8918  0.5761
  134OSM   H12G14575   6.394   5.461   8.043 -0.6561  0.7815  0.3823
  134OSM   C13F14576   6.223   5.342   8.099 -0.5727 -0.4426 -0.5117
  134OSM   H13F14577   6.279   5.272   8.164  1.5233  0.8980 -0.7628
  134OSM   H13G14578   6.142   5.283   8.050  0.3250 -0.9460 -1.4186
  134OSM   C14F14579   6.164   5.459   8.185  0.3636  0.1857  0.2328
  134OSM   H14F14580   6.071   5.429   8.238  1.7655 -2.7109  1.2684
  134OSM   H14G14581   6.140   5.552   8.129  2.1539  1.0052  0.7550
  134OSM   C15F14582   6.266   5.508   8.289  0.1693 -0.4429  0.0100
  134OSM   H15F14583   6.349   5.559   8.237  0.1046 -0.6622 -0.3090
  134OSM   H15G14584   6.311   5.422   8.344 -0.5326 -0.5415  0.4453
  134OSM   C16F14585   6.205   5.609   8.393 -0.1114 -0.1961  0.1873
  134OSM   H16F14586   6.154   5.548   8.471 -0.0687  1.9247  1.9760
  134OSM   H16G14587   6.137   5.673   8.334  0.5485 -0.9227 -1.4201
  134OSM   C17F14588   6.308   5.696   8.468  0.0908 -0.0912  0.5223
  134OSM   H17F14589   6.340   5.775   8.397 -0.6030 -1.4826 -1.4206
  134OSM   H17G14590   6.390   5.637   8.514  0.3271  0.8824  1.3817
  134OSM   C18F14591   6.238   5.761   8.590 -0.7530  0.3227 -0.9779
  134OSM   H18F14592   6.152   5.827   8.564 -0.9533  1.4149  2.0798
  134OSM   H18G14593   6.310   5.824   8.647 -1.1404 -2.1712  2.6187
  134OSM   H18H14594   6.191   5.695   8.666 -2.9762  1.8515 -0.9442
  135OSM      N14595   6.079   4.786   6.033 -0.3045 -0.5512 -0.0892
  135OSM    C1514596   6.030   4.652   6.094  0.0588 -0.3281 -0.3509
  135OSM   H15A14597   5.954   4.663   6.170  0.6819  0.0072  0.2337
  135OSM   H15B14598   6.107   4.582   6.122 -0.3930 -1.0351 -0.8467
  135OSM   H15C14599   5.981   4.596   6.016 -1.6112 -0.5626  0.8288
  135OSM    C1414600   6.174   4.748   5.923  0.4780  0.5257  0.0568
  135OSM   H14A14601   6.265   4.702   5.959  0.2662  0.6845  0.8238
  135OSM   H14B14602   6.204   4.833   5.863 -0.3167  0.8539  0.1222
  135OSM   H14C14603   6.124   4.684   5.853  0.7179  2.4261 -1.9581
  135OSM    C1314604   5.970   4.874   5.984 -0.7923  0.2363  0.0238
  135OSM   H13A14605   5.907   4.826   5.911 -1.3103  1.0510 -0.0777
  135OSM   H13B14606   6.006   4.962   5.934  0.6047  0.7220  1.7950
  135OSM   H13C14607   5.906   4.899   6.068 -0.2934  1.0150  0.1840
  135OSM    C1214608   6.167   4.852   6.137  0.2358 -0.1037 -0.0207
  135OSM   H12A14609   6.222   4.917   6.071 -0.9816  1.7778  0.7442
  135OSM   H12B14610   6.249   4.795   6.178  0.3180 -0.0187 -0.0658
  135OSM    C1114611   6.099   4.933   6.260 -0.1883 -0.4981  0.0694
  135OSM   H11A14612   6.034   5.011   6.215  1.1136  0.0539 -0.8965
  135OSM   H11B14613   6.185   4.985   6.308  0.0526  1.1805 -2.0539
  135OSM      P14614   5.887   4.849   6.391 -0.1545  0.1079  0.1301
  135OSM    O1314615   5.829   4.980   6.346  0.1826  0.2454 -0.3733
  135OSM    O1414616   5.817   4.727   6.334  0.4710  0.2487 -0.7337
  135OSM    O1114617   5.898   4.846   6.549  0.3558  0.4955  0.4023
  135OSM    O1214618   6.029   4.837   6.347 -0.6401  0.2643  0.1268
  135OSM    C1S14619   5.966   4.963   6.597 -0.3365 -0.4770 -0.1118
  135OSM    H1S14620   5.913   5.059   6.578  0.2899 -0.3836 -1.5028
  135OSM    H1T14621   6.060   4.982   6.541 -0.8949 -1.7244 -1.5272
  135OSM     NF14622   6.036   5.087   6.802  0.5380  0.5350  0.1936
  135OSM    HNF14623   6.134   5.101   6.816  1.4254 -3.6772 -0.4386
  135OSM    C2S14624   6.001   4.952   6.753 -0.0810 -0.2336  0.1852
  135OSM    H2S14625   5.917   4.909   6.811  0.5216 -1.7586 -0.0259
  135OSM    C3S14626   6.116   4.849   6.760  0.2783  0.3158 -0.3343
  135OSM    H3S14627   6.196   4.886   6.691 -0.7053  0.9062 -1.1787
  135OSM     O314628   6.086   4.716   6.730  0.2094  0.7083  0.3005
  135OSM    HO314629   6.006   4.722   6.678  1.7851 -0.2807 -2.4038
  135OSM    C4S14630   6.175   4.857   6.905 -0.1226 -0.4838 -0.3983
  135OSM    H4S14631   6.256   4.932   6.900  2.3118 -2.9742 -0.9807
  135OSM    C5S14632   6.154   4.793   7.022 -0.5760 -0.0147  0.2464
  135OSM    H5S14633   6.069   4.723   7.028  0.1033 -0.8336  0.5720
  135OSM    C6S14634   6.219   4.814   7.159 -0.2803  0.4050  0.3242
  135OSM    H6S14635   6.308   4.881   7.156  0.6289 -0.7189  1.2761
  135OSM    H6T14636   6.254   4.713   7.186 -0.2336  0.1415 -0.6660
  135OSM    C7S14637   6.125   4.854   7.272 -0.5363  0.1623  0.6801
  135OSM    H7S14638   6.027   4.803   7.259 -0.2613 -0.3369  0.5547
  135OSM    H7T14639   6.122   4.965   7.264 -0.9965 -0.0019 -3.0448
  135OSM    C8S14640   6.169   4.815   7.414  0.5433  0.3232 -0.7528
  135OSM    H8S14641   6.160   4.704   7.415  0.3658  0.3267  0.6287
  135OSM    H8T14642   6.105   4.854   7.496 -0.2898  0.1658 -1.3158
  135OSM    C9S14643   6.317   4.842   7.435  0.2761 -0.2616  0.9736
  135OSM    H9S14644   6.326   4.952   7.423 -0.7564 -0.3044 -0.3546
  135OSM    H9T14645   6.372   4.795   7.350 -0.8858 -1.3675  0.7974
  135OSM   C10S14646   6.368   4.805   7.572 -1.0757  0.3116  0.3618
  135OSM   H10S14647   6.474   4.834   7.586 -1.5158  0.9362  2.8913
  135OSM   H10T14648   6.349   4.696   7.573 -1.7325  0.4064  1.7063
  135OSM   C11S14649   6.293   4.876   7.681 -0.1435 -0.4343 -0.5798
  135OSM   H11S14650   6.202   4.817   7.705  0.8967 -2.4010 -1.2291
  135OSM   H11T14651   6.267   4.980   7.655  1.6719  0.3502  0.5526
  135OSM   C12S14652   6.372   4.897   7.812  1.0552 -0.2056  0.9176
  135OSM   H12S14653   6.326   4.973   7.878  1.2523  0.1907  0.6032
  135OSM   H12T14654   6.474   4.934   7.788 -0.2017  2.2215 -1.1000
  135OSM   C13S14655   6.389   4.774   7.901  0.0322  0.0704 -0.4391
  135OSM   H13S14656   6.425   4.692   7.835  1.0357 -0.3315  0.5660
  135OSM   H13T14657   6.285   4.742   7.924 -0.2149  1.5164  0.6077
  135OSM   C14S14658   6.464   4.777   8.032  0.2938 -0.3867  0.4856
  135OSM   H14S14659   6.415   4.851   8.098  0.7208 -1.0154  1.5408
  135OSM   H14T14660   6.564   4.815   8.003 -0.2590 -0.1450 -1.2074
  135OSM   C15S14661   6.458   4.635   8.098 -0.2137  0.2356 -0.3566
  135OSM   H15S14662   6.531   4.564   8.056 -2.5669 -1.9482 -0.9948
  135OSM   H15T14663   6.363   4.586   8.069 -1.3569  1.2746  1.4260
  135OSM   C16S14664   6.462   4.633   8.258  0.1469 -0.1264 -0.0266
  135OSM   H16S14665   6.458   4.526   8.288 -1.8163 -1.0191 -2.9874
  135OSM   H16T14666   6.372   4.684   8.298 -0.4923 -0.3574 -1.1238
  135OSM   C17S14667   6.579   4.721   8.307  0.2619 -0.0604  0.1489
  135OSM   H17S14668   6.587   4.728   8.418  0.9681  0.0635  0.0941
  135OSM   H17T14669   6.555   4.825   8.277 -1.1945 -0.1984  0.7918
  135OSM   C18S14670   6.711   4.680   8.245  0.1217 -0.7671  0.1989
  135OSM   H18S14671   6.715   4.707   8.138  0.9043 -0.4071  0.3077
  135OSM   H18T14672   6.720   4.571   8.262 -3.2884 -1.1725  0.0826
  135OSM   H18U14673   6.799   4.729   8.292 -0.6673  1.0855 -0.1607
  135OSM    C1F14674   5.941   5.169   6.830  0.3965 -0.3973 -0.0659
  135OSM     OF14675   5.826   5.128   6.827  0.7397 -0.0455 -0.2454
  135OSM    C2F14676   5.979   5.309   6.858 -0.4066  0.0865  0.4633
  135OSM    H2F14677   5.974   5.365   6.763 -1.0057 -3.0106 -1.4577
  135OSM    H2G14678   6.084   5.306   6.895  0.2437  1.4644 -1.1428
  135OSM    C3F14679   5.888   5.381   6.962 -0.0626 -0.5088  0.4918
  135OSM    H3F14680   5.780   5.385   6.937 -0.7128  1.2083  3.1522
  135OSM    H3G14681   5.922   5.487   6.958 -0.3669 -0.4129  0.3614
  135OSM    C4F14682   5.907   5.323   7.101 -0.0747 -0.1159 -0.0956
  135OSM    H4F14683   6.015   5.321   7.130 -0.7146 -2.1685  2.6406
  135OSM    H4G14684   5.870   5.218   7.094 -0.3051  0.0928 -3.1145
  135OSM    C5F14685   5.825   5.387   7.213 -0.0506  0.0280  0.1719
  135OSM    H5F14686   5.720   5.375   7.177 -0.0627  0.4855  0.0561
  135OSM    H5G14687   5.853   5.494   7.220 -1.2416  0.4141 -0.6778
  135OSM    C6F14688   5.862   5.317   7.349  0.2162  0.1521 -0.3137
  135OSM    H6F14689   5.973   5.313   7.352  0.2770  1.8193  0.4863
  135OSM    H6G14690   5.806   5.222   7.362 -0.3630  0.7006  1.4468
  135OSM    C7F14691   5.798   5.406   7.459  0.0679  0.2356 -0.3098
  135OSM    H7F14692   5.694   5.438   7.437 -0.4585 -0.1004  1.5119
  135OSM    H7G14693   5.857   5.500   7.467  0.8243 -0.1301 -1.4203
  135OSM    C8F14694   5.784   5.329   7.596 -0.7272 -0.2474  0.2117
  135OSM    H8F14695   5.728   5.234   7.585  0.7203 -0.8100 -3.8210
  135OSM    H8G14696   5.720   5.394   7.660 -1.2848 -1.2375  0.6888
  135OSM    C9F14697   5.921   5.304   7.655  0.0169 -0.0498  0.2024
  135OSM    H9F14698   5.985   5.245   7.588 -0.1428 -0.5695  0.5052
  135OSM   C10F14699   5.967   5.333   7.778  0.0823 -0.3284  0.0325
  135OSM   H10F14700   6.065   5.296   7.810  0.5281  0.9360  0.1725
  135OSM   C11F14701   5.879   5.408   7.876  0.0103  0.0021  0.2465
  135OSM   H11F14702   5.813   5.476   7.819  2.9434  3.0277  0.1373
  135OSM   H11G14703   5.939   5.477   7.939 -1.6474 -1.0041  3.1055
  135OSM   C12F14704   5.800   5.317   7.970 -0.5550  0.7082  0.3003
  135OSM   H12F14705   5.867   5.255   8.033 -0.3335  1.7564  1.1406
  135OSM   H12G14706   5.736   5.249   7.910  0.6404 -0.2319  0.0602
  135OSM   C13F14707   5.714   5.394   8.065 -0.0258 -0.2856 -0.5262
  135OSM   H13F14708   5.623   5.445   8.027 -0.8837  0.6280  2.4425
  135OSM   H13G14709   5.788   5.469   8.099  1.2256 -0.1907 -3.2008
  135OSM   C14F14710   5.661   5.322   8.195 -0.1119  0.3638  0.3882
  135OSM   H14F14711   5.730   5.246   8.236 -1.2741  0.0953  1.9657
  135OSM   H14G14712   5.584   5.245   8.172  2.1550 -1.7591 -0.4386
  135OSM   C15F14713   5.621   5.419   8.305  0.1527 -0.5815 -0.6306
  135OSM   H15F14714   5.697   5.497   8.327 -1.5595  1.1734 -0.7036
  135OSM   H15G14715   5.590   5.362   8.395 -0.6050  2.8471  1.4593
  135OSM   C16F14716   5.496   5.493   8.268  0.2966  0.1209 -0.4726
  135OSM   H16F14717   5.424   5.416   8.234  1.5533 -1.3000  0.0074
  135OSM   H16G14718   5.512   5.554   8.176 -0.1293  1.4909  0.3250
  135OSM   C17F14719   5.425   5.574   8.383  0.3924 -0.3813  0.0967
  135OSM   H17F14720   5.500   5.635   8.437  1.9885 -1.2011 -1.0875
  135OSM   H17G14721   5.389   5.508   8.464 -0.8238 -0.3455 -0.3984
  135OSM   C18F14722   5.310   5.663   8.335  0.3935  0.2194  0.0374
  135OSM   H18F14723   5.339   5.715   8.242 -0.9102  1.5633  0.3353
  135OSM   H18G14724   5.295   5.743   8.411  0.1201 -0.6197  0.8922
  135OSM   H18H14725   5.225   5.597   8.306  0.1156  0.1996  0.8526
  136OSM      N14726   2.605   6.227   6.011 -0.0884  0.0819 -0.5339
  136OSM    C1514727   2.528   6.101   5.977 -0.2434  0.1319  0.4779
  136OSM   H15A14728   2.592   6.039   5.916 -0.3731  0.4449  0.0234
  136OSM   H15B14729   2.449   6.120   5.906  0.8379 -0.0581 -0.8225
  136OSM   H15C14730   2.477   6.059   6.063 -1.2274 -0.3413 -0.3081
  136OSM    C1414731   2.662   6.286   5.885  0.2426  0.7140 -0.5627
  136OSM   H14A14732   2.717   6.374   5.916 -3.3424  2.0425  2.7350
  136OSM   H14B14733   2.577   6.318   5.827  0.4121  2.3639  0.0542
  136OSM   H14C14734   2.720   6.214   5.829  0.7216 -0.0060  0.8287
  136OSM    C1314735   2.509   6.339   6.063  0.1896  0.2484 -0.0020
  136OSM   H13A14736   2.559   6.434   6.063 -0.2381  0.5845 -3.3546
  136OSM   H13B14737   2.470   6.322   6.162  1.7715  2.5669  1.1044
  136OSM   H13C14738   2.429   6.346   5.990  0.4861  1.3409 -0.2382
  136OSM    C1214739   2.708   6.206   6.116 -0.3461 -0.4957 -0.4054
  136OSM   H12A14740   2.798   6.162   6.075  0.6529 -0.2239  1.3849
  136OSM   H12B14741   2.667   6.135   6.187  2.1986 -1.9043 -0.2191
  136OSM    C1114742   2.758   6.330   6.192  0.1875  0.5283  0.4092
  136OSM   H11A14743   2.820   6.285   6.272 -0.9992 -2.6307 -0.2802
  136OSM   H11B14744   2.676   6.379   6.248  1.3193  2.0480  0.7927
  136OSM      P14745   2.806   6.570   6.121 -0.0025  0.1208  0.0236
  136OSM    O1314746   2.915   6.633   6.037  0.3260 -0.1140 -0.0034
  136OSM    O1414747   2.665   6.600   6.086  0.5549 -1.0111  0.4372
  136OSM    O1114748   2.827   6.603   6.275 -0.5567  0.6862 -0.5775
  136OSM    O1214749   2.842   6.415   6.119 -0.3934  0.2788 -0.0834
  136OSM    C1S14750   2.929   6.561   6.359 -0.6522  0.5481  0.4867
  136OSM    H1S14751   3.028   6.540   6.314 -1.4203  0.2649 -1.1035
  136OSM    H1T14752   2.908   6.470   6.419  1.7015  0.9296  2.0662
  136OSM     NF14753   3.060   6.636   6.553  0.3101 -0.5066 -0.4114
  136OSM    HNF14754   3.041   6.628   6.651  0.0129 -0.4710 -0.4643
  136OSM    C2S14755   2.956   6.678   6.468  0.7431 -0.0377  0.4066
  136OSM    H2S14756   2.980   6.767   6.407 -0.2069 -0.0023  0.0579
  136OSM    C3S14757   2.820   6.696   6.548 -0.2097  0.2509  0.2124
  136OSM    H3S14758   2.812   6.598   6.598  0.3418  0.8498  1.5128
  136OSM     O314759   2.707   6.726   6.470 -0.3946  0.4213 -0.2575
  136OSM    HO314760   2.752   6.714   6.386  2.4428  2.2061  0.8824
  136OSM    C4S14761   2.820   6.795   6.655 -0.2759  0.0187  0.1844
  136OSM    H4S14762   2.816   6.898   6.616  1.3721  0.3131  0.7010
  136OSM    C5S14763   2.829   6.761   6.781  0.1897 -0.7020 -0.0284
  136OSM    H5S14764   2.824   6.654   6.806 -0.9748 -0.2827  1.6923
  136OSM    C6S14765   2.828   6.859   6.897 -0.4510 -0.2885 -0.1273
  136OSM    H6S14766   2.723   6.854   6.931 -0.5970 -4.8868 -0.5638
  136OSM    H6T14767   2.847   6.966   6.877  3.1083 -0.4092  1.7827
  136OSM    C7S14768   2.910   6.806   7.017  0.0096 -0.1234  0.0732
  136OSM    H7S14769   3.007   6.757   6.993 -0.2182  0.2354 -1.7438
  136OSM    H7T14770   2.864   6.714   7.060  1.0688 -0.8091 -0.2231
  136OSM    C8S14771   2.925   6.913   7.128  0.2539 -0.5726  0.5693
  136OSM    H8S14772   2.822   6.946   7.155  0.6613  2.0954 -0.8134
  136OSM    H8T14773   2.975   7.007   7.097 -0.9240  1.1760  3.5181
  136OSM    C9S14774   2.988   6.862   7.259 -0.3156 -0.2892  0.0001
  136OSM    H9S14775   3.090   6.838   7.220  0.7366  0.7791  1.9474
  136OSM    H9T14776   2.923   6.779   7.292 -0.0541  0.0637  1.4401
  136OSM   C10S14777   2.993   6.982   7.363  0.2873 -0.2527 -0.5152
  136OSM   H10S14778   2.888   7.013   7.379  1.1035  2.8983 -0.5433
  136OSM   H10T14779   3.060   7.063   7.326 -0.1091  0.7194  0.8339
  136OSM   C11S14780   3.033   6.931   7.505 -0.3879  0.1780 -0.2663
  136OSM   H11S14781   3.054   7.023   7.563 -0.4120  1.4768 -2.2029
  136OSM   H11T14782   3.130   6.879   7.488 -1.0751 -0.6897 -1.6817
  136OSM   C12S14783   2.939   6.833   7.579 -0.2278 -0.1245 -0.2272
  136OSM   H12S14784   2.915   6.749   7.510 -5.0709  0.4181  0.4263
  136OSM   H12T14785   2.843   6.883   7.604 -0.8229 -0.7707 -1.1066
  136OSM   C13S14786   2.994   6.787   7.719 -0.2557  0.5397  0.1624
  136OSM   H13S14787   3.080   6.722   7.690 -1.4477 -0.7116 -0.6693
  136OSM   H13T14788   2.922   6.720   7.770 -0.0490 -0.0751 -0.3419
  136OSM   C14S14789   3.036   6.903   7.811 -0.1356  0.2310  0.2366
  136OSM   H14S14790   2.959   6.983   7.807 -0.7711 -0.3087  1.2836
  136OSM   H14T14791   3.133   6.952   7.785 -0.0231  0.8040  1.6252
  136OSM   C15S14792   3.052   6.859   7.958  0.4776  0.3469 -0.1035
  136OSM   H15S14793   3.144   6.797   7.964  2.3923  2.8556 -1.4778
  136OSM   H15T14794   2.960   6.803   7.986 -0.5752  2.1801  0.2388
  136OSM   C16S14795   3.073   6.980   8.054 -0.8755  0.6696 -0.6090
  136OSM   H16S14796   2.991   7.055   8.047 -2.2516 -0.4510  2.0466
  136OSM   H16T14797   3.162   7.034   8.016 -0.0233  0.9732  1.7207
  136OSM   C17S14798   3.102   6.922   8.188 -0.2040 -0.2256  0.0773
  136OSM   H17S14799   3.190   6.854   8.184 -0.2158 -0.4091  2.0189
  136OSM   H17T14800   3.020   6.854   8.219  1.1356 -2.9636 -1.9945
  136OSM   C18S14801   3.124   7.022   8.299 -0.0332  0.1221  0.1634
  136OSM   H18S14802   3.140   6.962   8.391  1.7710 -0.4596 -0.4737
  136OSM   H18T14803   3.027   7.069   8.325 -0.3934 -1.2393  1.3996
  136OSM   H18U14804   3.201   7.102   8.294  0.0866  0.0420  0.6871
  136OSM    C1F14805   3.185   6.635   6.510 -0.4025 -0.1713  0.1039
  136OSM     OF14806   3.211   6.678   6.397  0.3971  0.1329 -0.3105
  136OSM    C2F14807   3.287   6.594   6.613  0.1330  0.3267  0.4617
  136OSM    H2F14808   3.368   6.670   6.613 -0.9336  1.5774  2.7450
  136OSM    H2G14809   3.337   6.506   6.567  4.3631  2.9765 -0.5082
  136OSM    C3F14810   3.235   6.570   6.758  1.0820  0.3501 -0.5404
  136OSM    H3F14811   3.177   6.477   6.740  0.0024  1.3617 -2.7009
  136OSM    H3G14812   3.175   6.657   6.793  1.7837  0.6556 -0.0817
  136OSM    C4F14813   3.346   6.556   6.859 -0.0582  0.0736  0.6769
  136OSM    H4F14814   3.405   6.650   6.857  1.2728 -0.7474 -0.0493
  136OSM    H4G14815   3.413   6.474   6.823 -0.3835 -0.0606  0.3635
  136OSM    C5F14816   3.287   6.527   7.000 -0.2664 -0.2287  0.4033
  136OSM    H5F14817   3.226   6.435   6.985  0.6158 -0.8912  0.8130
  136OSM    H5G14818   3.224   6.614   7.028 -0.8397  1.1507 -4.2744
  136OSM    C6F14819   3.399   6.517   7.103  0.1479  0.3348  0.0337
  136OSM    H6F14820   3.458   6.611   7.107  1.3464 -0.4205  3.7061
  136OSM    H6G14821   3.461   6.434   7.063 -2.4230 -1.0350 -1.3474
  136OSM    C7F14822   3.343   6.485   7.244  0.4032 -0.1185 -1.4886
  136OSM    H7F14823   3.422   6.432   7.301  0.9256 -0.2078 -2.2849
  136OSM    H7G14824   3.259   6.414   7.224 -0.4114  0.0233  1.1061
  136OSM    C8F14825   3.285   6.605   7.323 -0.3070 -0.1327  0.2617
  136OSM    H8F14826   3.222   6.572   7.408 -0.1628 -0.5731  0.1969
  136OSM    H8G14827   3.220   6.663   7.254  0.0216  1.2922  1.0955
  136OSM    C9F14828   3.397   6.688   7.374 -0.3763 -0.7719 -0.0184
  136OSM    H9F14829   3.421   6.774   7.311 -0.7633  0.1819  1.1001
  136OSM   C10F14830   3.465   6.671   7.495 -0.1416 -0.1144  0.4957
  136OSM   H10F14831   3.545   6.740   7.528 -0.4421  0.5797 -0.1761
  136OSM   C11F14832   3.431   6.567   7.597 -0.4901 -0.1924  0.8228
  136OSM   H11F14833   3.513   6.496   7.621 -0.0303  0.3045  0.7283
  136OSM   H11G14834   3.349   6.499   7.566  1.5531 -0.9239 -3.6366
  136OSM   C12F14835   3.383   6.620   7.736 -0.0702  0.2444  0.7582
  136OSM   H12F14836   3.366   6.533   7.804 -0.9299 -1.9261 -2.0450
  136OSM   H12G14837   3.301   6.694   7.723 -1.2871 -0.6513  2.7519
  136OSM   C13F14838   3.489   6.697   7.819  0.2617 -0.3849  0.3175
  136OSM   H13F14839   3.554   6.762   7.757 -0.1801 -0.9145 -0.7131
  136OSM   H13G14840   3.551   6.628   7.880  1.6958  1.0418  0.5625
  136OSM   C14F14841   3.433   6.781   7.926 -0.4242 -0.1425 -0.2085
  136OSM   H14F14842   3.367   6.721   7.992 -0.3074  0.3257  0.3443
  136OSM   H14G14843   3.362   6.847   7.871 -1.5339 -1.6121 -0.5882
  136OSM   C15F14844   3.548   6.852   8.008  0.3646 -0.7710 -0.3726
  136OSM   H15F14845   3.609   6.919   7.943  0.2018  0.8484  1.0768
  136OSM   H15G14846   3.603   6.770   8.060 -0.1693 -0.5601  0.5458
  136OSM   C16F14847   3.490   6.933   8.125  0.2243 -0.6578  0.0195
  136OSM   H16F14848   3.423   6.871   8.188 -0.9431  0.0828 -0.4504
  136OSM   H16G14849   3.417   7.005   8.081  0.0266 -1.0471 -0.2961
  136OSM   C17F14850   3.600   7.004   8.209  0.0638 -0.2757  0.7070
  136OSM   H17F14851   3.659   7.071   8.143  1.7507 -1.2270  1.1765
  136OSM   H17G14852   3.664   6.924   8.253 -0.8973  0.5801  3.9505
  136OSM   C18F14853   3.542   7.098   8.315 -0.6239  0.0321 -0.4122
  136OSM   H18F14854   3.482   7.180   8.271 -1.3022 -0.2091  0.0378
  136OSM   H18G14855   3.623   7.138   8.380 -1.6773 -2.8041  3.0046
  136OSM   H18H14856   3.466   7.041   8.374 -0.2390 -0.8237 -0.7219
  137OSM      N14857   6.359   3.122   6.475 -0.0482 -0.0997 -0.0107
  137OSM    C1514858   6.246   3.215   6.476  0.0793  0.0767 -0.4136
  137OSM   H15A14859   6.252   3.287   6.557  0.3344  1.6884 -1.8089
  137OSM   H15B14860   6.157   3.154   6.476  1.7585 -2.5354 -0.4386
  137OSM   H15C14861   6.251   3.277   6.387  1.9798  0.2071 -0.2612
  137OSM    C1414862   6.483   3.190   6.517 -0.2736 -0.0423  0.0725
  137OSM   H14A14863   6.561   3.116   6.508 -1.9050 -1.7139 -0.9180
  137OSM   H14B14864   6.477   3.216   6.622  1.4007  1.2624 -0.1141
  137OSM   H14C14865   6.504   3.277   6.456  2.1606  0.6889  1.7853
  137OSM    C1314866   6.335   3.006   6.561  0.9452  0.7821  0.3641
  137OSM   H13A14867   6.414   2.932   6.555 -0.9829 -1.5370  1.5061
  137OSM   H13B14868   6.245   2.960   6.524  1.5529 -0.2281  0.0938
  137OSM   H13C14869   6.322   3.027   6.666  0.2079  1.1759  0.1963
  137OSM    C1214870   6.377   3.059   6.334 -0.0667  0.5650 -0.3953
  137OSM   H12A14871   6.371   3.133   6.256  1.0513  1.0297 -0.0612
  137OSM   H12B14872   6.305   2.984   6.307  0.7697 -0.0789 -0.9030
  137OSM    C1114873   6.513   2.988   6.307  0.1320 -0.8407 -0.9301
  137OSM   H11A14874   6.596   3.061   6.301 -0.5505  0.6363  3.4077
  137OSM   H11B14875   6.509   2.937   6.209 -0.4535 -0.3258 -1.1827
  137OSM      P14876   6.525   2.739   6.382  0.1440  0.2992  0.0087
  137OSM    O1314877   6.422   2.721   6.277  0.5036  0.1817 -0.2719
  137OSM    O1414878   6.652   2.670   6.357  0.1139  0.6928  0.0363
  137OSM    O1114879   6.469   2.690   6.518  0.0681  0.1779 -0.1262
  137OSM    O1214880   6.556   2.899   6.405  0.0344  0.4001 -0.1201
  137OSM    C1S14881   6.540   2.725   6.640 -0.4557  0.3071  0.2031
  137OSM    H1S14882   6.583   2.827   6.642  1.9020 -0.6274  1.6012
  137OSM    H1T14883   6.636   2.673   6.658 -0.0278  1.7498  2.5189
  137OSM     NF14884   6.498   2.734   6.883  0.7727  0.2920  0.1044
  137OSM    HNF14885   6.536   2.663   6.943  1.7354  0.5804 -0.1422
  137OSM    C2S14886   6.442   2.694   6.759  0.2291  0.7274 -0.0134
  137OSM    H2S14887   6.355   2.761   6.743  1.0126  1.3355 -2.1257
  137OSM    C3S14888   6.388   2.545   6.756 -0.5028 -0.3712 -0.2749
  137OSM    H3S14889   6.474   2.477   6.775  0.7570  1.1681 -0.2591
  137OSM     O314890   6.331   2.505   6.635  0.0334  0.5436  0.4053
  137OSM    HO314891   6.361   2.572   6.573  0.3605  0.3307  0.3320
  137OSM    C4S14892   6.285   2.525   6.854  0.4110 -0.6495  0.3490
  137OSM    H4S14893   6.208   2.604   6.852 -0.1256 -1.1265  1.3611
  137OSM    C5S14894   6.270   2.418   6.934 -0.5815 -0.3119  0.5250
  137OSM    H5S14895   6.351   2.343   6.932  1.8564  2.1402 -0.9404
  137OSM    C6S14896   6.155   2.410   7.035 -0.1648  0.0505 -0.2501
  137OSM    H6S14897   6.132   2.302   7.049 -0.3538  0.2049  0.6532
  137OSM    H6T14898   6.060   2.449   6.994 -0.0066 -0.0499 -0.7285
  137OSM    C7S14899   6.167   2.485   7.169  0.1543  0.0135 -0.2392
  137OSM    H7S14900   6.151   2.593   7.153 -0.5611  0.2755  1.9228
  137OSM    H7T14901   6.261   2.452   7.218 -0.2878  0.0293  0.6379
  137OSM    C8S14902   6.044   2.460   7.255  0.0153  0.0703  0.1553
  137OSM    H8S14903   6.030   2.350   7.262  1.3486 -0.0110  2.5818
  137OSM    H8T14904   5.956   2.508   7.207 -1.2018 -1.7874  0.4206
  137OSM    C9S14905   6.050   2.517   7.396 -0.5228  0.0218 -0.2768
  137OSM    H9S14906   6.038   2.627   7.395  2.2879  0.3918 -1.4636
  137OSM    H9T14907   6.152   2.498   7.435 -0.4063  3.0487  1.1579
  137OSM   C10S14908   5.950   2.461   7.496 -0.4643  0.1082 -0.0065
  137OSM   H10S14909   5.959   2.351   7.490  1.4296  0.1159  1.6206
  137OSM   H10T14910   5.847   2.492   7.469 -0.4370  0.2833  0.0886
  137OSM   C11S14911   5.971   2.502   7.643 -0.7241  0.2043  0.2413
  137OSM   H11S14912   5.918   2.599   7.656 -1.9433 -0.1012 -1.9795
  137OSM   H11T14913   6.080   2.512   7.662 -0.5301 -0.3262 -0.5383
  137OSM   C12S14914   5.910   2.399   7.739 -0.5875 -0.9229  0.4489
  137OSM   H12S14915   5.956   2.298   7.729  0.0069 -0.6846  0.7156
  137OSM   H12T14916   5.806   2.387   7.701  0.2537 -1.4344 -1.8317
  137OSM   C13S14917   5.901   2.451   7.885  0.1497 -0.0201  0.7986
  137OSM   H13S14918   5.836   2.374   7.931  1.3164 -2.2802 -1.1084
  137OSM   H13T14919   5.852   2.550   7.882  1.0979  0.4344 -0.5571
  137OSM   C14S14920   6.036   2.469   7.965 -0.5144 -0.1638 -0.4986
  137OSM   H14S14921   6.095   2.532   7.895  0.8078  1.0621  1.5928
  137OSM   H14T14922   6.090   2.372   7.977  0.6427  0.5886  0.6831
  137OSM   C15S14923   6.029   2.549   8.096 -0.4263 -0.3458  0.0496
  137OSM   H15S14924   5.975   2.645   8.083  1.2502  0.5857 -0.2863
  137OSM   H15T14925   6.132   2.572   8.131 -1.4988  2.8652  1.4385
  137OSM   C16S14926   5.962   2.475   8.211 -0.4811  0.6088 -0.0808
  137OSM   H16S14927   6.023   2.386   8.237 -2.1802 -1.1294 -1.7002
  137OSM   H16T14928   5.861   2.436   8.185  0.6995 -1.8082 -1.4667
  137OSM   C17S14929   5.944   2.565   8.333 -0.1587 -0.2992  0.1420
  137OSM   H17S14930   5.876   2.644   8.293  1.8419  2.0199  1.0669
  137OSM   H17T14931   6.034   2.629   8.347 -1.6668  1.3593  3.6759
  137OSM   C18S14932   5.898   2.500   8.463  0.3804  0.0732 -0.5068
  137OSM   H18S14933   5.799   2.449   8.452  0.8417 -1.2932  1.1437
  137OSM   H18T14934   5.887   2.574   8.545 -1.3620 -1.5766  0.8637
  137OSM   H18U14935   5.969   2.422   8.497  0.3407  0.3172  0.1628
  137OSM    C1F14936   6.515   2.864   6.915  0.3655  0.5014  0.2327
  137OSM     OF14937   6.486   2.949   6.836  0.8190  0.7762  0.1660
  137OSM    C2F14938   6.567   2.899   7.055  0.0698 -0.2586  0.1397
  137OSM    H2F14939   6.562   3.010   7.057 -3.1377 -0.2717 -1.4772
  137OSM    H2G14940   6.673   2.866   7.062  0.3928  0.7737  0.2799
  137OSM    C3F14941   6.475   2.844   7.168 -0.4494 -0.4174 -0.3377
  137OSM    H3F14942   6.475   2.733   7.162 -1.0482 -0.4687  0.5087
  137OSM    H3G14943   6.376   2.889   7.148  0.5148  0.4302 -3.9699
  137OSM    C4F14944   6.546   2.867   7.306 -0.2585  0.5571 -0.3787
  137OSM    H4F14945   6.578   2.973   7.313  1.2020  0.2476 -1.8058
  137OSM    H4G14946   6.626   2.792   7.289 -3.4777 -2.7955 -2.3555
  137OSM    C5F14947   6.469   2.818   7.432  0.5920 -0.2630 -0.2090
  137OSM    H5F14948   6.379   2.883   7.439  0.1234 -0.9458  0.1252
  137OSM    H5G14949   6.535   2.853   7.515 -1.3001 -2.5779  2.4347
  137OSM    C6F14950   6.433   2.675   7.452  0.1968 -0.0598 -0.0633
  137OSM    H6F14951   6.523   2.613   7.431 -0.0327  0.2861 -2.2783
  137OSM    H6G14952   6.358   2.653   7.373  0.6772  0.9264 -0.8157
  137OSM    C7F14953   6.354   2.641   7.578 -0.0191  0.3819  0.4565
  137OSM    H7F14954   6.274   2.564   7.566 -0.8371  1.2408  0.2399
  137OSM    H7G14955   6.302   2.734   7.611 -1.6517 -0.7079  1.0669
  137OSM    C8F14956   6.443   2.586   7.697  0.1185 -0.6353 -0.0632
  137OSM    H8F14957   6.479   2.483   7.674  1.7453 -0.1337  0.0693
  137OSM    H8G14958   6.371   2.573   7.780  2.7674 -4.0261  1.9624
  137OSM    C9F14959   6.563   2.681   7.736 -0.2503  1.1160  0.4938
  137OSM    H9F14960   6.533   2.787   7.729 -1.4769  0.6526 -3.4038
  137OSM   C10F14961   6.692   2.642   7.729 -0.1241 -0.9838 -0.0883
  137OSM   H10F14962   6.778   2.705   7.757  1.0450 -3.0146  1.1426
  137OSM   C11F14963   6.742   2.511   7.700  0.4783  0.4379  0.2423
  137OSM   H11F14964   6.840   2.513   7.647  0.5812 -1.0326  0.3383
  137OSM   H11G14965   6.676   2.455   7.632 -0.1590  0.5955  0.7244
  137OSM   C12F14966   6.757   2.430   7.832 -0.3648 -0.4338  0.1460
  137OSM   H12F14967   6.780   2.327   7.795 -0.3168 -0.5075  0.3807
  137OSM   H12G14968   6.662   2.420   7.888  0.1608  0.6134  1.2801
  137OSM   C13F14969   6.867   2.500   7.916 -0.1293  0.0851  0.2569
  137OSM   H13F14970   6.841   2.597   7.965  2.2659 -0.2151  2.3570
  137OSM   H13G14971   6.958   2.510   7.852  1.0107 -1.1992  1.5987
  137OSM   C14F14972   6.925   2.413   8.037 -0.2035  0.5842 -0.2623
  137OSM   H14F14973   7.013   2.463   8.083  0.3982 -0.5911 -0.0922
  137OSM   H14G14974   6.944   2.310   7.999 -0.5344 -0.0803  1.2729
  137OSM   C15F14975   6.826   2.399   8.151  0.1464  0.5567 -0.8534
  137OSM   H15F14976   6.737   2.337   8.126 -0.9890  1.7612  0.0611
  137OSM   H15G14977   6.787   2.499   8.180  0.6541  0.6555 -0.4898
  137OSM   C16F14978   6.892   2.340   8.276 -0.0443  0.4997 -0.1867
  137OSM   H16F14979   6.982   2.398   8.306 -1.5866  2.3954  1.0365
  137OSM   H16G14980   6.919   2.238   8.243  0.0556  0.5014 -0.1089
  137OSM   C17F14981   6.798   2.326   8.394 -0.1386 -0.7953 -0.4749
  137OSM   H17F14982   6.857   2.276   8.474 -1.1822 -2.6990 -0.8197
  137OSM   H17G14983   6.720   2.256   8.357 -1.3202  1.0484 -1.6047
  137OSM   C18F14984   6.732   2.461   8.455 -0.2165 -0.5904  0.3513
  137OSM   H18F14985   6.824   2.518   8.482 -0.6190 -0.1115  0.7319
  137OSM   H18G14986   6.685   2.446   8.554 -2.0672  1.5608 -0.0987
  137OSM   H18H14987   6.667   2.512   8.380  0.1082 -2.4628 -1.2953
  138OSM      N14988   1.001   5.851   5.937 -0.0091 -0.3180 -0.5994
  138OSM    C1514989   1.134   5.784   5.916  0.5801  0.2521 -0.1735
  138OSM   H15A14990   1.139   5.704   5.989 -2.5558 -0.3419 -0.4783
  138OSM   H15B14991   1.214   5.855   5.933  1.2572 -0.4072 -0.5254
  138OSM   H15C14992   1.145   5.746   5.816 -0.0608  1.4293 -0.7020
  138OSM    C1414993   0.981   5.954   5.830  0.6044  0.2312  0.1539
  138OSM   H14A14994   0.957   5.906   5.736 -0.4437  0.1676  0.4460
  138OSM   H14B14995   1.067   6.018   5.816  1.8932 -1.3399  0.6039
  138OSM   H14C14996   0.895   6.016   5.849 -0.6884 -1.2875 -0.5412
  138OSM    C1314997   0.898   5.747   5.928  0.3781 -0.2441 -0.1350
  138OSM   H13A14998   0.877   5.724   5.825 -1.0762 -1.3716  0.3595
  138OSM   H13B14999   0.807   5.779   5.976 -0.1388 -3.5061  1.3801
  138OSM   H13C15000   0.935   5.653   5.967  2.2430  0.6721  0.4310
  138OSM    C1215001   1.004   5.910   6.068 -0.2900 -0.1645  0.0626
  138OSM   H12A15002   0.979   5.826   6.132 -0.0444  0.7021  1.3288
  138OSM   H12B15003   0.937   5.995   6.070  2.2324  1.9265  0.7941
  138OSM    C1115004   1.128   5.973   6.127 -0.4102  0.2692  0.3274
  138OSM   H11A15005   1.216   5.909   6.147  0.2599  1.5077  1.4933
  138OSM   H11B15006   1.109   5.999   6.233 -2.1584 -0.8596  0.3274
  138OSM      P15007   1.080   6.222   6.060 -0.3214  0.3331 -0.0407
  138OSM    O1315008   1.099   6.293   5.937  0.1511  0.6620  0.6927
  138OSM    O1415009   0.946   6.190   6.113 -0.5722 -0.2670  0.3639
  138OSM    O1115010   1.157   6.297   6.169  0.2557  0.0310 -0.3608
  138OSM    O1215011   1.169   6.084   6.049 -0.3286  0.6543 -0.4602
  138OSM    C1S15012   1.075   6.362   6.277  0.1811  0.1499  0.0041
  138OSM    H1S15013   1.029   6.289   6.347 -1.4414  1.2282  0.1153
  138OSM    H1T15014   0.994   6.432   6.247  1.2480  0.7593 -1.5798
  138OSM     NF15015   1.098   6.454   6.496  0.5145 -0.0975  0.1917
  138OSM    HNF15016   1.050   6.537   6.523 -0.1636 -1.3474  3.2229
  138OSM    C2S15017   1.160   6.448   6.369 -0.2095  0.6353 -0.4860
  138OSM    H2S15018   1.253   6.387   6.379 -1.4086 -1.5621 -1.8959
  138OSM    C3S15019   1.191   6.587   6.318  0.7357 -0.2629  0.1996
  138OSM    H3S15020   1.094   6.641   6.317  0.6171 -0.3944 -2.5116
  138OSM     O315021   1.231   6.582   6.179 -0.0117  0.1665 -0.5981
  138OSM    HO315022   1.216   6.489   6.161 -0.8196 -0.0868  1.1171
  138OSM    C4S15023   1.281   6.666   6.411 -0.0009  0.2866 -0.5231
  138OSM    H4S15024   1.225   6.732   6.479 -0.8643 -1.6202  0.7084
  138OSM    C5S15025   1.416   6.673   6.420  0.6696  0.0583 -0.0791
  138OSM    H5S15026   1.470   6.610   6.348  1.7190  0.3589  0.4219
  138OSM    C6S15027   1.491   6.757   6.517 -0.3224  0.2352 -0.0377
  138OSM    H6S15028   1.424   6.835   6.557  0.8291  0.6656  1.1373
  138OSM    H6T15029   1.572   6.812   6.465  0.9526 -1.2341  0.2982
  138OSM    C7S15030   1.543   6.675   6.629  0.0089 -0.0089  0.1423
  138OSM    H7S15031   1.599   6.736   6.703  0.3854 -1.2497  0.9144
  138OSM    H7T15032   1.618   6.598   6.599 -1.1992 -1.4804  0.8195
  138OSM    C8S15033   1.435   6.604   6.717  0.2035 -0.0058  0.4908
  138OSM    H8S15034   1.402   6.513   6.662  0.8158 -0.0154  0.1306
  138OSM    H8T15035   1.342   6.665   6.729 -1.1996 -1.8190 -0.5888
  138OSM    C9S15036   1.491   6.568   6.863  0.2300  0.4120  0.2091
  138OSM    H9S15037   1.532   6.657   6.916 -0.0892  0.2102  0.8154
  138OSM    H9T15038   1.572   6.493   6.855  0.1016  0.2678  0.2529
  138OSM   C10S15039   1.374   6.506   6.951 -0.4821  0.3938  0.1015
  138OSM   H10S15040   1.344   6.413   6.899  1.9139 -1.1324  1.2379
  138OSM   H10T15041   1.293   6.581   6.959 -0.4607  0.5196 -0.8389
  138OSM   C11S15042   1.422   6.474   7.100  0.5460 -0.0399 -0.5655
  138OSM   H11S15043   1.469   6.570   7.131  1.5640 -0.8682  0.5813
  138OSM   H11T15044   1.489   6.385   7.097  0.1652 -0.3227 -0.8127
  138OSM   C12S15045   1.309   6.450   7.204  0.7695 -0.1395  0.0843
  138OSM   H12S15046   1.272   6.345   7.200 -0.6650  0.3393  0.5229
  138OSM   H12T15047   1.215   6.505   7.183  0.3671  0.3573  2.8773
  138OSM   C13S15048   1.355   6.469   7.351 -0.0820  0.5034 -0.0824
  138OSM   H13S15049   1.411   6.565   7.362  0.9023 -0.1539  0.8738
  138OSM   H13T15050   1.427   6.387   7.369 -1.7918 -1.0172  0.0962
  138OSM   C14S15051   1.242   6.464   7.458  0.3490 -0.1959 -0.2523
  138OSM   H14S15052   1.183   6.370   7.449  2.2545 -1.3491 -1.2732
  138OSM   H14T15053   1.161   6.537   7.438 -1.1294 -1.8054 -0.3691
  138OSM   C15S15054   1.292   6.482   7.601  0.1358 -0.3199 -0.4443
  138OSM   H15S15055   1.305   6.591   7.613  1.5931 -0.5735  0.6014
  138OSM   H15T15056   1.390   6.436   7.627  0.6275  2.7884  4.6265
  138OSM   C16S15057   1.191   6.436   7.703  0.1227 -0.1865 -0.3886
  138OSM   H16S15058   1.085   6.432   7.671 -0.4186 -0.9759  1.3403
  138OSM   H16T15059   1.206   6.518   7.777  0.5847 -2.0178  1.6786
  138OSM   C17S15060   1.220   6.294   7.764 -0.1839 -0.2609 -0.7723
  138OSM   H17S15061   1.267   6.330   7.858  0.9742 -1.3362 -0.9158
  138OSM   H17T15062   1.298   6.255   7.696  0.3055  1.2877 -1.1512
  138OSM   C18S15063   1.098   6.203   7.782 -0.2380 -0.3154 -0.0826
  138OSM   H18S15064   1.040   6.261   7.857 -0.0833  1.6078 -1.3822
  138OSM   H18T15065   1.128   6.103   7.821 -2.6398 -0.3038  2.1156
  138OSM   H18U15066   1.036   6.195   7.690  2.9959  2.5744 -2.7957
  138OSM    C1F15067   1.085   6.358   6.588 -0.0726  0.0681 -0.2249
  138OSM     OF15068   1.157   6.258   6.599 -0.0499 -0.7058 -0.1302
  138OSM    C2F15069   0.988   6.397   6.697 -0.2583  0.0326  0.2924
  138OSM    H2F15070   0.917   6.476   6.661 -2.2476 -2.2396 -1.0921
  138OSM    H2G15071   1.039   6.424   6.791 -1.0175 -1.8596  1.2976
  138OSM    C3F15072   0.882   6.277   6.720  1.0808  0.1600 -0.1721
  138OSM    H3F15073   0.826   6.234   6.634 -1.5701  1.1410  0.9591
  138OSM    H3G15074   0.804   6.311   6.790  0.6306 -0.4639 -0.3597
  138OSM    C4F15075   0.957   6.171   6.804  0.8108 -0.2888  0.2509
  138OSM    H4F15076   0.985   6.215   6.902 -1.5901  1.1841  0.3725
  138OSM    H4G15077   1.045   6.125   6.754  2.1173 -0.6498  2.7245
  138OSM    C5F15078   0.847   6.078   6.852  0.6109 -0.2083 -0.2287
  138OSM    H5F15079   0.775   6.042   6.776  0.0820 -1.0267  0.6354
  138OSM    H5G15080   0.790   6.132   6.930  2.1427  1.9501 -0.5400
  138OSM    C6F15081   0.914   5.947   6.920  0.4363  0.4208  0.3941
  138OSM    H6F15082   0.835   5.908   6.987 -0.9506 -2.1880 -2.5161
  138OSM    H6G15083   1.005   5.984   6.973  0.3874  0.8158  0.2046
  138OSM    C7F15084   0.949   5.836   6.820  0.4173 -0.0124  0.3775
  138OSM    H7F15085   1.021   5.877   6.746 -1.5430  0.2496 -1.4938
  138OSM    H7G15086   0.858   5.811   6.762  0.3777 -2.4002  1.3487
  138OSM    C8F15087   1.002   5.700   6.870 -0.2657  0.6977 -0.2443
  138OSM    H8F15088   1.079   5.731   6.945 -0.7392  2.0036 -0.2786
  138OSM    H8G15089   1.056   5.646   6.790  0.6848 -0.7163  1.2665
  138OSM    C9F15090   0.882   5.628   6.937 -0.6883  0.0254 -0.1909
  138OSM    H9F15091   0.822   5.588   6.854  2.6173 -0.2295 -2.6996
  138OSM   C10F15092   0.849   5.610   7.068 -0.3585 -0.2076 -0.6835
  138OSM   H10F15093   0.760   5.555   7.104  1.2190 -2.2240  0.4159
  138OSM   C11F15094   0.929   5.666   7.190  0.0494 -0.9581  0.6448
  138OSM   H11F15095   1.001   5.742   7.152 -0.3803 -1.4196 -1.1635
  138OSM   H11G15096   0.988   5.591   7.247  2.1325 -0.5974 -0.9272
  138OSM   C12F15097   0.850   5.756   7.289  0.2063  0.6285  0.2474
  138OSM   H12F15098   0.785   5.698   7.358 -0.8109  0.6698 -0.6504
  138OSM   H12G15099   0.798   5.825   7.220  2.3967  0.2140 -1.9568
  138OSM   C13F15100   0.933   5.829   7.394 -0.5021 -0.1552 -0.5163
  138OSM   H13F15101   0.988   5.907   7.338 -1.8888  1.5306  0.3514
  138OSM   H13G15102   0.994   5.752   7.445  1.7549  2.0003  0.1980
  138OSM   C14F15103   0.848   5.907   7.494  1.1126 -0.1013 -0.5443
  138OSM   H14F15104   0.909   5.970   7.563 -0.6878 -0.0926  1.1313
  138OSM   H14G15105   0.783   5.843   7.556  0.4285  2.0773  1.1311
  138OSM   C15F15106   0.755   6.019   7.437  0.1769 -0.3175  0.4869
  138OSM   H15F15107   0.720   6.091   7.514  0.7638  0.9094 -0.3500
  138OSM   H15G15108   0.670   5.973   7.382 -0.8869  1.6484  0.3947
  138OSM   C16F15109   0.805   6.116   7.321  0.1639  0.1102 -0.2345
  138OSM   H16F15110   0.725   6.190   7.300 -0.9435 -0.4711  1.6641
  138OSM   H16G15111   0.828   6.052   7.234  0.7765  0.3468 -0.2581
  138OSM   C17F15112   0.931   6.201   7.344 -0.3716  1.0663  0.1879
  138OSM   H17F15113   1.014   6.127   7.342 -1.2388 -0.1205  2.9941
  138OSM   H17G15114   0.937   6.257   7.439  0.6861  0.5392  0.4420
  138OSM   C18F15115   0.967   6.293   7.230  0.1144  0.1618  0.4542
  138OSM   H18F15116   1.074   6.321   7.234 -0.0615  0.7230  1.9957
  138OSM   H18G15117   0.913   6.389   7.249 -0.4301 -0.3510  1.6084
  138OSM   H18H15118   0.939   6.249   7.132  0.0736  2.2551 -0.5425
  139OSM      N15119   6.584   1.401   6.017 -0.0491  0.0457 -0.3698
  139OSM    C1515120   6.708   1.388   5.936  0.6660 -0.3835  0.1960
  139OSM   H15A15121   6.770   1.321   5.994 -1.4503 -1.6246  1.1365
  139OSM   H15B15122   6.761   1.482   5.922  1.0054 -0.7296 -0.9574
  139OSM   H15C15123   6.689   1.351   5.836  0.6170  0.6835 -0.2058
  139OSM    C1415124   6.492   1.508   5.970 -0.0171  0.1020  0.2246
  139OSM   H14A15125   6.542   1.602   5.952  1.1912 -0.0447  2.4111
  139OSM   H14B15126   6.422   1.540   6.045 -0.6741  2.6248 -1.3578
  139OSM   H14C15127   6.432   1.481   5.884 -2.0286  0.9280  1.3175
  139OSM    C1315128   6.509   1.277   6.026 -0.5695  0.1730 -0.5774
  139OSM   H13A15129   6.488   1.243   5.926  0.0868 -0.5197 -0.4820
  139OSM   H13B15130   6.414   1.277   6.079 -0.1985 -3.6139  0.3587
  139OSM   H13C15131   6.563   1.205   6.084 -0.6940  0.8916  0.4691
  139OSM    C1215132   6.626   1.445   6.156  0.3158 -0.3233 -0.1771
  139OSM   H12A15133   6.533   1.450   6.210  0.1154  2.6127 -0.6192
  139OSM   H12B15134   6.674   1.542   6.157  0.1946 -0.1574 -3.0566
  139OSM    C1115135   6.721   1.355   6.234 -0.7192  0.3698  0.1296
  139OSM   H11A15136   6.746   1.412   6.325 -0.7900  0.8235 -0.1313
  139OSM   H11B15137   6.821   1.349   6.184 -0.6552 -3.4678  0.3944
  139OSM      P15138   6.748   1.096   6.227  0.4145 -0.1668  0.0365
  139OSM    O1315139   6.658   1.001   6.155 -0.8037  0.1503 -0.5256
  139OSM    O1415140   6.882   1.120   6.171 -0.5326 -0.2722 -0.2249
  139OSM    O1115141   6.776   1.055   6.376  0.2694  0.3184  0.2070
  139OSM    O1215142   6.668   1.225   6.261 -0.5934 -0.2737  0.3607
  139OSM    C1S15143   6.799   1.142   6.486 -0.4854 -0.2288  0.0770
  139OSM    H1S15144   6.714   1.204   6.522 -1.2209 -2.0831  1.7338
  139OSM    H1T15145   6.890   1.200   6.461  0.2895 -1.6897 -0.6344
  139OSM     NF15146   6.847   1.150   6.727 -0.9187 -0.0268 -0.0178
  139OSM    HNF15147   6.936   1.191   6.747 -2.1738  2.6420  0.5747
  139OSM    C2S15148   6.838   1.063   6.612 -0.0110  0.4256 -0.0670
  139OSM    H2S15149   6.757   0.990   6.631 -1.4319  1.6835 -1.0279
  139OSM    C3S15150   6.962   0.972   6.583 -0.7710  0.4852 -0.6830
  139OSM    H3S15151   7.043   1.045   6.563  0.4599 -0.8421 -0.7377
  139OSM     O315152   6.951   0.878   6.470  0.1927  0.2372 -0.0831
  139OSM    HO315153   6.873   0.910   6.425  0.6023  0.6334 -0.5307
  139OSM    C4S15154   7.003   0.906   6.713 -0.0939  0.2401 -0.5046
  139OSM    H4S15155   7.065   0.972   6.775 -1.5549  0.8075  0.3988
  139OSM    C5S15156   6.957   0.790   6.766  0.1131  0.2694  0.3034
  139OSM    H5S15157   6.904   0.720   6.701  1.4039  1.7697 -2.5258
  139OSM    C6S15158   7.002   0.743   6.907  0.2225 -0.0341 -0.0511
  139OSM    H6S15159   7.095   0.787   6.949 -0.1722 -1.5502  2.6789
  139OSM    H6T15160   7.010   0.632   6.910  1.1168  0.0499  1.2002
  139OSM    C7S15161   6.893   0.763   7.009 -0.5149 -0.0072 -0.2002
  139OSM    H7S15162   6.929   0.705   7.097  1.2352 -4.8653 -3.6850
  139OSM    H7T15163   6.803   0.711   6.972 -0.2378 -0.1997 -0.6155
  139OSM    C8S15164   6.845   0.914   7.032  0.1239  0.1174  0.3062
  139OSM    H8S15165   6.745   0.921   7.080  0.0546  1.4248  0.0124
  139OSM    H8T15166   6.839   0.968   6.936 -1.0613  1.4449  1.0919
  139OSM    C9S15167   6.937   0.997   7.121  0.2061  0.4811 -0.4454
  139OSM    H9S15168   6.891   1.098   7.125  1.2387  0.9366  0.5242
  139OSM    H9T15169   7.031   1.005   7.062 -0.5749  0.0968 -1.8009
  139OSM   C10S15170   6.955   0.944   7.262  0.1801 -0.1990  0.0646
  139OSM   H10S15171   6.988   0.838   7.260 -3.4598 -1.4783 -2.6226
  139OSM   H10T15172   6.854   0.936   7.308 -0.7674 -4.6212 -2.2683
  139OSM   C11S15173   7.044   1.043   7.348  0.0608  0.2020 -0.7402
  139OSM   H11S15174   7.021   1.148   7.322 -1.2396  0.6422  1.9004
  139OSM   H11T15175   7.143   1.024   7.303 -0.7364 -1.1407 -2.0462
  139OSM   C12S15176   7.039   1.030   7.500 -1.1699  0.5042  0.4671
  139OSM   H12S15177   7.109   1.104   7.545  0.0689  0.2949 -1.0412
  139OSM   H12T15178   7.068   0.924   7.515 -1.7224  0.2680 -0.0834
  139OSM   C13S15179   6.900   1.065   7.562 -0.2628  0.6527  0.0865
  139OSM   H13S15180   6.824   0.993   7.524 -1.6563 -0.0528  3.7471
  139OSM   H13T15181   6.881   1.172   7.540  1.0124  0.8249 -0.2378
  139OSM   C14S15182   6.888   1.033   7.710 -0.3995 -0.0364 -0.4836
  139OSM   H14S15183   6.967   1.092   7.761  0.5903 -1.2411 -0.5751
  139OSM   H14T15184   6.923   0.932   7.741 -0.8504  0.7295  2.8425
  139OSM   C15S15185   6.750   1.046   7.772 -0.0737 -0.5838 -0.2068
  139OSM   H15S15186   6.683   0.982   7.711 -0.6860 -1.8337  1.6902
  139OSM   H15T15187   6.710   1.149   7.759 -0.3000 -0.5336  0.8113
  139OSM   C16S15188   6.739   0.989   7.915  0.2993 -0.1770 -0.2548
  139OSM   H16S15189   6.803   0.902   7.944  2.6575  2.3291  2.8117
  139OSM   H16T15190   6.634   0.957   7.929  0.6000 -1.0906  0.0088
  139OSM   C17S15191   6.753   1.094   8.024  0.6845  0.8705  0.2121
  139OSM   H17S15192   6.708   1.193   8.002  1.1205  0.6798 -1.7960
  139OSM   H17T15193   6.862   1.111   8.032  0.5880  2.2384 -0.8907
  139OSM   C18S15194   6.706   1.058   8.166 -0.0974  0.3787 -0.0194
  139OSM   H18S15195   6.768   0.976   8.208  1.6118 -0.2393 -3.3432
  139OSM   H18T15196   6.597   1.037   8.170  0.1126 -0.5024  2.1309
  139OSM   H18U15197   6.704   1.152   8.224 -0.3671  0.3780 -0.0285
  139OSM    C1F15198   6.740   1.209   6.784 -0.1617  0.8601  0.6064
  139OSM     OF15199   6.628   1.171   6.747  0.3896 -0.1509 -0.4018
  139OSM    C2F15200   6.777   1.315   6.885 -0.0637  0.6389 -0.6057
  139OSM    H2F15201   6.836   1.397   6.839  0.5280  1.5747  1.6741
  139OSM    H2G15202   6.843   1.265   6.959 -2.5407 -0.9972  0.6194
  139OSM    C3F15203   6.656   1.365   6.965  0.2918  0.6670 -0.3823
  139OSM    H3F15204   6.587   1.284   6.997 -0.8779  1.9780  0.5315
  139OSM    H3G15205   6.598   1.428   6.893 -2.0677  2.6453  2.9340
  139OSM    C4F15206   6.688   1.445   7.095 -0.0832  0.2064 -0.6007
  139OSM    H4F15207   6.594   1.498   7.117  1.0039  2.3648 -0.8920
  139OSM    H4G15208   6.757   1.529   7.070  1.6361 -1.1346 -0.6216
  139OSM    C5F15209   6.726   1.354   7.210  0.5031  0.6222  0.1908
  139OSM    H5F15210   6.833   1.367   7.236  0.2449  0.6174  1.2787
  139OSM    H5G15211   6.707   1.246   7.195  0.3991  0.5922  0.5303
  139OSM    C6F15212   6.661   1.380   7.344  0.0960  0.4472 -0.7985
  139OSM    H6F15213   6.707   1.298   7.404 -0.2252 -1.0001 -2.4786
  139OSM    H6G15214   6.551   1.366   7.342 -0.0993  1.9385 -1.3230
  139OSM    C7F15215   6.704   1.511   7.407 -0.3811  0.1896  0.0418
  139OSM    H7F15216   6.655   1.591   7.348  2.3136  1.2411 -0.9370
  139OSM    H7G15217   6.814   1.524   7.399 -0.5913  3.6947  1.1022
  139OSM    C8F15218   6.668   1.521   7.549  0.2144 -0.3512  0.6282
  139OSM    H8F15219   6.560   1.497   7.561 -0.5223  2.8960  1.6202
  139OSM    H8G15220   6.668   1.629   7.577  2.6112  0.0573 -0.6254
  139OSM    C9F15221   6.748   1.429   7.636 -0.5129  0.5521 -0.3293
  139OSM    H9F15222   6.805   1.350   7.584 -1.3282 -1.7067  2.0499
  139OSM   C10F15223   6.762   1.445   7.767  0.2426 -0.4286 -0.2342
  139OSM   H10F15224   6.827   1.376   7.823 -0.3427 -0.7305  0.0848
  139OSM   C11F15225   6.705   1.557   7.849 -0.4312 -0.1639  0.3151
  139OSM   H11F15226   6.623   1.618   7.806 -1.8564 -1.8606  0.4948
  139OSM   H11G15227   6.792   1.626   7.846  0.0313 -0.6674  1.5466
  139OSM   C12F15228   6.659   1.518   7.984 -0.8002 -0.2160  0.0135
  139OSM   H12F15229   6.584   1.437   7.992 -0.7784 -0.2178  0.2231
  139OSM   H12G15230   6.598   1.601   8.026 -0.9192 -0.1154 -0.3599
  139OSM   C13F15231   6.785   1.488   8.072 -0.4949 -0.1776 -0.7979
  139OSM   H13F15232   6.855   1.573   8.056 -3.4296  1.9515 -3.4048
  139OSM   H13G15233   6.830   1.393   8.033 -0.0334 -0.4695  0.3890
  139OSM   C14F15234   6.744   1.470   8.216  0.7283 -0.0646  0.0121
  139OSM   H14F15235   6.662   1.396   8.216 -0.6412  1.3865 -0.3352
  139OSM   H14G15236   6.694   1.562   8.253  2.0475  0.7552 -0.1832
  139OSM   C15F15237   6.863   1.437   8.311 -0.0685 -0.7860  0.6292
  139OSM   H15F15238   6.943   1.513   8.302 -1.4264  0.6239 -0.1773
  139OSM   H15G15239   6.906   1.338   8.285  1.2015  0.0957 -0.7866
  139OSM   C16F15240   6.813   1.414   8.457  0.0488 -0.5011  0.4799
  139OSM   H16F15241   6.727   1.344   8.460 -0.2494 -0.1239  0.9295
  139OSM   H16G15242   6.770   1.508   8.498 -1.9916 -1.7995  1.5152
  139OSM   C17F15243   6.923   1.368   8.554  1.1742 -0.1696 -0.4713
  139OSM   H17F15244   6.992   1.453   8.568 -0.2676  1.2478 -1.5692
  139OSM   H17G15245   6.983   1.284   8.513  2.3133 -0.1441  1.0687
  139OSM   C18F15246   6.865   1.315   8.685  0.3572 -0.6772 -0.1940
  139OSM   H18F15247   6.814   1.392   8.747  1.2428  2.1942 -2.7770
  139OSM   H18G15248   6.954   1.286   8.745  0.6791 -0.0593 -0.3564
  139OSM   H18H15249   6.791   1.234   8.669  0.9027 -1.3172  0.4881
  140OSM      N15250   6.402   2.244   6.152 -0.6132 -0.1081  0.4972
  140OSM    C1515251   6.405   2.229   6.005  0.6021  0.2776 -0.2127
  140OSM   H15A15252   6.326   2.160   5.980 -1.3628  2.6875 -1.0295
  140OSM   H15B15253   6.498   2.182   5.977  0.4456 -0.1410 -0.0335
  140OSM   H15C15254   6.386   2.324   5.956  0.5806  1.0061  1.1613
  140OSM    C1415255   6.277   2.323   6.178  0.0372 -0.3822 -0.0009
  140OSM   H14A15256   6.304   2.423   6.145  2.2991 -0.8566  0.1940
  140OSM   H14B15257   6.262   2.336   6.285  0.9732 -0.6461  0.1746
  140OSM   H14C15258   6.192   2.292   6.120 -0.1485 -0.7319  0.4511
  140OSM    C1315259   6.395   2.106   6.207  0.4578  0.4500 -0.0925
  140OSM   H13A15260   6.410   2.103   6.314 -0.4610  0.4836  0.0445
  140OSM   H13B15261   6.471   2.046   6.161  0.3470  2.2416 -2.8353
  140OSM   H13C15262   6.301   2.064   6.176 -0.0921  1.1719  0.5459
  140OSM    C1215263   6.526   2.317   6.204 -0.4698  0.2867 -0.7747
  140OSM   H12A15264   6.551   2.410   6.154 -0.5207  1.3684  1.1098
  140OSM   H12B15265   6.613   2.253   6.202  0.6164  1.5156  2.2755
  140OSM    C1115266   6.532   2.353   6.359 -0.1076 -0.3166  0.2720
  140OSM   H11A15267   6.431   2.390   6.384  0.1320 -0.0048  0.7803
  140OSM   H11B15268   6.606   2.434   6.372  1.3113 -1.7678  1.7718
  140OSM      P15269   6.698   2.189   6.456  0.0174 -0.0603  0.0852
  140OSM    O1315270   6.702   2.065   6.534 -0.0388 -0.2393  0.1597
  140OSM    O1415271   6.756   2.184   6.322 -0.2787  0.4093  0.3952
  140OSM    O1115272   6.765   2.302   6.540  0.2265 -0.1477  0.0449
  140OSM    O1215273   6.548   2.233   6.436  0.1981  0.2523  0.2242
  140OSM    C1S15274   6.745   2.320   6.684 -0.2819 -0.0869  0.6443
  140OSM    H1S15275   6.637   2.306   6.705 -0.4318  1.2835  0.9364
  140OSM    H1T15276   6.773   2.426   6.707 -2.6347  0.0419  3.4152
  140OSM     NF15277   6.768   2.213   6.902 -0.3999  1.1030  0.4143
  140OSM    HNF15278   6.820   2.259   6.973 -1.3720  2.7030  0.1573
  140OSM    C2S15279   6.827   2.226   6.770 -0.5466 -0.0036  0.2882
  140OSM    H2S15280   6.815   2.125   6.726  1.1726 -0.2946  0.4178
  140OSM    C3S15281   6.975   2.272   6.769 -0.2275  0.0977  0.0772
  140OSM    H3S15282   6.978   2.373   6.814  0.4702 -0.2397  0.8147
  140OSM     O315283   7.024   2.287   6.633 -0.6468 -0.8170 -0.4947
  140OSM    HO315284   6.946   2.295   6.577  0.6519  2.4152 -2.0470
  140OSM    C4S15285   7.063   2.183   6.849  0.3602 -0.6635 -0.0433
  140OSM    H4S15286   7.125   2.242   6.919 -1.9921  1.1843  0.6430
  140OSM    C5S15287   7.088   2.054   6.835  0.2389  1.0350 -0.6456
  140OSM    H5S15288   7.043   2.004   6.748  1.7452  0.3700 -1.0881
  140OSM    C6S15289   7.183   1.971   6.915 -0.0851  0.2681  0.5450
  140OSM    H6S15290   7.215   2.028   7.005  0.6078 -0.3278  0.6800
  140OSM    H6T15291   7.278   1.940   6.867 -0.5616 -0.7871  0.2630
  140OSM    C7S15292   7.126   1.835   6.955  0.5602 -0.3251  0.4267
  140OSM    H7S15293   7.205   1.758   6.970  0.4119 -1.1371 -2.4388
  140OSM    H7T15294   7.069   1.789   6.872 -1.2769  0.7101  1.0679
  140OSM    C8S15295   7.036   1.836   7.081 -0.1159 -0.1379 -0.2651
  140OSM    H8S15296   7.088   1.882   7.167  0.8042 -0.1837 -0.7882
  140OSM    H8T15297   7.021   1.731   7.113  1.2025  0.4350  2.4965
  140OSM    C9S15298   6.892   1.903   7.067 -0.1361 -0.0298  0.4473
  140OSM    H9S15299   6.848   1.879   6.967  2.6852  0.7249 -1.0802
  140OSM    H9T15300   6.899   2.013   7.066 -1.4540  0.0700  0.1819
  140OSM   C10S15301   6.806   1.869   7.183 -0.0363 -0.6760  0.8832
  140OSM   H10S15302   6.788   1.760   7.173  1.0915 -0.7939 -0.1265
  140OSM   H10T15303   6.704   1.911   7.169  0.2323 -0.6378 -1.2233
  140OSM   C11S15304   6.856   1.918   7.319 -0.2784 -0.8224  0.3200
  140OSM   H11S15305   6.866   2.029   7.319  0.6312 -0.8280  2.9559
  140OSM   H11T15306   6.954   1.866   7.320  0.1247 -0.1621 -1.3268
  140OSM   C12S15307   6.781   1.868   7.443 -0.0731  0.0995 -1.2017
  140OSM   H12S15308   6.805   1.761   7.459  2.6456  0.7111 -0.7764
  140OSM   H12T15309   6.671   1.874   7.426 -0.2759 -0.1400 -0.1019
  140OSM   C13S15310   6.802   1.944   7.570 -0.2108  1.0845 -0.7759
  140OSM   H13S15311   6.763   2.048   7.562 -0.6186  1.2348  2.0958
  140OSM   H13T15312   6.908   1.953   7.604 -0.2283 -0.8320 -0.0927
  140OSM   C14S15313   6.721   1.899   7.686 -0.0499  0.1181 -1.0385
  140OSM   H14S15314   6.757   1.798   7.717  0.1616  1.2660  3.0080
  140OSM   H14T15315   6.613   1.882   7.663 -0.1997  0.4348 -0.5846
  140OSM   C15S15316   6.738   1.969   7.819 -0.5399 -0.5332  0.2705
  140OSM   H15S15317   6.697   2.072   7.808  1.2460  0.1343 -0.4005
  140OSM   H15T15318   6.846   1.992   7.834 -0.3877 -0.2040 -1.1805
  140OSM   C16S15319   6.671   1.910   7.943  0.1871  0.1571 -0.5364
  140OSM   H16S15320   6.717   1.809   7.946 -4.4657 -2.1990 -0.4430
  140OSM   H16T15321   6.562   1.892   7.949  0.2506 -1.4847 -2.8660
  140OSM   C17S15322   6.711   1.992   8.060 -0.2305 -0.2092 -0.2310
  140OSM   H17S15323   6.659   2.090   8.063  1.2475  0.6172  2.8905
  140OSM   H17T15324   6.817   2.015   8.033 -0.1368 -0.8720 -0.4509
  140OSM   C18S15325   6.696   1.924   8.197 -0.1196  0.6490  0.5839
  140OSM   H18S15326   6.757   1.984   8.268  2.8200 -0.6167 -0.6833
  140OSM   H18T15327   6.734   1.821   8.184 -1.1671  0.3452 -0.2621
  140OSM   H18U15328   6.590   1.932   8.230  0.3827  0.9433  2.2044
  140OSM    C1F15329   6.650   2.165   6.939  0.2438 -0.0932  0.3508
  140OSM     OF15330   6.570   2.115   6.859  0.4288  0.1403  0.4487
  140OSM    C2F15331   6.615   2.180   7.082 -0.0123 -0.2034 -0.1018
  140OSM    H2F15332   6.596   2.289   7.096  1.8777  0.3109 -1.0738
  140OSM    H2G15333   6.692   2.140   7.151  2.3843 -0.6680 -2.8066
  140OSM    C3F15334   6.490   2.092   7.113 -0.6002 -0.2257  0.2497
  140OSM    H3F15335   6.502   1.994   7.063  3.5897  1.3091 -2.2879
  140OSM    H3G15336   6.408   2.147   7.061 -1.6190 -1.2045  0.7760
  140OSM    C4F15337   6.466   2.078   7.265 -0.1746  0.5012  0.0931
  140OSM    H4F15338   6.547   2.015   7.308  0.6409 -0.2812 -2.4140
  140OSM    H4G15339   6.369   2.023   7.275  0.4681 -0.2039  4.3855
  140OSM    C5F15340   6.446   2.202   7.346 -0.0591 -0.2451 -0.6150
  140OSM    H5F15341   6.350   2.248   7.314  0.1185 -0.9041 -2.1977
  140OSM    H5G15342   6.521   2.272   7.303  0.7375 -1.6024 -1.5361
  140OSM    C6F15343   6.444   2.176   7.499  0.0400 -0.1295  0.5554
  140OSM    H6F15344   6.489   2.268   7.544  0.2755  0.1806 -0.2987
  140OSM    H6G15345   6.520   2.095   7.506  0.0916 -0.4243 -2.2548
  140OSM    C7F15346   6.300   2.175   7.551  0.3710  0.8132  0.2212
  140OSM    H7F15347   6.241   2.094   7.502  2.9839 -0.7506 -0.5480
  140OSM    H7G15348   6.256   2.272   7.520  0.5763  0.1001 -2.5825
  140OSM    C8F15349   6.291   2.149   7.702 -0.2022 -0.3459 -0.6653
  140OSM    H8F15350   6.186   2.161   7.737  0.5777  2.1616  1.1124
  140OSM    H8G15351   6.335   2.239   7.749 -0.9151 -1.9178  3.4316
  140OSM    C9F15352   6.349   2.033   7.766 -0.0554  0.5435 -0.2943
  140OSM    H9F15353   6.451   2.049   7.805 -0.6215 -1.5738  2.3298
  140OSM   C10F15354   6.309   1.909   7.764 -0.5868 -0.6722  0.2142
  140OSM   H10F15355   6.355   1.831   7.827 -2.2411 -1.0505  1.0071
  140OSM   C11F15356   6.185   1.850   7.703 -0.2809 -0.4874 -1.0357
  140OSM   H11F15357   6.115   1.926   7.660 -1.5429 -0.1348  1.4650
  140OSM   H11G15358   6.130   1.800   7.785 -1.0741 -0.2555 -1.4193
  140OSM   C12F15359   6.206   1.733   7.597  0.4576  0.3350  0.6488
  140OSM   H12F15360   6.103   1.700   7.571  0.9514  1.1488 -2.7209
  140OSM   H12G15361   6.257   1.653   7.655 -0.5687  1.7287  3.7235
  140OSM   C13F15362   6.276   1.769   7.462  0.1124 -0.1186 -0.5146
  140OSM   H13F15363   6.380   1.805   7.483  1.0842 -3.2489  0.5747
  140OSM   H13G15364   6.211   1.842   7.410 -1.9145 -1.2431  0.3293
  140OSM   C14F15365   6.289   1.651   7.362  0.2087  0.2309  0.3752
  140OSM   H14F15366   6.209   1.579   7.388 -0.9721  1.0302 -0.9175
  140OSM   H14G15367   6.386   1.600   7.384  0.7652  0.5560 -1.1576
  140OSM   C15F15368   6.273   1.684   7.210 -0.2312  0.3057 -0.5277
  140OSM   H15F15369   6.348   1.762   7.186 -0.4773  0.5772 -0.4266
  140OSM   H15G15370   6.176   1.737   7.196  0.1188  0.8435 -0.9484
  140OSM   C16F15371   6.283   1.564   7.116  0.2185  0.1400  0.1700
  140OSM   H16F15372   6.201   1.495   7.145  0.3155 -0.9229 -1.8716
  140OSM   H16G15373   6.380   1.515   7.139  0.4983  0.5847 -0.0698
  140OSM   C17F15374   6.276   1.593   6.971 -0.5758  1.0886  0.4808
  140OSM   H17F15375   6.186   1.655   6.952 -0.2084  1.2138 -0.9443
  140OSM   H17G15376   6.264   1.501   6.909 -2.6751  0.7275  1.3193
  140OSM   C18F15377   6.400   1.664   6.933 -0.3900 -0.3218  0.3310
  140OSM   H18F15378   6.394   1.703   6.829 -0.7929 -0.4125  0.3212
  140OSM   H18G15379   6.489   1.604   6.962 -0.5994 -0.6466  0.3077
  140OSM   H18H15380   6.396   1.758   6.992  3.7597  0.9146 -0.9673
  141OSM      N15381   0.037   4.132   6.036 -0.7375  0.0126  0.3041
  141OSM    C1515382  -0.002   4.024   6.136 -0.0735 -0.6374  0.4284
  141OSM   H15A15383  -0.057   3.944   6.090  0.6479 -1.2781  0.6617
  141OSM   H15B15384  -0.075   4.064   6.205 -0.6425 -2.5355  0.9741
  141OSM   H15C15385   0.088   3.988   6.183  0.8657 -0.8816 -1.4643
  141OSM    C1415386   0.127   4.233   6.106  0.0165 -0.3298 -0.1871
  141OSM   H14A15387   0.153   4.313   6.039 -0.3285 -0.6961 -0.7669
  141OSM   H14B15388   0.217   4.191   6.149 -0.8095 -1.7027  0.2763
  141OSM   H14C15389   0.073   4.263   6.194 -2.9171 -2.4900 -1.0866
  141OSM    C1315390   0.114   4.061   5.928 -0.2861 -0.3959 -0.3393
  141OSM   H13A15391   0.140   4.125   5.844  1.0441  0.5018  0.7150
  141OSM   H13B15392   0.065   3.974   5.887  2.3782 -2.4262  0.4797
  141OSM   H13C15393   0.205   4.035   5.980 -0.8832  0.7110  1.3357
  141OSM    C1215394  -0.088   4.195   5.974 -0.1422  0.2841 -0.2688
  141OSM   H12A15395  -0.141   4.117   5.923  0.3042  0.8897 -1.7115
  141OSM   H12B15396  -0.060   4.280   5.913  0.0837 -0.7939 -1.7258
  141OSM    C1115397  -0.183   4.261   6.072 -0.0244 -0.2043  0.1309
  141OSM   H11A15398  -0.257   4.327   6.022  3.1796  3.5792 -0.0572
  141OSM   H11B15399  -0.130   4.337   6.134 -0.0251 -0.5007  0.5030
  141OSM      P15400  -0.347   4.069   6.096  0.0840  0.1530 -0.1264
  141OSM    O1315401  -0.407   4.126   5.978  0.3586 -0.7336  0.4389
  141OSM    O1415402  -0.278   3.938   6.073  0.2062  0.2524 -0.1859
  141OSM    O1115403  -0.446   4.047   6.209 -0.3030  0.1885  0.8240
  141OSM    O1215404  -0.245   4.175   6.161  0.4183  0.2645  0.2397
  141OSM    C1S15405  -0.395   4.026   6.340 -0.0164  0.1796 -0.0787
  141OSM    H1S15406  -0.312   4.098   6.359 -1.3089  1.4641  0.9503
  141OSM    H1T15407  -0.354   3.923   6.347 -1.3279 -0.4253 -0.7059
  141OSM     NF15408  -0.435   4.016   6.576 -0.0859 -0.8667 -0.2009
  141OSM    HNF15409  -0.445   3.930   6.626  1.8741  0.1138  2.1019
  141OSM    C2S15410  -0.500   4.052   6.451  0.0403  0.7565 -0.5745
  141OSM    H2S15411  -0.542   4.154   6.444 -1.1759  0.2085 -1.8035
  141OSM    C3S15412  -0.611   3.953   6.429 -0.6051 -0.1095 -0.2833
  141OSM    H3S15413  -0.577   3.847   6.429 -1.4922 -0.5306  3.2338
  141OSM     O315414  -0.674   3.966   6.305  0.2412 -0.2460  0.7503
  141OSM    HO315415  -0.617   4.027   6.257 -0.6945 -1.4420 -2.0831
  141OSM    C4S15416  -0.712   3.971   6.540 -0.7536  0.4475  0.2459
  141OSM    H4S15417  -0.779   4.057   6.526 -0.1711  1.2625  2.0538
  141OSM    C5S15418  -0.740   3.884   6.646 -0.2522 -0.0595 -0.5303
  141OSM    H5S15419  -0.687   3.787   6.651  0.6737  0.3469 -1.8988
  141OSM    C6S15420  -0.845   3.907   6.754 -0.8532  0.5579  0.3256
  141OSM    H6S15421  -0.904   3.813   6.757  1.4828 -1.0001  0.0523
  141OSM    H6T15422  -0.909   3.995   6.732 -3.1289 -0.8292  0.9777
  141OSM    C7S15423  -0.789   3.906   6.892 -0.4431 -0.3726 -0.8952
  141OSM    H7S15424  -0.707   3.980   6.880 -2.0381  1.8391  1.0894
  141OSM    H7T15425  -0.739   3.807   6.906  2.9561  1.2694 -0.4022
  141OSM    C8S15426  -0.880   3.952   7.015  0.5514  0.3982  0.2251
  141OSM    H8S15427  -0.959   3.875   7.027 -0.0270  1.3697  3.5417
  141OSM    H8T15428  -0.922   4.049   6.981  2.7347  0.4440 -2.7669
  141OSM    C9S15429  -0.798   3.961   7.147 -0.4941 -0.2143  0.6287
  141OSM    H9S15430  -0.704   4.019   7.133  1.2193 -3.1148 -0.7840
  141OSM    H9T15431  -0.751   3.860   7.152  1.5602  0.6732  0.1995
  141OSM   C10S15432  -0.872   3.990   7.275 -0.5532  0.2030  0.1749
  141OSM   H10S15433  -0.960   3.923   7.264 -0.6941  0.7279 -2.9129
  141OSM   H10T15434  -0.917   4.091   7.271  0.2886  0.5860  0.2077
  141OSM   C11S15435  -0.787   3.970   7.405 -0.1803 -0.2437 -0.3257
  141OSM   H11S15436  -0.688   4.019   7.392 -0.1135 -0.4593 -0.6298
  141OSM   H11T15437  -0.767   3.863   7.425  2.5224  0.1839 -0.3303
  141OSM   C12S15438  -0.848   4.022   7.532  0.0330 -0.2422  0.5816
  141OSM   H12S15439  -0.950   3.978   7.531 -0.3831  0.6133 -2.1368
  141OSM   H12T15440  -0.864   4.131   7.526  0.3564 -0.2145  0.1948
  141OSM   C13S15441  -0.776   3.987   7.666  0.7051 -0.0950 -0.0491
  141OSM   H13S15442  -0.685   4.050   7.661 -0.1739  1.1055 -2.6257
  141OSM   H13T15443  -0.753   3.879   7.676 -0.2612 -0.1451  2.7117
  141OSM   C14S15444  -0.855   4.025   7.786  0.4653 -0.0161  0.0936
  141OSM   H14S15445  -0.949   3.966   7.798  0.5137  0.1633  1.5727
  141OSM   H14T15446  -0.884   4.129   7.759  2.3338  0.6290  0.4880
  141OSM   C15S15447  -0.782   4.024   7.921  0.0429  0.9262  0.5349
  141OSM   H15S15448  -0.677   4.057   7.905 -0.6859  1.8071 -3.2153
  141OSM   H15T15449  -0.797   3.922   7.962 -0.4527  0.6052 -0.4378
  141OSM   C16S15450  -0.837   4.130   8.020  0.6469 -0.3580  0.7729
  141OSM   H16S15451  -0.945   4.127   7.996  0.6453  1.6692  0.3896
  141OSM   H16T15452  -0.795   4.230   7.994  1.8159 -0.4183  2.2690
  141OSM   C17S15453  -0.804   4.091   8.165 -0.4136  0.9155  0.3117
  141OSM   H17S15454  -0.807   4.181   8.231  0.2605  0.2351  1.3135
  141OSM   H17T15455  -0.697   4.060   8.174 -0.6924 -0.2798 -0.3099
  141OSM   C18S15456  -0.894   3.975   8.220 -0.0728  0.1007  0.1334
  141OSM   H18S15457  -0.910   3.893   8.146 -0.6144 -1.0654  1.5053
  141OSM   H18T15458  -0.994   4.010   8.251 -1.1491 -2.0707 -0.7106
  141OSM   H18U15459  -0.843   3.942   8.312  0.3969 -0.2614 -0.2492
  141OSM    C1F15460  -0.357   4.105   6.639 -0.1575 -0.7512 -0.2528
  141OSM     OF15461  -0.328   4.206   6.578 -0.1455 -0.3141  0.3032
  141OSM    C2F15462  -0.298   4.084   6.776  0.2142 -0.7402  0.3268
  141OSM    H2F15463  -0.299   4.173   6.843  2.5853 -0.2636 -0.1798
  141OSM    H2G15464  -0.190   4.060   6.771  0.0856 -1.4488  0.8692
  141OSM    C3F15465  -0.369   3.972   6.851 -0.2700 -0.5476  0.1766
  141OSM    H3F15466  -0.356   3.875   6.799 -1.4419 -0.6333  0.0108
  141OSM    H3G15467  -0.480   3.980   6.855 -0.2940 -0.4374 -0.4992
  141OSM    C4F15468  -0.292   3.950   6.989  0.2901  0.3747  0.0839
  141OSM    H4F15469  -0.192   3.998   6.995 -1.2145  4.2902 -2.1228
  141OSM    H4G15470  -0.295   3.840   7.001 -0.9056 -0.1355 -3.4367
  141OSM    C5F15471  -0.368   4.001   7.112 -0.1327 -0.0010 -0.0837
  141OSM    H5F15472  -0.479   3.991   7.105 -0.2919  0.8447  0.9444
  141OSM    H5G15473  -0.339   4.107   7.127  2.8316 -0.6005 -1.0024
  141OSM    C6F15474  -0.321   3.939   7.242 -0.4278  0.0674  0.3151
  141OSM    H6F15475  -0.216   3.968   7.258 -0.4690  0.5884 -0.3323
  141OSM    H6G15476  -0.320   3.829   7.223 -1.4205  0.3447 -1.5401
  141OSM    C7F15477  -0.404   3.979   7.369 -0.6259  0.7176 -0.4032
  141OSM    H7F15478  -0.507   3.939   7.356  0.1453 -1.8558  0.7080
  141OSM    H7G15479  -0.407   4.089   7.382 -0.6765  0.3916  3.3289
  141OSM    C8F15480  -0.352   3.903   7.491 -0.0722  0.2058  0.5862
  141OSM    H8F15481  -0.242   3.915   7.483  0.1302 -1.4663  0.5600
  141OSM    H8G15482  -0.382   3.797   7.492  0.5409  0.0300  0.6282
  141OSM    C9F15483  -0.386   3.970   7.618  0.2226  0.4311  0.4542
  141OSM    H9F15484  -0.488   4.012   7.615  1.5643  3.9748 -1.1851
  141OSM   C10F15485  -0.319   3.962   7.738  0.4567  0.1301  0.6465
  141OSM   H10F15486  -0.370   4.008   7.824 -2.0562  0.3483 -0.8464
  141OSM   C11F15487  -0.192   3.880   7.762 -0.1649  0.7073 -0.5801
  141OSM   H11F15488  -0.101   3.944   7.768  0.0598  0.2558  1.9162
  141OSM   H11G15489  -0.163   3.802   7.689 -0.8763  0.0059 -0.1361
  141OSM   C12F15490  -0.186   3.808   7.906 -0.1567 -0.2762  0.1876
  141OSM   H12F15491  -0.082   3.792   7.942 -0.4161  0.0278  1.1077
  141OSM   H12G15492  -0.245   3.714   7.909 -1.6761  0.6449  1.8516
  141OSM   C13F15493  -0.242   3.897   8.025 -0.0863  0.5526  0.4664
  141OSM   H13F15494  -0.226   3.850   8.125 -0.0498 -2.1772 -0.7391
  141OSM   H13G15495  -0.351   3.900   8.006  0.1655 -0.0124 -1.1877
  141OSM   C14F15496  -0.191   4.039   8.029 -0.0128 -0.0958 -0.2073
  141OSM   H14F15497  -0.199   4.095   7.933  0.9565 -0.3326 -0.4426
  141OSM   H14G15498  -0.083   4.042   8.057 -0.6187  1.2362  2.2804
  141OSM   C15F15499  -0.261   4.104   8.147  0.7425 -0.0110 -0.2277
  141OSM   H15F15500  -0.216   4.206   8.155 -1.9988  1.2046  1.4986
  141OSM   H15G15501  -0.265   4.046   8.242  0.0930  0.8856  0.3178
  141OSM   C16F15502  -0.411   4.128   8.122 -0.1073  0.0245  0.5370
  141OSM   H16F15503  -0.477   4.046   8.156  1.2756 -0.0163  3.3479
  141OSM   H16G15504  -0.421   4.118   8.011 -0.8274 -0.0682  0.6099
  141OSM   C17F15505  -0.457   4.263   8.183  0.3837  0.7238 -0.5631
  141OSM   H17F15506  -0.558   4.299   8.154  0.2967  0.6653 -0.3285
  141OSM   H17G15507  -0.372   4.332   8.164  1.4956 -0.1162  1.1200
  141OSM   C18F15508  -0.462   4.246   8.337 -0.2995 -1.2034  0.6242
  141OSM   H18F15509  -0.502   4.342   8.376  0.6920 -0.0749 -0.9837
  141OSM   H18G15510  -0.357   4.248   8.374  0.3798 -0.6044 -1.2275
  141OSM   H18H15511  -0.524   4.155   8.354 -2.7839  0.3549  0.4800
  142OSM      N15512   0.434   5.881   5.964  0.0619  0.3187 -0.5590
  142OSM    C1515513   0.548   5.942   6.040  0.0942 -0.3083 -0.3133
  142OSM   H15A15514   0.582   6.040   6.008  0.3484  0.3484  1.8060
  142OSM   H15B15515   0.622   5.863   6.042 -0.5788 -0.9312  2.0933
  142OSM   H15C15516   0.528   5.963   6.144 -4.0420  1.0258 -1.1998
  142OSM    C1415517   0.320   5.979   5.957  0.5539 -0.6217  0.1022
  142OSM   H14A15518   0.281   6.012   6.052 -1.4725  1.9642 -1.5024
  142OSM   H14B15519   0.246   5.933   5.894 -0.4789  0.2958  0.6233
  142OSM   H14C15520   0.354   6.067   5.904 -0.3809 -0.0353  0.4645
  142OSM    C1315521   0.477   5.833   5.831  0.4819  0.4173  0.5573
  142OSM   H13A15522   0.481   5.921   5.768 -1.5993  1.4327  1.7372
  142OSM   H13B15523   0.415   5.763   5.778  0.5575 -0.0899  1.1319
  142OSM   H13C15524   0.577   5.793   5.841 -0.2276 -1.3211  0.9263
  142OSM    C1215525   0.388   5.757   6.043 -0.0837 -0.1475  0.1682
  142OSM   H12A15526   0.455   5.673   6.042 -0.2382 -0.3835 -2.9160
  142OSM   H12B15527   0.294   5.725   6.000 -1.2540  0.8172  1.8954
  142OSM    C1115528   0.347   5.775   6.186  0.3734  0.2700  0.1581
  142OSM   H11A15529   0.425   5.828   6.244  0.8179  0.6194 -0.7446
  142OSM   H11B15530   0.364   5.680   6.242  2.1691  0.5373  0.1236
  142OSM      P15531   0.087   5.745   6.187 -0.0522  0.1474 -0.3109
  142OSM    O1315532  -0.035   5.830   6.176 -0.3692  0.4991  0.3844
  142OSM    O1415533   0.098   5.639   6.083 -0.7981  0.3952 -0.2147
  142OSM    O1115534   0.077   5.682   6.331 -0.3771 -0.1512 -0.4514
  142OSM    O1215535   0.216   5.830   6.199 -0.0841 -0.3533 -0.0064
  142OSM    C1S15536   0.100   5.781   6.437  0.1612 -0.4552 -0.5092
  142OSM    H1S15537   0.029   5.866   6.427  1.5505  0.9110  0.7470
  142OSM    H1T15538   0.208   5.803   6.452 -0.3674  1.0772  1.3217
  142OSM     NF15539   0.086   5.847   6.680  0.7960 -0.1838 -0.0363
  142OSM    HNF15540   0.172   5.846   6.732  1.9375 -1.0466 -1.8503
  142OSM    C2S15541   0.060   5.737   6.589 -0.1123  0.5130  0.4777
  142OSM    H2S15542  -0.050   5.727   6.576 -0.2498  1.7534  0.5261
  142OSM    C3S15543   0.114   5.604   6.628  0.7709 -0.5492  0.8899
  142OSM    H3S15544   0.224   5.597   6.617  0.9108  1.2896  0.7615
  142OSM     O315545   0.078   5.500   6.535  0.3073 -0.1063  0.0174
  142OSM    HO315546   0.067   5.529   6.445  0.7159  3.7786  1.0467
  142OSM    C4S15547   0.073   5.571   6.768 -0.1857 -0.1547 -0.7933
  142OSM    H4S15548   0.156   5.569   6.840 -1.4680 -1.3577  0.7358
  142OSM    C5S15549  -0.054   5.545   6.816 -0.0534  0.2913 -0.1568
  142OSM    H5S15550  -0.141   5.533   6.750 -1.4287 -2.8622  1.9738
  142OSM    C6S15551  -0.086   5.507   6.958 -0.3264 -0.2234 -0.1439
  142OSM    H6S15552  -0.089   5.396   6.962  1.8649 -0.3965 -1.5974
  142OSM    H6T15553  -0.190   5.524   6.991 -0.3825  1.2217 -0.9626
  142OSM    C7S15554   0.004   5.567   7.064 -0.1431  0.0108  0.7600
  142OSM    H7S15555   0.007   5.678   7.059 -0.3026 -0.0480 -1.1352
  142OSM    H7T15556   0.103   5.527   7.034 -0.9125 -0.6659 -0.9913
  142OSM    C8S15557  -0.023   5.534   7.207  0.5345  0.0426  0.1582
  142OSM    H8S15558  -0.001   5.426   7.223  1.5549  0.3812  1.1646
  142OSM    H8T15559  -0.125   5.565   7.236 -0.1343 -1.5135 -0.4105
  142OSM    C9S15560   0.081   5.601   7.289 -0.3461 -0.6675  0.0158
  142OSM    H9S15561   0.081   5.708   7.260 -1.8297 -0.6037  0.1935
  142OSM    H9T15562   0.185   5.566   7.268 -1.0390 -2.1073 -1.1700
  142OSM   C10S15563   0.056   5.604   7.438 -0.4252 -0.3536  0.2935
  142OSM   H10S15564   0.139   5.648   7.497  0.4352 -0.6275 -0.6935
  142OSM   H10T15565   0.047   5.498   7.471 -1.9650  0.0640  1.3589
  142OSM   C11S15566  -0.083   5.658   7.480  0.1062  0.2373 -0.1305
  142OSM   H11S15567  -0.156   5.594   7.427  0.5239  1.2622 -2.0625
  142OSM   H11T15568  -0.100   5.764   7.451  0.4339  0.9477  2.0852
  142OSM   C12S15569  -0.116   5.649   7.636 -0.0578  0.9524 -0.1189
  142OSM   H12S15570  -0.070   5.552   7.664  1.2856  1.5464 -0.1774
  142OSM   H12T15571  -0.227   5.641   7.642 -0.3682 -0.0459 -4.3445
  142OSM   C13S15572  -0.044   5.757   7.712  0.5008  0.6039  0.1133
  142OSM   H13S15573  -0.080   5.850   7.663 -0.4318  0.4300  0.4468
  142OSM   H13T15574   0.065   5.752   7.689  0.1556  1.3114 -1.8706
  142OSM   C14S15575  -0.074   5.753   7.858  0.3168  0.4064 -0.0251
  142OSM   H14S15576  -0.011   5.674   7.904 -0.4645  0.4648  1.1592
  142OSM   H14T15577  -0.181   5.736   7.881  0.2228  2.2121  1.0380
  142OSM   C15S15578  -0.034   5.885   7.925  0.2569 -0.6307  0.0619
  142OSM   H15S15579  -0.093   5.968   7.880  0.3234 -0.0598  0.9799
  142OSM   H15T15580   0.075   5.900   7.908  0.1309 -1.5735 -1.7821
  142OSM   C16S15581  -0.081   5.886   8.069 -0.2033 -0.0557 -0.4417
  142OSM   H16S15582  -0.041   5.798   8.124 -2.6129 -0.3888  0.9201
  142OSM   H16T15583  -0.186   5.854   8.087 -0.6240  0.5179 -1.7428
  142OSM   C17S15584  -0.052   6.022   8.135 -0.2681  0.6707  0.6313
  142OSM   H17S15585  -0.082   6.106   8.068 -0.1042  0.4067  0.2272
  142OSM   H17T15586   0.057   6.030   8.152  0.3460 -1.3766 -1.7952
  142OSM   C18S15587  -0.109   6.030   8.274  0.5664  0.3615 -0.3519
  142OSM   H18S15588  -0.095   6.130   8.322  2.7996  0.4260 -1.0341
  142OSM   H18T15589  -0.070   5.951   8.342  3.2940  1.7791 -0.1394
  142OSM   H18U15590  -0.219   6.022   8.261  0.6024  1.8801 -1.9955
  142OSM    C1F15591   0.013   5.965   6.681 -0.0075 -0.6092  0.2764
  142OSM     OF15592  -0.071   5.994   6.591 -0.1795 -0.3146  0.0119
  142OSM    C2F15593   0.049   6.063   6.785  0.0278 -0.0941  0.6318
  142OSM    H2F15594  -0.008   6.158   6.783 -0.3790 -0.3415  0.2091
  142OSM    H2G15595   0.154   6.092   6.765  0.5020 -1.9200  0.2488
  142OSM    C3F15596   0.031   5.998   6.924  0.4465  0.3551 -0.7682
  142OSM    H3F15597   0.082   5.899   6.927  1.4140  0.8568  0.7457
  142OSM    H3G15598  -0.077   5.981   6.944  1.1280 -1.6128  1.8323
  142OSM    C4F15599   0.076   6.090   7.040  0.1832  0.4505  1.0888
  142OSM    H4F15600   0.011   6.179   7.029 -1.7486 -1.0711 -0.5306
  142OSM    H4G15601   0.180   6.119   7.017 -0.1395  0.2695 -0.7182
  142OSM    C5F15602   0.054   6.023   7.174 -0.1002 -0.7220  0.1400
  142OSM    H5F15603   0.122   5.936   7.185 -1.2224 -1.6757 -0.2821
  142OSM    H5G15604  -0.052   5.994   7.187 -0.1988  0.3697  2.1877
  142OSM    C6F15605   0.073   6.125   7.290  0.4622  0.2582 -0.1787
  142OSM    H6F15606  -0.001   6.204   7.268  0.3416  0.2706  0.2648
  142OSM    H6G15607   0.178   6.161   7.278  0.1166  1.4327  0.1496
  142OSM    C7F15608   0.040   6.081   7.431  0.3916  0.0667 -0.6751
  142OSM    H7F15609   0.084   5.981   7.453  2.6856  1.2071  0.3293
  142OSM    H7G15610  -0.070   6.074   7.442  0.6808 -0.5661  3.2888
  142OSM    C8F15611   0.086   6.184   7.532  0.3946  0.2698 -0.7377
  142OSM    H8F15612   0.035   6.278   7.503 -0.3722 -0.1140 -0.6693
  142OSM    H8G15613   0.194   6.197   7.512  0.9537 -1.3477  0.9343
  142OSM    C9F15614   0.057   6.135   7.665  0.1385  0.0950 -0.4372
  142OSM    H9F15615   0.034   6.028   7.666  1.4472 -0.2051 -0.9546
  142OSM   C10F15616   0.059   6.209   7.783  0.1000  0.1408  0.3208
  142OSM   H10F15617   0.028   6.164   7.878  1.4127  0.6373  1.0088
  142OSM   C11F15618   0.100   6.353   7.799 -0.1763 -0.2261  0.5869
  142OSM   H11F15619   0.012   6.408   7.839 -1.0495 -0.8768 -0.3621
  142OSM   H11G15620   0.112   6.397   7.698  1.5893 -1.3459  0.2792
  142OSM   C12F15621   0.221   6.389   7.888 -0.0925 -0.1644 -0.5058
  142OSM   H12F15622   0.226   6.500   7.885  0.2018 -0.1832 -0.7890
  142OSM   H12G15623   0.324   6.357   7.860  1.0190  2.2617  0.4578
  142OSM   C13F15624   0.202   6.345   8.035 -0.3979 -0.0561  0.2449
  142OSM   H13F15625   0.214   6.235   8.035  2.1656  0.1517 -0.0093
  142OSM   H13G15626   0.094   6.368   8.048 -1.2680 -1.8445 -2.7680
  142OSM   C14F15627   0.291   6.419   8.133  0.4204  0.0772 -0.1511
  142OSM   H14F15628   0.267   6.527   8.128  0.9083  0.1778 -0.5238
  142OSM   H14G15629   0.395   6.404   8.096  0.5877 -0.4015  0.4862
  142OSM   C15F15630   0.272   6.348   8.268 -0.6370 -0.1257 -0.0748
  142OSM   H15F15631   0.353   6.384   8.334  1.9442 -0.4136 -2.8350
  142OSM   H15G15632   0.293   6.240   8.256 -1.5101 -0.4776  1.3302
  142OSM   C16F15633   0.135   6.372   8.326  0.2811 -0.0990  0.0710
  142OSM   H16F15634   0.059   6.314   8.269 -2.8045  2.3121  1.3836
  142OSM   H16G15635   0.109   6.477   8.302  0.0472 -0.4290 -1.1899
  142OSM   C17F15636   0.115   6.344   8.479 -0.8233 -0.0225 -0.5234
  142OSM   H17F15637   0.129   6.236   8.504 -1.4204 -0.2334 -1.0758
  142OSM   H17G15638   0.005   6.355   8.490 -1.0857 -0.6140 -2.2905
  142OSM   C18F15639   0.187   6.439   8.580  0.1795 -0.1062 -0.2167
  142OSM   H18F15640   0.168   6.544   8.549 -0.9435 -0.2978 -0.2211
  142OSM   H18G15641   0.296   6.421   8.590  0.8250  3.1477 -0.1181
  142OSM   H18H15642   0.137   6.432   8.679 -1.0086 -1.9699 -0.9038
  143OSM      N15643   1.126   1.205   5.967 -0.2903 -0.2398  0.1435
  143OSM    C1515644   1.045   1.085   5.969 -0.2418 -0.3417 -0.5699
  143OSM   H15A15645   0.944   1.121   5.953  0.5984  2.3529 -0.3019
  143OSM   H15B15646   1.048   1.043   6.068 -3.2120  2.2036  0.7845
  143OSM   H15C15647   1.077   1.013   5.895  1.2618  0.4618 -0.7423
  143OSM    C1415648   1.093   1.306   5.867 -0.3256 -0.1175 -0.4633
  143OSM   H14A15649   1.110   1.275   5.764 -0.3869  1.8483 -1.1122
  143OSM   H14B15650   1.155   1.390   5.895  0.9326 -1.9986  2.9234
  143OSM   H14C15651   0.990   1.335   5.868 -0.1922  0.3716 -0.6533
  143OSM    C1315652   1.107   1.277   6.094  0.1664  0.3503  0.0712
  143OSM   H13A15653   1.002   1.294   6.111 -0.0056 -0.3621 -0.2479
  143OSM   H13B15654   1.148   1.377   6.089 -1.0742  0.8404 -0.9781
  143OSM   H13C15655   1.136   1.214   6.177 -0.9594 -3.3446 -2.0848
  143OSM    C1215656   1.274   1.163   5.953 -0.2166  0.0043  0.2899
  143OSM   H12A15657   1.336   1.250   5.939 -1.5182  0.5690 -2.7391
  143OSM   H12B15658   1.264   1.111   5.858 -2.4617 -1.8504  1.4454
  143OSM    C1115659   1.345   1.086   6.060  0.0350  0.3858 -0.1302
  143OSM   H11A15660   1.437   1.029   6.036 -0.3846 -0.8250  1.0088
  143OSM   H11B15661   1.272   1.008   6.090 -0.0486  0.0687 -1.1443
  143OSM      P15662   1.475   1.280   6.167 -0.7390 -0.0686 -0.3490
  143OSM    O1315663   1.587   1.241   6.079  0.2499 -0.3044  0.3848
  143OSM    O1415664   1.392   1.398   6.139  0.1177  0.1996 -0.1829
  143OSM    O1115665   1.543   1.297   6.309  0.0155 -0.0722 -0.3175
  143OSM    O1215666   1.367   1.161   6.183  0.1597 -0.1357 -0.6224
  143OSM    C1S15667   1.461   1.355   6.417  0.4858  0.3024 -0.1856
  143OSM    H1S15668   1.353   1.331   6.411 -0.0550  2.2526  0.9703
  143OSM    H1T15669   1.465   1.466   6.412  2.3403  0.3423  1.1964
  143OSM     NF15670   1.408   1.313   6.663  0.3655  0.0897  0.2826
  143OSM    HNF15671   1.430   1.385   6.728  3.5365  0.4657 -1.0131
  143OSM    C2S15672   1.508   1.306   6.556 -0.6905  0.9132  0.6308
  143OSM    H2S15673   1.539   1.200   6.549 -0.8410  0.9764 -2.2280
  143OSM    C3S15674   1.639   1.391   6.583 -0.6443  0.3733  0.3673
  143OSM    H3S15675   1.607   1.498   6.580 -1.4798  0.1175 -0.8754
  143OSM     O315676   1.737   1.363   6.479  0.7267  0.2459 -0.2068
  143OSM    HO315677   1.685   1.320   6.411  0.8283 -0.9979  0.4758
  143OSM    C4S15678   1.694   1.348   6.710  0.5571 -0.6818  0.0134
  143OSM    H4S15679   1.689   1.432   6.782  1.2134 -1.2407  0.7222
  143OSM    C5S15680   1.754   1.227   6.742 -0.2268  0.4692 -1.0330
  143OSM    H5S15681   1.743   1.146   6.669  1.8908  0.1801 -1.0720
  143OSM    C6S15682   1.820   1.193   6.883  0.3135 -0.4057 -1.0063
  143OSM    H6S15683   1.900   1.269   6.892 -0.2672  0.4125 -2.3124
  143OSM    H6T15684   1.871   1.094   6.883  0.9528 -0.0873  0.0166
  143OSM    C7S15685   1.727   1.204   7.001 -0.1103  0.4728  0.2483
  143OSM    H7S15686   1.649   1.130   6.974 -1.0264  1.5747 -0.1835
  143OSM    H7T15687   1.662   1.293   7.008 -1.3362 -0.2887 -1.0376
  143OSM    C8S15688   1.795   1.179   7.131  0.3766  0.2950  0.2300
  143OSM    H8S15689   1.898   1.219   7.131  0.3355  0.4843 -1.3521
  143OSM    H8T15690   1.813   1.070   7.141 -1.7409  0.0357  2.0595
  143OSM    C9S15691   1.709   1.229   7.243  0.7039  0.2086  0.1761
  143OSM    H9S15692   1.622   1.160   7.246  0.4517  0.5503  2.4294
  143OSM    H9T15693   1.688   1.337   7.229  0.1899  0.2581  1.2254
  143OSM   C10S15694   1.769   1.213   7.389 -0.0548  0.5676  0.7711
  143OSM   H10S15695   1.865   1.268   7.390 -0.6164  1.6624 -0.8715
  143OSM   H10T15696   1.802   1.109   7.411 -0.0650  0.2190 -0.7427
  143OSM   C11S15697   1.668   1.251   7.501  0.7204  0.0752  0.5247
  143OSM   H11S15698   1.567   1.230   7.461 -0.3946 -0.3812  3.3410
  143OSM   H11T15699   1.672   1.356   7.536  0.8920 -0.5516  2.5053
  143OSM   C12S15700   1.679   1.164   7.622  0.2019  0.0031  0.6915
  143OSM   H12S15701   1.699   1.057   7.599  1.9577  0.2783  0.7426
  143OSM   H12T15702   1.582   1.167   7.675  0.5633  1.9476  1.3480
  143OSM   C13S15703   1.791   1.213   7.720 -0.2227 -0.4061 -0.0840
  143OSM   H13S15704   1.802   1.322   7.735  0.7443 -0.3036 -1.3230
  143OSM   H13T15705   1.885   1.183   7.669  0.9473  0.4815  1.4712
  143OSM   C14S15706   1.813   1.126   7.845  0.0549  0.4625  0.5286
  143OSM   H14S15707   1.900   1.159   7.905  0.4214  0.2261  0.1311
  143OSM   H14T15708   1.829   1.017   7.834  1.1358  0.7538 -1.1248
  143OSM   C15S15709   1.687   1.132   7.941  0.5434 -0.3751  0.4141
  143OSM   H15S15710   1.605   1.073   7.896 -0.7998 -0.5171  2.9255
  143OSM   H15T15711   1.659   1.240   7.944  0.2612 -0.4710  1.6464
  143OSM   C16S15712   1.718   1.094   8.080 -0.8851 -0.2622 -0.0753
  143OSM   H16S15713   1.802   1.156   8.118 -0.8074 -0.0051 -0.6524
  143OSM   H16T15714   1.767   0.995   8.083 -0.0954  0.1348  0.5078
  143OSM   C17S15715   1.614   1.083   8.187 -0.0082  0.2884  0.0520
  143OSM   H17S15716   1.540   1.004   8.161  1.5018 -1.1804  0.1009
  143OSM   H17T15717   1.575   1.187   8.187  1.5688  0.8984  0.6704
  143OSM   C18S15718   1.663   1.059   8.324 -0.0938  0.0772 -0.0085
  143OSM   H18S15719   1.757   1.115   8.344 -1.0838  1.8943 -0.2329
  143OSM   H18T15720   1.701   0.957   8.348 -3.1567 -0.9927  0.6745
  143OSM   H18U15721   1.592   1.087   8.404 -0.5994 -0.1457 -0.3731
  143OSM    C1F15722   1.299   1.243   6.650 -0.4175 -0.2544 -0.7978
  143OSM     OF15723   1.286   1.134   6.595  0.0636 -0.5071  0.5948
  143OSM    C2F15724   1.172   1.311   6.701 -0.8606 -0.0071  0.1900
  143OSM    H2F15725   1.093   1.311   6.623  0.1171  0.2971 -0.8319
  143OSM    H2G15726   1.182   1.419   6.726 -0.4401 -0.1915  0.8298
  143OSM    C3F15727   1.111   1.235   6.822 -0.1212 -0.2122 -0.5925
  143OSM    H3F15728   1.115   1.129   6.790 -1.1678 -0.2587 -0.5773
  143OSM    H3G15729   1.007   1.271   6.834 -0.5031  0.7850 -5.0995
  143OSM    C4F15730   1.199   1.239   6.957 -0.1743 -0.0203  0.0500
  143OSM    H4F15731   1.206   1.345   6.991  0.1914  0.1339 -0.4853
  143OSM    H4G15732   1.303   1.205   6.936 -0.6668 -0.3180 -2.1280
  143OSM    C5F15733   1.129   1.168   7.065 -0.4185  0.4717 -0.2083
  143OSM    H5F15734   1.114   1.063   7.033 -2.0047  1.6460 -3.8775
  143OSM    H5G15735   1.025   1.207   7.065 -0.9750 -0.9508 -1.3340
  143OSM    C6F15736   1.203   1.175   7.196 -0.0291 -0.1084  0.0565
  143OSM    H6F15737   1.192   1.276   7.240  0.3204  0.2782 -0.7300
  143OSM    H6G15738   1.312   1.157   7.193  0.3679  2.1429 -1.8215
  143OSM    C7F15739   1.137   1.088   7.305  0.5223 -0.0877  0.4603
  143OSM    H7F15740   1.157   0.982   7.278 -1.8121  0.0479 -2.1880
  143OSM    H7G15741   1.028   1.104   7.311  0.4271 -0.5221 -0.0663
  143OSM    C8F15742   1.187   1.118   7.445 -0.4819  0.1619  0.3359
  143OSM    H8F15743   1.157   1.218   7.482 -0.3145  0.4293 -0.2241
  143OSM    H8G15744   1.298   1.110   7.441 -0.4565  0.7512 -0.2962
  143OSM    C9F15745   1.137   1.015   7.542  0.2695  0.2327 -0.0814
  143OSM    H9F15746   1.142   0.911   7.508  2.1879  0.2671 -0.0336
  143OSM   C10F15747   1.119   1.035   7.674 -0.4449  0.0038  0.0408
  143OSM   H10F15748   1.091   0.943   7.727 -0.3625 -1.7635 -2.8023
  143OSM   C11F15749   1.147   1.162   7.748  0.4769  0.2105 -0.2606
  143OSM   H11F15750   1.047   1.196   7.783  0.8225 -1.1067  2.2282
  143OSM   H11G15751   1.205   1.238   7.692 -1.7334  1.8298 -0.4980
  143OSM   C12F15752   1.234   1.157   7.877  0.4782 -0.1295  0.1410
  143OSM   H12F15753   1.252   1.259   7.918  4.7196 -1.0647  1.0577
  143OSM   H12G15754   1.340   1.128   7.860  1.5568  3.6394 -0.7545
  143OSM   C13F15755   1.172   1.066   7.978 -0.2477 -0.0885  0.1037
  143OSM   H13F15756   1.177   0.961   7.942  1.5734  0.6432 -2.0284
  143OSM   H13G15757   1.063   1.084   7.994 -0.3823  0.5580 -1.4064
  143OSM   C14F15758   1.251   1.076   8.109  0.2716  0.1020  0.0178
  143OSM   H14F15759   1.263   1.176   8.155 -1.5389  0.3823 -0.0815
  143OSM   H14G15760   1.350   1.036   8.077 -0.1754  0.3693 -1.7764
  143OSM   C15F15761   1.199   0.976   8.216 -0.0092 -0.4356  0.4519
  143OSM   H15F15762   1.238   0.873   8.202 -2.0190 -1.1065 -0.6904
  143OSM   H15G15763   1.090   0.959   8.199 -0.0632 -0.8786  1.1924
  143OSM   C16F15764   1.230   1.023   8.357 -0.0827  0.7467  0.5520
  143OSM   H16F15765   1.179   1.120   8.376  0.5012  1.3939 -1.0293
  143OSM   H16G15766   1.337   1.052   8.359 -0.1306  1.1601 -1.2142
  143OSM   C17F15767   1.217   0.908   8.456 -0.0340 -0.1701 -0.2962
  143OSM   H17F15768   1.278   0.826   8.413  1.4376  0.3168  0.8078
  143OSM   H17G15769   1.108   0.883   8.451 -0.4313  1.6289 -3.9548
  143OSM   C18F15770   1.268   0.933   8.597 -0.7138 -0.1986  0.2213
  143OSM   H18F15771   1.226   1.029   8.633  0.3094  0.9981 -1.6506
  143OSM   H18G15772   1.378   0.922   8.603 -0.7658 -0.1357  2.0592
  143OSM   H18H15773   1.241   0.853   8.670 -0.1661 -0.1025  0.5300
  144OSM      N15774   1.830   1.002   6.154  0.3415  0.6511  0.1763
  144OSM    C1515775   1.815   1.108   6.256  0.0931 -0.3754 -0.5390
  144OSM   H15A15776   1.904   1.157   6.293  0.2223  1.5463 -3.0544
  144OSM   H15B15777   1.752   1.084   6.339  1.6605  1.0266  1.1374
  144OSM   H15C15778   1.752   1.180   6.206  0.8547  0.2478 -0.6423
  144OSM    C1415779   1.918   1.050   6.045  0.1654  0.4901  0.3909
  144OSM   H14A15780   1.874   1.143   6.012  1.6878  0.8543 -0.7257
  144OSM   H14B15781   1.921   0.981   5.963 -1.9541 -2.6100  2.7070
  144OSM   H14C15782   2.018   1.081   6.071  0.9269 -0.4476 -1.2816
  144OSM    C1315783   1.888   0.891   6.225  0.1783 -0.0099 -0.1654
  144OSM   H13A15784   1.988   0.912   6.262  0.0913  1.5514 -0.7161
  144OSM   H13B15785   1.888   0.804   6.161  1.1368  0.4298 -0.7993
  144OSM   H13C15786   1.831   0.860   6.310 -1.7359  0.8503 -1.0826
  144OSM    C1215787   1.691   0.968   6.106 -0.2101  0.6344  0.5540
  144OSM   H12A15788   1.651   1.051   6.049  0.6556 -0.3871 -1.6403
  144OSM   H12B15789   1.633   0.952   6.196 -0.5747  1.1571  0.4166
  144OSM    C1115790   1.666   0.849   6.013 -0.0057 -0.0983 -0.0823
  144OSM   H11A15791   1.752   0.845   5.942 -1.6625  2.0345 -2.3753
  144OSM   H11B15792   1.568   0.860   5.961 -0.3695  0.0624  0.6268
  144OSM      P15793   1.603   0.680   6.219  0.0364 -0.3088 -0.1019
  144OSM    O1315794   1.472   0.616   6.185  0.3354  0.4807 -0.2493
  144OSM    O1415795   1.706   0.600   6.285  0.1206  0.1933  0.2347
  144OSM    O1115796   1.576   0.809   6.300 -0.6579 -0.4799 -0.1606
  144OSM    O1215797   1.671   0.729   6.086 -0.2415 -0.1618 -0.4287
  144OSM    C1S15798   1.453   0.845   6.362 -0.5501  0.1636 -0.3379
  144OSM    H1S15799   1.364   0.789   6.326 -1.6863 -0.4323  3.0579
  144OSM    H1T15800   1.430   0.954   6.357 -3.9393 -0.3985  0.2861
  144OSM     NF15801   1.328   0.844   6.571 -0.4661  0.7327  0.6559
  144OSM    HNF15802   1.319   0.941   6.595 -0.4323  0.7306  0.6767
  144OSM    C2S15803   1.450   0.811   6.512  0.3025 -0.0469  0.1573
  144OSM    H2S15804   1.461   0.702   6.530  1.0067 -0.1131 -0.6578
  144OSM    C3S15805   1.571   0.885   6.582  0.1925 -0.3914  0.1141
  144OSM    H3S15806   1.537   0.990   6.594 -0.4517 -0.6642  0.6936
  144OSM     O315807   1.694   0.901   6.509  0.2712  0.0713  0.1394
  144OSM    HO315808   1.674   0.846   6.432 -0.3742  0.5855 -0.0730
  144OSM    C4S15809   1.611   0.826   6.712  1.0675  0.5284 -0.5577
  144OSM    H4S15810   1.667   0.731   6.709 -0.4207 -0.4317  0.7806
  144OSM    C5S15811   1.582   0.880   6.828  0.4733 -0.1956  0.0936
  144OSM    H5S15812   1.520   0.970   6.839 -0.4977 -1.0254  1.8982
  144OSM    C6S15813   1.617   0.809   6.953  0.4849  0.6663  0.5140
  144OSM    H6S15814   1.721   0.824   6.989  0.2897  0.6613  1.0865
  144OSM    H6T15815   1.606   0.700   6.938 -0.0281  0.4659  2.1168
  144OSM    C7S15816   1.524   0.847   7.073 -0.8904  0.2500 -0.0113
  144OSM    H7S15817   1.424   0.808   7.046 -1.8818  2.7515 -0.2548
  144OSM    H7T15818   1.514   0.957   7.082 -0.2213  0.2442  1.0025
  144OSM    C8S15819   1.581   0.781   7.203 -0.2807 -0.4437  0.0379
  144OSM    H8S15820   1.688   0.812   7.204 -0.4543  0.7723 -4.1075
  144OSM    H8T15821   1.575   0.672   7.179 -4.2982 -0.7248  1.5663
  144OSM    C9S15822   1.496   0.813   7.323  0.1321 -0.4959 -1.0401
  144OSM    H9S15823   1.396   0.766   7.319  1.0371 -2.8006  1.0882
  144OSM    H9T15824   1.497   0.924   7.325 -2.3014 -0.4404 -0.6177
  144OSM   C10S15825   1.550   0.760   7.459  0.4170  0.1015  0.3628
  144OSM   H10S15826   1.655   0.795   7.468  0.2404  0.8938 -0.4686
  144OSM   H10T15827   1.543   0.651   7.478 -1.3306  0.3214  1.1384
  144OSM   C11S15828   1.472   0.828   7.570  0.2751 -0.1824 -0.8058
  144OSM   H11S15829   1.366   0.796   7.579 -0.7153  3.1584  0.6812
  144OSM   H11T15830   1.466   0.936   7.545 -3.0633 -0.2564 -0.6567
  144OSM   C12S15831   1.540   0.815   7.700 -0.0670  0.6857 -0.2185
  144OSM   H12S15832   1.499   0.894   7.767 -0.7131  1.6599 -1.7027
  144OSM   H12T15833   1.650   0.833   7.697 -0.1448  1.0259 -2.8299
  144OSM   C13S15834   1.508   0.687   7.772 -0.4822  0.1964  0.1215
  144OSM   H13S15835   1.538   0.593   7.721 -1.0959 -0.1197  0.3237
  144OSM   H13T15836   1.397   0.680   7.766 -0.5023 -1.7361  1.7314
  144OSM   C14S15837   1.559   0.686   7.917 -0.4692  0.3219 -0.2961
  144OSM   H14S15838   1.524   0.777   7.971  2.2281  1.2173  0.1126
  144OSM   H14T15839   1.670   0.696   7.917 -0.3515 -0.3636  2.1138
  144OSM   C15S15840   1.507   0.564   7.995 -0.3976  0.1918 -0.2086
  144OSM   H15S15841   1.554   0.470   7.957 -0.9853 -0.2643  0.1761
  144OSM   H15T15842   1.397   0.556   7.983 -0.3225  2.2054 -3.6175
  144OSM   C16S15843   1.554   0.569   8.144 -0.1758 -0.1350  0.2380
  144OSM   H16S15844   1.664   0.576   8.152 -0.0789 -0.9166 -0.2748
  144OSM   H16T15845   1.524   0.478   8.200 -0.0132 -0.4018 -0.1024
  144OSM   C17S15846   1.494   0.680   8.231 -0.4099  0.0903  0.1218
  144OSM   H17S15847   1.383   0.666   8.233 -0.0931 -3.3711 -0.5254
  144OSM   H17T15848   1.530   0.776   8.189 -0.2403  0.4006  0.9504
  144OSM   C18S15849   1.542   0.671   8.380 -0.6902 -0.7682 -0.0131
  144OSM   H18S15850   1.653   0.671   8.380 -0.5606 -0.4222 -3.4142
  144OSM   H18T15851   1.497   0.575   8.413 -1.9163 -0.1487  0.1779
  144OSM   H18U15852   1.511   0.753   8.449  0.1575  1.2458 -1.8957
  144OSM    C1F15853   1.216   0.778   6.543  0.2382  0.1325 -0.3253
  144OSM     OF15854   1.220   0.679   6.474 -0.1431  0.5785 -0.4108
  144OSM    C2F15855   1.093   0.850   6.595 -0.6688  1.2393 -0.3176
  144OSM    H2F15856   1.051   0.907   6.510 -1.2440 -1.7820 -2.2126
  144OSM    H2G15857   1.127   0.916   6.677  0.7333 -0.1349  0.2630
  144OSM    C3F15858   0.982   0.762   6.658 -0.7069  0.2696 -0.1071
  144OSM    H3F15859   0.953   0.690   6.579 -0.9025  0.3784 -0.1344
  144OSM    H3G15860   0.899   0.835   6.675 -1.7029 -0.4084 -1.7596
  144OSM    C4F15861   1.018   0.681   6.782 -0.2447  0.5114  0.1782
  144OSM    H4F15862   1.098   0.610   6.752  1.9117  1.4073  3.2648
  144OSM    H4G15863   0.937   0.611   6.812 -1.5270  1.8472 -0.0662
  144OSM    C5F15864   1.067   0.760   6.901  0.1455 -0.8022  0.5584
  144OSM    H5F15865   1.022   0.862   6.902 -1.1546 -1.3532  0.1374
  144OSM    H5G15866   1.178   0.757   6.892 -0.0508 -1.0506 -3.1635
  144OSM    C6F15867   1.011   0.692   7.032 -0.2861 -0.1731  0.0924
  144OSM    H6F15868   1.054   0.591   7.045 -2.1032 -1.1491 -1.0848
  144OSM    H6G15869   0.901   0.679   7.025  0.0504 -3.2258 -0.8035
  144OSM    C7F15870   1.034   0.775   7.154 -0.6831  0.3440  0.5874
  144OSM    H7F15871   1.016   0.878   7.117  1.3947  0.0690 -1.4487
  144OSM    H7G15872   1.140   0.770   7.188 -0.7094  0.0060  0.6209
  144OSM    C8F15873   0.934   0.752   7.264  0.0417  0.4993  0.1442
  144OSM    H8F15874   0.834   0.766   7.220  1.5303  1.4861 -3.2328
  144OSM    H8G15875   0.944   0.830   7.342  0.7047  0.2394  0.3351
  144OSM    C9F15876   0.938   0.618   7.323 -0.2837 -0.3113 -0.7016
  144OSM    H9F15877   0.945   0.549   7.238  0.0279  1.1684 -1.9303
  144OSM   C10F15878   0.959   0.582   7.449 -0.6774  0.4586  0.0770
  144OSM   H10F15879   0.956   0.472   7.461  0.7768  0.4448  0.4455
  144OSM   C11F15880   0.969   0.663   7.572 -0.1921 -0.2653  0.2188
  144OSM   H11F15881   0.886   0.635   7.639 -0.7272  1.4421  0.2944
  144OSM   H11G15882   0.952   0.769   7.543  0.3360 -0.4307 -0.7639
  144OSM   C12F15883   1.109   0.657   7.642 -0.0952 -0.1134 -0.0262
  144OSM   H12F15884   1.114   0.736   7.720  0.6338 -0.7801  0.6133
  144OSM   H12G15885   1.182   0.688   7.564 -0.3456  2.3035  0.6046
  144OSM   C13F15886   1.140   0.523   7.708 -0.0278  0.2008 -0.1679
  144OSM   H13F15887   1.250   0.509   7.721 -0.3450 -0.6956  2.1002
  144OSM   H13G15888   1.104   0.440   7.645 -2.3043  1.6029 -0.8331
  144OSM   C14F15889   1.081   0.517   7.850 -0.0260  0.0913  0.5419
  144OSM   H14F15890   0.972   0.497   7.841  0.4620 -2.2609 -1.0108
  144OSM   H14G15891   1.109   0.612   7.901 -0.4281  1.8659 -2.2678
  144OSM   C15F15892   1.149   0.389   7.915  0.1102 -0.2221 -0.5234
  144OSM   H15F15893   1.260   0.387   7.914  0.1947  0.0914  1.8255
  144OSM   H15G15894   1.129   0.306   7.844  2.0447  1.0286 -2.6885
  144OSM   C16F15895   1.097   0.341   8.052  1.0395 -0.6151 -0.1636
  144OSM   H16F15896   1.132   0.239   8.077 -2.6617 -2.1310 -0.5667
  144OSM   H16G15897   0.986   0.332   8.042  1.2740 -2.0721 -1.9134
  144OSM   C17F15898   1.127   0.432   8.170 -0.2717 -0.6052 -0.8461
  144OSM   H17F15899   1.065   0.524   8.181 -0.8397 -0.8282 -2.0051
  144OSM   H17G15900   1.234   0.460   8.166 -0.8500  1.7370 -1.5471
  144OSM   C18F15901   1.099   0.352   8.301  0.1753  0.5322  0.6930
  144OSM   H18F15902   1.155   0.258   8.317 -1.1418 -0.6010 -0.9403
  144OSM   H18G15903   0.993   0.317   8.303  0.3283  0.0780  1.0043
  144OSM   H18H15904   1.113   0.415   8.392 -0.8552  1.6391  0.1208
  145SAPE     N15905   1.617   2.217  10.584 -0.2334 -0.5406  0.4051
  145SAPE   HN115906   1.637   2.160  10.669  1.3061 -1.0100 -0.2447
  145SAPE   HN215907   1.593   2.157  10.503 -0.9773 -0.3169  0.4527
  145SAPE   HN315908   1.698   2.274  10.552  0.9879 -3.0742 -1.3519
  145SAPE   C1215909   1.496   2.308  10.607 -0.0536  0.1880  0.0168
  145SAPE  H12A15910   1.526   2.389  10.676 -1.1566  1.6179 -1.1045
  145SAPE  H12B15911   1.419   2.246  10.658 -1.0604  2.4122  1.3640
  145SAPE   C1115912   1.440   2.361  10.467 -0.4772  0.7029  0.1300
  145SAPE  H11A15913   1.427   2.281  10.390  1.6700 -0.0459  0.4718
  145SAPE  H11B15914   1.521   2.424  10.426 -1.0820  0.6044 -1.2599
  145SAPE     P15915   1.182   2.369  10.511  0.3206 -0.0135  0.3342
  145SAPE   O1315916   1.177   2.320  10.650  0.8222 -0.1523  0.3195
  145SAPE   O1415917   1.082   2.467  10.469  0.1918 -0.3809  0.2283
  145SAPE   O1215918   1.321   2.435  10.474  0.0198  0.0055  0.1854
  145SAPE   O1115919   1.168   2.252  10.416 -0.2393 -0.7416  0.3882
  145SAPE    C115920   1.176   2.262  10.273 -0.1829 -0.4627 -0.4062
  145SAPE    HA15921   1.216   2.362  10.245 -0.3919 -0.2461  0.0528
  145SAPE    HB15922   1.261   2.196  10.244  1.0887  0.5107  0.9328
  145SAPE    C215923   1.049   2.218  10.211 -0.2505  0.7430 -0.7157
  145SAPE    HS15924   1.073   2.176  10.111  0.5446  1.6672 -0.9232
  145SAPE   O2115925   0.951   2.325  10.209 -0.0996  0.2648  0.2621
  145SAPE   C2115926   0.928   2.382  10.094  0.0806  0.5540 -0.2800
  145SAPE   O2215927   0.978   2.340   9.988 -0.1023 -0.5053 -0.4365
  145SAPE   C2215928   0.845   2.507  10.104 -0.2908 -0.7531  0.3916
  145SAPE   H2R15929   0.897   2.559  10.188 -1.2908 -0.1863  0.6786
  145SAPE   H2S15930   0.853   2.559  10.006 -0.3368 -1.7922 -0.1700
  145SAPE    C315931   0.993   2.097  10.281 -0.3994  0.0894  0.1855
  145SAPE    HX15932   0.925   2.134  10.361  0.6882 -0.7726  1.5696
  145SAPE    HY15933   1.079   2.041  10.324  0.1763  0.0665 -0.9772
  145SAPE   O3115934   0.934   2.007  10.184  0.5659  0.0847 -0.4683
  145SAPE   C3115935   0.802   2.027  10.154 -0.6035 -1.1272  0.3199
  145SAPE   O3215936   0.727   2.105  10.207  0.3810  0.2548 -0.7545
  145SAPE   C3215937   0.765   1.935  10.040 -0.0888 -0.9427  0.0493
  145SAPE   H2X15938   0.654   1.928  10.051 -0.1581  0.4053  0.4275
  145SAPE   H2Y15939   0.813   1.837  10.061  1.6505 -0.7788 -2.7296
  145SAPE   C2315940   0.695   2.499  10.133  1.3207 -0.1092  0.8713
  145SAPE   H3R15941   0.679   2.465  10.238 -0.1962 -1.4159  0.2617
  145SAPE   H3S15942   0.650   2.424  10.064  1.3751  0.0530  0.6584
  145SAPE   C2415943   0.615   2.628  10.128  0.1215 -0.0032  0.0941
  145SAPE   H4R15944   0.509   2.614  10.160 -0.2810 -1.7140 -1.7750
  145SAPE   H4S15945   0.594   2.650  10.021  0.9787  1.0312  0.1226
  145SAPE   C2515946   0.679   2.743  10.203  0.1608  0.1761  0.5733
  145SAPE   H5R15947   0.668   2.741  10.313  0.8027  0.9251  0.6636
  145SAPE   C2615948   0.736   2.842  10.133 -0.8884 -0.0982  0.1720
  145SAPE   H6R15949   0.803   2.913  10.183  3.0197 -1.9582 -1.9529
  145SAPE   C2715950   0.750   2.859   9.982 -0.1346  0.2088 -0.0238
  145SAPE   H7R15951   0.734   2.968   9.963  1.1210  0.6659  1.3866
  145SAPE   H7S15952   0.671   2.797   9.934 -0.9708  1.3625 -0.2097
  145SAPE   C2815953   0.881   2.819   9.915  0.1958  0.3443  0.1613
  145SAPE   H8R15954   0.897   2.715   9.883 -0.7512 -0.1134  1.0942
  145SAPE   C2915955   0.990   2.905   9.900  0.4078  0.2504  0.0940
  145SAPE   H9R15956   1.078   2.873   9.842  1.1316  2.4829 -0.1341
  145SAPE  C21015957   0.978   3.054   9.935  0.1664  0.7466  0.2468
  145SAPE  H10R15958   0.957   3.071  10.042 -0.9006 -1.6466  0.4850
  145SAPE  H10S15959   0.897   3.100   9.874 -0.1127 -1.5885 -1.2828
  145SAPE  C21115960   1.110   3.126   9.905  0.0776  0.3383 -0.1276
  145SAPE  H11R15961   1.196   3.069   9.943 -0.4360 -1.1409 -1.0989
  145SAPE  C21215962   1.122   3.242   9.833  0.2423  0.0790  0.0184
  145SAPE  H12R15963   1.227   3.276   9.831  0.5378 -0.6473  1.6098
  145SAPE  C21315964   1.001   3.321   9.783  0.3824 -0.3940 -0.1609
  145SAPE  H13R15965   0.932   3.350   9.865 -0.0935  0.2323 -0.7735
  145SAPE  H13S15966   0.938   3.253   9.722  0.4819  0.0966 -0.8217
  145SAPE  C21415967   1.048   3.447   9.710 -0.2903  0.5255 -0.2839
  145SAPE  H14R15968   1.021   3.540   9.761 -0.2084 -0.3098  1.3659
  145SAPE  C21515969   1.115   3.452   9.589 -0.2354  0.3507 -0.1927
  145SAPE  H15R15970   1.144   3.550   9.548  0.8926  0.1948  0.2043
  145SAPE  C21615971   1.155   3.332   9.507  0.0184  0.2037 -0.3440
  145SAPE  H16R15972   1.160   3.237   9.564 -0.8582 -0.5957 -1.5611
  145SAPE  H16S15973   1.249   3.353   9.452  0.0660 -2.2550 -1.3230
  145SAPE  C21715974   1.042   3.315   9.401  0.1575  0.5283 -0.3920
  145SAPE  H17R15975   1.019   3.409   9.347  0.7495  1.9637  1.7460
  145SAPE  H17S15976   0.957   3.284   9.465  1.3475 -2.6928 -0.1704
  145SAPE  C21815977   1.062   3.188   9.317 -0.4940 -0.3547  0.8071
  145SAPE  H18R15978   1.107   3.110   9.382  0.5798 -1.5729 -1.2999
  145SAPE  H18S15979   1.133   3.219   9.237 -0.9044  2.6108  1.4557
  145SAPE  C21915980   0.934   3.128   9.239 -0.0867 -0.5280 -0.5278
  145SAPE  H19R15981   0.958   3.068   9.148  0.2901  0.2652 -0.9622
  145SAPE  H19S15982   0.890   3.224   9.205  1.6824  0.8230  0.7910
  145SAPE  C22015983   0.834   3.062   9.330 -0.0976  0.0399 -0.0639
  145SAPE  H20R15984   0.744   3.029   9.274  0.7197 -0.8407 -0.9008
  145SAPE  H20S15985   0.796   3.130   9.409 -2.1777 -0.6720 -0.3829
  145SAPE  H20T15986   0.874   2.964   9.362  0.3918  0.4844  0.7018
  145SAPE   C3315987   0.804   1.992   9.908 -0.0087  0.1709 -0.0981
  145SAPE   H3X15988   0.915   1.992   9.913 -0.0759  0.7276  2.0871
  145SAPE   H3Y15989   0.766   2.094   9.886  1.6734  1.4050  2.3273
  145SAPE   C3415990   0.758   1.906   9.781  0.4580  0.0867  0.4897
  145SAPE   H4X15991   0.769   1.796   9.790 -0.7202 -0.0797  0.0292
  145SAPE   H4Y15992   0.826   1.931   9.697  0.4434  0.1646  0.5003
  145SAPE   C3515993   0.612   1.923   9.737  0.6304 -0.0881  0.3484
  145SAPE   H5X15994   0.576   2.028   9.735 -0.8189 -0.5382  1.2593
  145SAPE   H5Y15995   0.540   1.868   9.800  2.2866 -1.7659  0.8678
  145SAPE   C3615996   0.599   1.875   9.590  0.2078 -0.2607  0.0478
  145SAPE   H6X15997   0.638   1.771   9.581  1.2337  0.0508  0.6566
  145SAPE   H6Y15998   0.673   1.929   9.527  1.5946 -0.3046  1.5575
  145SAPE   C3715999   0.459   1.886   9.535  0.0720  0.2746  0.0181
  145SAPE   H7X16000   0.422   1.989   9.555  0.9666  1.3029 -3.0101
  145SAPE   H7Y16001   0.387   1.811   9.572 -1.1058 -0.4601 -3.3602
  145SAPE   C3816002   0.447   1.865   9.380 -0.0474  0.0724  0.4791
  145SAPE   H8X16003   0.476   1.759   9.367  2.6581  0.9003 -1.2312
  145SAPE   H8Y16004   0.527   1.927   9.333  0.1484 -3.1472 -4.0391
  145SAPE   C3916005   0.313   1.904   9.314 -0.1252  0.9232 -0.1043
  145SAPE   H9X16006   0.246   1.947   9.391 -0.5582 -0.5948  0.4150
  145SAPE   H9Y16007   0.270   1.808   9.277 -0.6043  0.2559  2.0619
  145SAPE  C31016008   0.327   2.008   9.205  0.4626  0.4527  0.6304
  145SAPE  H10X16009   0.405   1.967   9.137  1.1291 -1.7273  2.5845
  145SAPE  H10Y16010   0.356   2.102   9.256  2.9849  0.6056 -0.9089
  145SAPE  C31116011   0.206   2.030   9.119  0.1804 -0.3606 -0.2027
  145SAPE  H11X16012   0.126   2.070   9.186  0.8379 -1.0625  1.0272
  145SAPE  H11Y16013   0.164   1.929   9.098 -1.7000 -0.3203  2.7430
  145SAPE  C31216014   0.233   2.119   9.000  0.6479 -0.1943  0.3797
  145SAPE  H12X16015   0.314   2.068   8.942  0.2472 -2.5121  1.7187
  145SAPE  H12Y16016   0.281   2.210   9.040 -0.2258  0.0332  0.9348
  145SAPE  C31316017   0.106   2.160   8.926 -0.6110  0.0181 -0.4762
  145SAPE  H13X16018   0.129   2.227   8.840  2.6925 -1.1479 -0.6216
  145SAPE  H13Y16019   0.043   2.227   8.988 -0.0636 -1.4590  1.7897
  145SAPE  C31416020   0.026   2.045   8.872 -0.1869 -0.2951 -0.1026
  145SAPE  H14X16021  -0.051   2.098   8.812  1.6577  0.2054 -2.1694
  145SAPE  H14Y16022  -0.026   1.990   8.952 -0.6465  0.6728  0.2756
  145SAPE  C31516023   0.099   1.946   8.776 -0.8017 -0.2236 -0.7846
  145SAPE  H15X16024   0.186   1.901   8.830 -0.3969 -0.1639 -1.3780
  145SAPE  H15Y16025   0.146   1.999   8.691 -1.2599 -0.2563 -1.0581
  145SAPE  C31616026   0.025   1.828   8.722  0.2322  0.2141  0.4962
  145SAPE  H16X16027   0.011   1.754   8.804  0.4847  1.2581  1.5001
  145SAPE  H16Y16028   0.088   1.784   8.641 -0.4555 -0.0753  0.1082
  145SAPE  C31716029  -0.109   1.869   8.659  0.7363  0.3981 -0.3378
  145SAPE  H17X16030  -0.103   1.953   8.586 -2.6222 -0.0941 -1.3295
  145SAPE  H17Y16031  -0.181   1.894   8.740 -0.9597  0.9510 -1.9613
  145SAPE  C31816032  -0.176   1.751   8.583 -0.0362 -0.3165  0.7048
  145SAPE  H18X16033  -0.284   1.769   8.563 -0.1129 -2.5075 -1.2540
  145SAPE  H18Y16034  -0.170   1.654   8.639  1.9384 -1.5224 -1.4488
  145SAPE  H18Z16035  -0.127   1.720   8.489  1.3573 -3.2480  2.2519
  146SAPE     N16036   0.488   4.654  10.743  0.1321  0.3298  0.7539
  146SAPE   HN116037   0.390   4.672  10.773 -0.1525 -1.2866  0.8925
  146SAPE   HN216038   0.536   4.589  10.809 -0.8030  0.5393  1.6738
  146SAPE   HN316039   0.542   4.743  10.748  1.0544  0.0925 -2.6892
  146SAPE   C1216040   0.494   4.583  10.605  0.1407  0.2350 -0.2545
  146SAPE  H12A16041   0.435   4.642  10.532  0.7524 -0.9498 -1.7589
  146SAPE  H12B16042   0.461   4.479  10.625 -1.3135  0.5231 -0.9986
  146SAPE   C1116043   0.632   4.560  10.554  0.0052  0.7399 -0.0942
  146SAPE  H11A16044   0.671   4.664  10.541 -0.0150  0.5812 -1.5578
  146SAPE  H11B16045   0.628   4.509  10.455 -1.9658 -0.4876  0.5523
  146SAPE     P16046   0.745   4.345  10.665  0.1767 -0.3292 -0.2410
  146SAPE   O1316047   0.880   4.313  10.613  0.4745 -0.8083 -0.0901
  146SAPE   O1416048   0.725   4.307  10.809  0.4353 -0.3648  0.3122
  146SAPE   O1216049   0.720   4.499  10.653  0.3202  0.1017  0.0340
  146SAPE   O1116050   0.629   4.291  10.574  0.5014  0.0038  0.2324
  146SAPE    C116051   0.648   4.155  10.527  0.1520  0.0110  1.0441
  146SAPE    HA16052   0.739   4.096  10.552 -0.6855 -1.1746  1.4049
  146SAPE    HB16053   0.568   4.086  10.561 -0.7284 -1.3540 -3.2012
  146SAPE    C216054   0.639   4.158  10.372  0.0555 -0.3818 -0.3255
  146SAPE    HS16055   0.629   4.050  10.348 -2.7910 -0.7014  1.7676
  146SAPE   O2116056   0.759   4.221  10.311 -0.1296  0.2682  0.2443
  146SAPE   C2116057   0.860   4.143  10.320 -1.2585 -1.0294  0.5474
  146SAPE   O2216058   0.864   4.031  10.369 -0.2930 -0.3506  0.1002
  146SAPE   C2216059   0.981   4.222  10.250 -0.5016 -0.0168 -0.5939
  146SAPE   H2R16060   0.989   4.184  10.146  1.3895 -0.5573 -0.2877
  146SAPE   H2S16061   0.954   4.330  10.255 -2.0231 -0.3362 -1.2799
  146SAPE    C316062   0.518   4.225  10.318  0.1829 -0.2188  0.4797
  146SAPE    HX16063   0.512   4.336  10.319  2.2801 -0.0066 -1.9718
  146SAPE    HY16064   0.436   4.183  10.381 -0.1038 -1.2848 -0.5849
  146SAPE   O3116065   0.513   4.186  10.179  0.9881  0.0333 -0.7571
  146SAPE   C3116066   0.392   4.151  10.129  0.1448  0.0495  0.4995
  146SAPE   O3216067   0.290   4.176  10.188 -0.0489  0.1564  0.0398
  146SAPE   C3216068   0.403   4.092   9.989  0.0408 -0.7387 -0.4622
  146SAPE   H2X16069   0.486   4.019   9.984 -0.7471 -1.6459 -0.5063
  146SAPE   H2Y16070   0.435   4.176   9.923  0.5932 -0.7264 -0.1820
  146SAPE   C2316071   1.112   4.197  10.336  0.8237 -0.1218  0.3718
  146SAPE   H3R16072   1.127   4.090  10.364  1.8585  0.3385  1.6304
  146SAPE   H3S16073   1.109   4.251  10.432 -0.3456  1.1592 -0.3528
  146SAPE   C2416074   1.229   4.258  10.259  0.7089  0.0895 -0.1155
  146SAPE   H4R16075   1.297   4.295  10.339 -1.3785 -1.7685  2.7003
  146SAPE   H4S16076   1.192   4.353  10.216 -0.1118  0.4844  1.3797
  146SAPE   C2516077   1.292   4.162  10.156 -0.2595 -0.2704  0.2141
  146SAPE   H5R16078   1.344   4.076  10.202 -1.5754 -1.9682 -1.2966
  146SAPE   C2616079   1.286   4.177  10.022 -0.5282  0.4710 -1.1664
  146SAPE   H6R16080   1.331   4.097   9.960  0.3533  0.5268 -0.6219
  146SAPE   C2716081   1.230   4.287   9.940 -0.6173 -0.5510  0.4051
  146SAPE   H7R16082   1.297   4.319   9.857  0.6546 -2.1032  0.7980
  146SAPE   H7S16083   1.226   4.375  10.007  1.1293 -0.3627  0.3108
  146SAPE   C2816084   1.089   4.266   9.895  0.7658  1.3380 -0.3565
  146SAPE   H8R16085   1.006   4.291   9.963  1.0105  0.4713  0.2806
  146SAPE   C2916086   1.056   4.212   9.776  0.7159  0.0066 -1.0178
  146SAPE   H9R16087   0.952   4.181   9.757 -0.2290  2.2705  0.0626
  146SAPE  C21016088   1.153   4.170   9.663  0.8622  0.6806  0.3954
  146SAPE  H10R16089   1.146   4.059   9.655  2.7468  0.6594 -2.3274
  146SAPE  H10S16090   1.262   4.185   9.680  1.2099 -0.7855 -0.3572
  146SAPE  C21116091   1.114   4.231   9.531 -1.0071 -0.1375  0.6367
  146SAPE  H11R16092   1.015   4.279   9.518 -1.5177 -1.9321 -4.1199
  146SAPE  C21216093   1.191   4.228   9.414 -0.0399 -0.2619  0.1781
  146SAPE  H12R16094   1.153   4.281   9.326  1.9854  1.1407  0.0785
  146SAPE  C21316095   1.327   4.158   9.397 -0.1928  0.3382  0.1994
  146SAPE  H13R16096   1.311   4.059   9.348  0.6266  0.1926  0.2260
  146SAPE  H13S16097   1.379   4.129   9.490 -0.3562 -0.5820  0.0157
  146SAPE  C21416098   1.414   4.236   9.312 -0.7436 -0.1949 -0.1593
  146SAPE  H14R16099   1.380   4.334   9.275  0.7953 -0.4079 -2.3292
  146SAPE  C21516100   1.525   4.187   9.250 -0.0283  0.5989 -0.5123
  146SAPE  H15R16101   1.580   4.247   9.176 -2.6178  1.6293 -1.7533
  146SAPE  C21616102   1.590   4.045   9.255 -0.4937 -0.0178  0.1916
  146SAPE  H16R16103   1.518   3.968   9.289  0.5305 -0.9447  0.3354
  146SAPE  H16S16104   1.676   4.045   9.326 -1.3787 -0.1179  1.2858
  146SAPE  C21716105   1.651   3.998   9.125 -0.0103 -0.4898  0.8875
  146SAPE  H17R16106   1.697   3.900   9.149 -2.2755 -1.2928  2.2447
  146SAPE  H17S16107   1.737   4.064   9.103 -0.9687  0.8239  0.9780
  146SAPE  C21816108   1.552   3.987   8.999  0.6994  0.0666 -0.4377
  146SAPE  H18R16109   1.536   4.076   8.934 -0.7285  0.0579 -0.1212
  146SAPE  H18S16110   1.451   3.967   9.040  0.6906  1.8600  0.4764
  146SAPE  C21916111   1.587   3.868   8.915 -0.1936  0.0111  0.1400
  146SAPE  H19R16112   1.583   3.779   8.981 -3.2216  0.5140  0.8025
  146SAPE  H19S16113   1.691   3.870   8.877 -0.7649 -1.7649 -1.6744
  146SAPE  C22016114   1.504   3.845   8.794 -0.1188 -1.2586 -0.7334
  146SAPE  H20R16115   1.398   3.854   8.825  0.6968 -2.6469  2.9416
  146SAPE  H20S16116   1.508   3.739   8.763 -3.1800 -1.9467  0.8165
  146SAPE  H20T16117   1.532   3.914   8.711 -2.3854 -1.0776 -1.4123
  146SAPE   C3316118   0.271   4.024   9.946  0.5518  0.1244 -0.3874
  146SAPE   H3X16119   0.189   4.097   9.958 -0.0675 -0.5273 -0.5594
  146SAPE   H3Y16120   0.238   3.933  10.002 -1.2765  0.8369 -0.2422
  146SAPE   C3416121   0.276   3.971   9.807  0.2136  0.2380  0.1836
  146SAPE   H4X16122   0.346   3.886   9.798 -0.7068 -0.4266 -1.0191
  146SAPE   H4Y16123   0.313   4.059   9.750  0.1137  1.2825  1.6769
  146SAPE   C3516124   0.147   3.914   9.743 -0.0663 -0.0718  0.8914
  146SAPE   H5X16125   0.081   3.999   9.713  0.9048  0.0596 -1.0585
  146SAPE   H5Y16126   0.081   3.851   9.806  1.3911 -2.4311  0.1880
  146SAPE   C3616127   0.189   3.839   9.612  0.1838  0.2513  0.3383
  146SAPE   H6X16128   0.096   3.816   9.555  1.2786  0.3315 -1.5732
  146SAPE   H6Y16129   0.239   3.747   9.649  1.1294  1.4472  2.1608
  146SAPE   C3716130   0.275   3.912   9.517 -0.9041  0.3181 -0.3212
  146SAPE   H7X16131   0.369   3.926   9.574 -2.9093  1.7466  2.9163
  146SAPE   H7Y16132   0.229   4.012   9.503  1.0268  1.3185  0.1236
  146SAPE   C3816133   0.294   3.840   9.379 -0.3125  0.0429  0.2496
  146SAPE   H8X16134   0.195   3.825   9.333  0.7459 -0.9118 -1.8433
  146SAPE   H8Y16135   0.347   3.743   9.394  0.1200  0.3900  1.0981
  146SAPE   C3916136   0.379   3.940   9.285 -0.5937 -0.6483 -0.2513
  146SAPE   H9X16137   0.483   3.932   9.324 -0.4302  0.4154 -0.4488
  146SAPE   H9Y16138   0.337   4.040   9.307 -0.0468 -0.3178 -0.6668
  146SAPE  C31016139   0.373   3.912   9.131 -0.6122 -0.1524  0.0207
  146SAPE  H10X16140   0.266   3.917   9.102 -1.1888 -0.9015  1.8493
  146SAPE  H10Y16141   0.414   3.810   9.113 -0.4317  0.0482 -0.7331
  146SAPE  C31116142   0.450   4.015   9.049  0.2850 -0.5492  0.3633
  146SAPE  H11X16143   0.544   4.034   9.106 -1.2815  0.3741  2.8327
  146SAPE  H11Y16144   0.390   4.108   9.036  0.2785 -0.5150  0.6277
  146SAPE  C31216145   0.494   3.975   8.905 -0.2029 -0.5076 -0.6758
  146SAPE  H12X16146   0.547   3.877   8.914  1.1556  0.2689  0.2201
  146SAPE  H12Y16147   0.559   4.057   8.866  0.0473  0.5160  1.7466
  146SAPE  C31316148   0.368   3.942   8.821 -0.6575  0.3664 -0.7383
  146SAPE  H13X16149   0.290   4.020   8.819  1.0274  2.3044  1.6674
  146SAPE  H13Y16150   0.322   3.850   8.864 -0.8252  1.2827  1.1549
  146SAPE  C31416151   0.409   3.922   8.678 -0.3393 -0.2963 -0.6671
  146SAPE  H14X16152   0.497   3.854   8.670 -0.5686 -1.0227  2.1532
  146SAPE  H14Y16153   0.429   4.025   8.642  0.9879 -0.3987 -0.2716
  146SAPE  C31516154   0.290   3.864   8.591  0.6632  0.5619  0.1053
  146SAPE  H15X16155   0.241   3.776   8.640 -0.7457  0.7719 -0.8676
  146SAPE  H15Y16156   0.344   3.824   8.503  1.5935 -0.0221  0.9173
  146SAPE  C31616157   0.187   3.968   8.557  0.5010  0.1879  0.9926
  146SAPE  H16X16158   0.224   4.050   8.492  1.6770 -1.2065 -0.1764
  146SAPE  H16Y16159   0.150   4.016   8.650 -3.0548 -0.9507  0.2977
  146SAPE  C31716160   0.071   3.903   8.479  0.3053 -0.1861 -0.2913
  146SAPE  H17X16161   0.024   3.827   8.544 -0.7413  0.9948  0.3647
  146SAPE  H17Y16162   0.115   3.841   8.398  0.7685  2.8559 -2.5550
  146SAPE  C31816163  -0.023   4.010   8.411 -0.0906 -0.1145 -0.0182
  146SAPE  H18X16164  -0.063   3.961   8.319 -0.5415 -0.1484  0.1926
  146SAPE  H18Y16165   0.031   4.103   8.384 -0.8894  0.3537 -0.0454
  146SAPE  H18Z16166  -0.097   4.041   8.488  2.1028  2.4966  1.1843
  147SAPE     N16167   2.121   5.936  11.027 -0.8159  0.1924 -0.0787
  147SAPE   HN116168   2.040   5.873  11.009 -1.3437  0.8641 -0.0784
  147SAPE   HN216169   2.132   5.967  11.125  0.9576  0.5707 -0.3725
  147SAPE   HN316170   2.111   6.021  10.968  3.1834  0.3174 -0.8368
  147SAPE   C1216171   2.239   5.863  10.974  0.0638 -0.4155  0.0288
  147SAPE  H12A16172   2.303   5.818  11.054  0.2685 -0.5163 -0.1907
  147SAPE  H12B16173   2.304   5.939  10.925  1.2949 -0.5032  1.4363
  147SAPE   C1116174   2.198   5.750  10.867  0.0448 -0.3492 -0.5210
  147SAPE  H11A16175   2.292   5.716  10.820  0.0607 -0.9862 -0.0500
  147SAPE  H11B16176   2.139   5.804  10.790 -0.2303 -0.8497 -0.6646
  147SAPE     P16177   2.120   5.507  10.859  0.1116 -0.0124  0.3671
  147SAPE   O1316178   2.225   5.424  10.923 -0.0161 -0.2182 -0.0275
  147SAPE   O1416179   1.975   5.474  10.878 -0.3337  0.3178  0.0008
  147SAPE   O1216180   2.134   5.648  10.925  1.1532  1.0185 -0.4774
  147SAPE   O1116181   2.150   5.542  10.715  0.2239  0.7110 -0.2727
  147SAPE    C116182   2.097   5.459  10.604  0.1505  0.2319 -0.4931
  147SAPE    HA16183   2.158   5.474  10.512  3.1877 -0.2790  1.3052
  147SAPE    HB16184   2.086   5.351  10.632 -1.6255  1.0389  2.4047
  147SAPE    C216185   1.965   5.516  10.561 -0.9297 -0.8173 -0.2050
  147SAPE    HS16186   1.904   5.492  10.651 -0.2143 -2.9558 -0.2137
  147SAPE   O2116187   1.935   5.443  10.443  0.2522 -0.6667  0.0137
  147SAPE   C2116188   1.816   5.428  10.415  0.2448  0.7697  0.1429
  147SAPE   O2216189   1.720   5.453  10.486  0.2954  0.4068 -0.2941
  147SAPE   C2216190   1.805   5.361  10.276  0.1845  0.0151  0.2311
  147SAPE   H2R16191   1.897   5.300  10.260  0.4614  0.1266  1.2811
  147SAPE   H2S16192   1.701   5.326  10.260 -0.1492  1.8798 -2.1711
  147SAPE    C316193   1.972   5.671  10.543 -0.7903  0.2087  0.6493
  147SAPE    HX16194   2.049   5.679  10.464 -1.7971 -0.8305 -0.4812
  147SAPE    HY16195   2.001   5.719  10.639 -1.4704 -0.5741  1.2605
  147SAPE   O3116196   1.846   5.726  10.493  0.4267  0.2444  0.0486
  147SAPE   C3116197   1.792   5.835  10.547 -0.0542 -0.7664  0.7877
  147SAPE   O3216198   1.830   5.904  10.640  0.4490  0.1710 -0.1109
  147SAPE   C3216199   1.649   5.864  10.482  0.9746  0.0392 -0.0443
  147SAPE   H2X16200   1.581   5.777  10.488 -1.0049  1.4100 -1.3433
  147SAPE   H2Y16201   1.678   5.870  10.375  1.1869  0.6940  0.0421
  147SAPE   C2316202   1.823   5.470  10.165 -0.4057  0.7895 -1.0094
  147SAPE   H3R16203   1.833   5.424  10.064 -1.6983  0.0234 -0.8174
  147SAPE   H3S16204   1.913   5.530  10.188 -0.2577  1.0330 -2.1744
  147SAPE   C2416205   1.702   5.565  10.164  0.4585  0.9375  0.3260
  147SAPE   H4R16206   1.683   5.592  10.270 -3.8795  2.7651 -0.7032
  147SAPE   H4S16207   1.610   5.508  10.142  0.2549  1.6886 -0.8197
  147SAPE   C2516208   1.699   5.689  10.077 -0.2985 -0.4157 -0.5256
  147SAPE   H5R16209   1.662   5.768  10.144 -1.6994 -2.1295  0.8052
  147SAPE   C2616210   1.705   5.705   9.948 -0.7587  0.0279 -0.5486
  147SAPE   H6R16211   1.705   5.806   9.904 -0.5537  1.0033  1.5911
  147SAPE   C2716212   1.720   5.588   9.850  0.1017 -0.5454 -0.2789
  147SAPE   H7R16213   1.715   5.493   9.908 -2.2552 -0.8103 -0.8277
  147SAPE   H7S16214   1.825   5.585   9.813  0.2020  0.9552 -0.2002
  147SAPE   C2816215   1.619   5.595   9.742  0.5870 -0.6571  0.3654
  147SAPE   H8R16216   1.516   5.631   9.758  0.3786 -1.8669  1.9445
  147SAPE   C2916217   1.643   5.554   9.616  0.4483 -0.5644 -0.4986
  147SAPE   H9R16218   1.566   5.568   9.538  0.7702  1.4136 -0.5213
  147SAPE  C21016219   1.764   5.488   9.563 -0.1994 -0.1598 -0.6536
  147SAPE  H10R16220   1.731   5.399   9.505  0.2635 -1.7770  1.4072
  147SAPE  H10S16221   1.825   5.442   9.644 -0.8244 -0.8193 -0.5449
  147SAPE  C21116222   1.859   5.586   9.491  0.8169 -0.0718  0.2867
  147SAPE  H11R16223   1.932   5.641   9.552 -0.2778  2.7451 -0.7867
  147SAPE  C21216224   1.865   5.616   9.358  0.4773  0.0197 -1.4068
  147SAPE  H12R16225   1.943   5.687   9.325  1.1421  0.0934  0.2293
  147SAPE  C21316226   1.772   5.549   9.253  0.6189 -0.1810  0.2290
  147SAPE  H13R16227   1.727   5.631   9.192  0.7184 -0.8475 -0.7677
  147SAPE  H13S16228   1.684   5.492   9.291  0.2055 -0.4028 -1.0036
  147SAPE  C21416229   1.840   5.451   9.164  0.2755 -0.3529  0.6305
  147SAPE  H14R16230   1.914   5.382   9.207 -1.5673 -2.1429  1.0709
  147SAPE  C21516231   1.836   5.458   9.028 -0.2493 -0.1416 -0.3009
  147SAPE  H15R16232   1.875   5.371   8.972 -0.6171 -0.8287  0.4861
  147SAPE  C21616233   1.772   5.553   8.930  0.2970  0.5845 -0.2211
  147SAPE  H16R16234   1.745   5.647   8.982 -2.4355 -0.3163  0.1480
  147SAPE  H16S16235   1.675   5.522   8.886  0.6318  1.3391 -1.5508
  147SAPE  C21716236   1.867   5.596   8.819 -0.1751 -0.3125  0.1960
  147SAPE  H17R16237   1.971   5.613   8.855 -0.6657  0.1878  1.4393
  147SAPE  H17S16238   1.834   5.699   8.796  0.9380  0.5788  2.3075
  147SAPE  C21816239   1.847   5.503   8.696 -0.2220 -0.6288  0.1914
  147SAPE  H18R16240   1.741   5.477   8.677 -0.0335  0.0359 -2.0910
  147SAPE  H18S16241   1.898   5.409   8.724 -0.6176 -1.3329 -1.3442
  147SAPE  C21916242   1.913   5.538   8.561 -0.3176 -0.3276  0.4517
  147SAPE  H19R16243   1.857   5.625   8.521  0.3430 -0.0510  0.0987
  147SAPE  H19S16244   1.901   5.458   8.486 -1.8587  0.0604  0.2593
  147SAPE  C22016245   2.061   5.572   8.563 -0.9702 -0.1349 -0.3000
  147SAPE  H20R16246   2.109   5.593   8.466  2.7526  0.8646  1.5596
  147SAPE  H20S16247   2.127   5.487   8.591  1.6654  1.8563 -0.1213
  147SAPE  H20T16248   2.086   5.652   8.636 -0.6051  0.3718 -0.9837
  147SAPE   C3316249   1.586   5.997  10.538  0.4099 -0.1923 -0.2204
  147SAPE   H3X16250   1.658   6.080  10.529 -1.6656  1.5823 -1.2771
  147SAPE   H3Y16251   1.557   5.965  10.641  0.3725  1.5335  0.3304
  147SAPE   C3416252   1.465   6.041  10.453 -0.5947 -0.4076  0.3966
  147SAPE   H4X16253   1.417   6.134  10.491  1.8908  1.5208 -0.8247
  147SAPE   H4Y16254   1.377   5.975  10.437 -0.8992  0.5156 -2.2513
  147SAPE   C3516255   1.507   6.077  10.305  0.0824  0.1970  0.0413
  147SAPE   H5X16256   1.616   6.058  10.292  0.0814  0.0714  0.2091
  147SAPE   H5Y16257   1.494   6.186  10.291  1.3607  0.8832  3.3902
  147SAPE   C3616258   1.439   6.000  10.196 -0.2210 -0.0352 -0.1581
  147SAPE   H6X16259   1.334   6.037  10.197  0.7407  3.0372 -1.4064
  147SAPE   H6Y16260   1.437   5.893  10.224  0.9686  0.3138  1.3517
  147SAPE   C3716261   1.501   6.023  10.059  0.7053  0.1777 -0.2198
  147SAPE   H7X16262   1.607   5.992  10.051  0.4545 -0.3118 -2.4205
  147SAPE   H7Y16263   1.504   6.134  10.052  1.8580  0.2269  0.7564
  147SAPE   C3816264   1.409   5.981   9.942  0.4388 -0.0130  0.0417
  147SAPE   H8X16265   1.312   6.034   9.947 -0.3718 -1.5169  0.7993
  147SAPE   H8Y16266   1.399   5.870   9.935  0.3145  0.0160 -0.2862
  147SAPE   C3916267   1.466   6.032   9.808 -1.1663 -0.9027  1.4213
  147SAPE   H9X16268   1.565   5.983   9.794 -1.2556 -1.4535  2.5878
  147SAPE   H9Y16269   1.485   6.142   9.803  0.6992 -1.2575 -1.6848
  147SAPE  C31016270   1.372   6.009   9.684 -0.1691  0.0277 -0.2558
  147SAPE  H10X16271   1.284   6.076   9.681  0.5817  1.0872  0.6550
  147SAPE  H10Y16272   1.341   5.902   9.692  0.4368 -0.0083  3.5537
  147SAPE  C31116273   1.450   6.011   9.548 -0.0283 -0.4386 -0.4169
  147SAPE  H11X16274   1.538   6.077   9.564 -0.6969  0.7040 -1.3068
  147SAPE  H11Y16275   1.387   6.057   9.470  0.0268 -0.8142 -0.6845
  147SAPE  C31216276   1.492   5.868   9.498  0.4046 -0.5919 -0.2870
  147SAPE  H12X16277   1.391   5.821   9.497  0.5139 -0.8335 -0.0837
  147SAPE  H12Y16278   1.560   5.834   9.579 -1.6607 -1.9777  0.9775
  147SAPE  C31316279   1.542   5.857   9.349 -0.4896  0.7960 -0.8312
  147SAPE  H13X16280   1.549   5.749   9.325 -0.3328  0.7858 -0.7408
  147SAPE  H13Y16281   1.640   5.905   9.328 -1.0944  1.3503 -2.5525
  147SAPE  C31416282   1.444   5.918   9.247  0.3635 -0.1227 -0.0509
  147SAPE  H14X16283   1.432   6.029   9.244 -1.6956 -0.3219 -1.2821
  147SAPE  H14Y16284   1.339   5.885   9.264 -0.3890  1.7500 -0.7392
  147SAPE  C31516285   1.471   5.883   9.103 -0.0286 -0.0362 -0.1936
  147SAPE  H15X16286   1.399   5.921   9.028  1.4325  0.9368 -1.1750
  147SAPE  H15Y16287   1.478   5.772   9.106  1.7723  0.0319 -0.2355
  147SAPE  C31616288   1.606   5.938   9.053 -0.4303 -0.2397  0.0355
  147SAPE  H16X16289   1.680   5.854   9.056  0.0107  0.0766 -1.1853
  147SAPE  H16Y16290   1.653   6.017   9.116 -0.3296 -0.6710  0.5136
  147SAPE  C31716291   1.596   6.004   8.909 -0.5801  0.3070  0.2958
  147SAPE  H17X16292   1.701   6.024   8.881 -1.0522  0.0030 -1.8890
  147SAPE  H17Y16293   1.541   6.100   8.921 -0.6344  0.3674 -0.4125
  147SAPE  C31816294   1.533   5.910   8.808  0.0610  0.3172  0.1228
  147SAPE  H18X16295   1.592   5.816   8.811  1.4271  1.1634  0.3340
  147SAPE  H18Y16296   1.541   5.942   8.702 -0.4147  2.8336  0.7871
  147SAPE  H18Z16297   1.425   5.893   8.826  0.4394 -0.7000  1.6575
  148SAPE     N16298   2.313   2.275  10.398  0.2536 -0.2076 -0.0152
  148SAPE   HN116299   2.370   2.317  10.475  0.8205  1.0150 -1.0736
  148SAPE   HN216300   2.324   2.327  10.309 -3.3095  0.0474 -0.4443
  148SAPE   HN316301   2.213   2.291  10.422  0.3601 -1.1416  1.1733
  148SAPE   C1216302   2.349   2.137  10.367  0.6426 -0.1947 -0.7622
  148SAPE  H12A16303   2.446   2.150  10.314  0.1566 -0.0235 -1.6442
  148SAPE  H12B16304   2.286   2.106  10.281 -0.5971  0.6399 -0.1901
  148SAPE   C1116305   2.346   2.041  10.486  0.3546 -0.0485  0.4944
  148SAPE  H11A16306   2.382   1.943  10.448  0.4488 -0.4839  1.6680
  148SAPE  H11B16307   2.243   2.045  10.526 -0.1192  0.6340 -0.7254
  148SAPE     P16308   2.583   2.059  10.610 -0.1530 -0.3475 -0.1728
  148SAPE   O1316309   2.644   2.193  10.640 -0.9862  0.6501  0.2827
  148SAPE   O1416310   2.602   1.945  10.703 -0.5063 -0.0531 -0.2692
  148SAPE   O1216311   2.430   2.084  10.601 -0.0274  0.2783  0.4117
  148SAPE   O1116312   2.626   2.007  10.472  0.0992  0.3673 -0.8048
  148SAPE    C116313   2.751   1.931  10.465 -0.6818 -0.6514  0.3919
  148SAPE    HA16314   2.841   1.990  10.494  0.4335 -2.2689  0.3912
  148SAPE    HB16315   2.755   1.847  10.537 -2.1002  0.4402  1.7927
  148SAPE    C216316   2.791   1.865  10.327 -0.2799 -0.5962  0.6688
  148SAPE    HS16317   2.901   1.861  10.314 -0.4894  0.0184 -1.9619
  148SAPE   O2116318   2.735   1.941  10.216  0.7623  0.7187 -0.0316
  148SAPE   C2116319   2.778   2.062  10.197  0.0417 -0.7722  0.3367
  148SAPE   O2216320   2.871   2.124  10.249  0.1779  0.0053  0.1494
  148SAPE   C2216321   2.682   2.112  10.088 -0.4810  0.1914 -0.8418
  148SAPE   H2R16322   2.670   2.032  10.011  0.4544 -0.1758 -0.6242
  148SAPE   H2S16323   2.582   2.117  10.136 -0.0951 -2.1603  0.3105
  148SAPE    C316324   2.745   1.724  10.311 -0.2953  0.5004  0.7204
  148SAPE    HX16325   2.637   1.704  10.328 -0.2657 -4.2035 -2.7600
  148SAPE    HY16326   2.798   1.656  10.381 -1.4938 -1.8850 -0.5573
  148SAPE   O3116327   2.768   1.671  10.176  0.0778 -0.3600 -0.6649
  148SAPE   C3116328   2.734   1.556  10.141  0.9198  0.1339  0.2804
  148SAPE   O3216329   2.690   1.471  10.213 -0.1957  0.1031 -0.5552
  148SAPE   C3216330   2.751   1.551   9.994 -0.1854  0.2627 -0.4794
  148SAPE   H2X16331   2.850   1.504   9.977 -1.4578 -2.3894 -1.1565
  148SAPE   H2Y16332   2.756   1.656   9.957  3.7280  0.9003  1.3782
  148SAPE   C2316333   2.712   2.251  10.031 -0.3916 -0.1479  0.2664
  148SAPE   H3R16334   2.753   2.319  10.109  0.5267 -2.2829  1.7319
  148SAPE   H3S16335   2.611   2.288  10.001 -0.9115  0.0618  2.1724
  148SAPE   C2416336   2.796   2.248   9.906  0.7564 -0.6510 -0.1073
  148SAPE   H4R16337   2.764   2.163   9.842  0.4712 -2.0202  1.7465
  148SAPE   H4S16338   2.902   2.224   9.930  2.0462  1.5178 -3.0704
  148SAPE   C2516339   2.789   2.383   9.831  0.2437 -0.0586 -0.6692
  148SAPE   H5R16340   2.804   2.474   9.890 -0.6163 -0.8830  0.8748
  148SAPE   C2616341   2.752   2.401   9.706  0.2883  0.3633 -0.0289
  148SAPE   H6R16342   2.739   2.505   9.674 -1.6751 -0.1302 -0.9973
  148SAPE   C2716343   2.712   2.305   9.595  0.6957 -0.1292  0.2682
  148SAPE   H7R16344   2.601   2.293   9.601  0.9493 -2.2712  1.8276
  148SAPE   H7S16345   2.772   2.212   9.604  3.2114  1.2671 -0.9334
  148SAPE   C2816346   2.734   2.368   9.460  0.6457  0.1131  0.4216
  148SAPE   H8R16347   2.822   2.434   9.449  1.2206 -0.7502 -0.3071
  148SAPE   C2916348   2.671   2.338   9.349 -0.0062  0.1677 -0.0338
  148SAPE   H9R16349   2.715   2.381   9.258 -0.2646  0.5129  0.0024
  148SAPE  C21016350   2.559   2.241   9.327  0.4511  0.2079 -0.1303
  148SAPE  H10R16351   2.465   2.298   9.309 -0.8313 -1.9597 -0.7164
  148SAPE  H10S16352   2.528   2.188   9.419 -0.9206 -1.0167 -1.2490
  148SAPE  C21116353   2.595   2.152   9.218  0.8400  0.0886  0.2071
  148SAPE  H11R16354   2.685   2.088   9.226 -0.2386 -1.6739 -1.0800
  148SAPE  C21216355   2.518   2.119   9.114 -0.0035 -0.3327 -0.3322
  148SAPE  H12R16356   2.559   2.055   9.035 -1.3406 -3.2583  1.1993
  148SAPE  C21316357   2.381   2.172   9.081  0.1248 -0.0682  0.0820
  148SAPE  H13R16358   2.322   2.210   9.167  1.8588  0.3936  1.1190
  148SAPE  H13S16359   2.320   2.095   9.029 -1.3364  2.2533 -1.8355
  148SAPE  C21416360   2.404   2.285   8.977  0.2734 -0.5567 -0.0558
  148SAPE  H14R16361   2.473   2.363   9.014 -0.5605 -0.8178  2.2098
  148SAPE  C21516362   2.333   2.310   8.865  0.1536 -0.1875 -0.0211
  148SAPE  H15R16363   2.365   2.402   8.813  1.8709  0.5007  2.1114
  148SAPE  C21616364   2.216   2.235   8.807  0.3270  0.4821 -0.3090
  148SAPE  H16R16365   2.183   2.153   8.875  2.9009  0.6118  1.2261
  148SAPE  H16S16366   2.250   2.195   8.709 -0.6355  2.8576 -1.7029
  148SAPE  C21716367   2.102   2.335   8.792  0.4106  0.6612 -0.8673
  148SAPE  H17R16368   2.019   2.291   8.733  0.1264 -2.0181  1.3332
  148SAPE  H17S16369   2.135   2.433   8.750 -0.3342  0.2525 -2.4642
  148SAPE  C21816370   2.031   2.370   8.928 -0.2472 -0.5799 -0.4134
  148SAPE  H18R16371   2.102   2.402   9.007 -0.6380 -1.0892  0.1568
  148SAPE  H18S16372   1.987   2.274   8.963 -0.2788 -1.0961 -1.7830
  148SAPE  C21916373   1.926   2.482   8.928  0.0204 -0.2711 -0.2614
  148SAPE  H19R16374   1.859   2.479   8.839  1.5703  1.8634 -1.5944
  148SAPE  H19S16375   1.992   2.572   8.927 -1.8709  1.1867 -0.0529
  148SAPE  C22016376   1.846   2.486   9.066  0.0819 -0.6818 -0.0454
  148SAPE  H20R16377   1.921   2.498   9.147 -0.0843  1.4408 -0.1452
  148SAPE  H20S16378   1.782   2.396   9.077  2.0935 -2.0193  1.4832
  148SAPE  H20T16379   1.782   2.577   9.070  2.4431  1.0342  2.9120
  148SAPE   C3316380   2.645   1.463   9.925 -0.3573 -0.5489 -0.0284
  148SAPE   H3X16381   2.544   1.496   9.958 -1.1259 -1.3096 -1.4946
  148SAPE   H3Y16382   2.663   1.357   9.954 -1.7655 -1.2613 -1.6063
  148SAPE   C3416383   2.653   1.475   9.774 -0.3011 -0.4257  0.1884
  148SAPE   H4X16384   2.755   1.452   9.737 -0.2584 -0.6153  0.4154
  148SAPE   H4Y16385   2.622   1.575   9.738  0.9001 -0.0085  0.2796
  148SAPE   C3516386   2.553   1.374   9.706 -0.1143  0.3615  0.5501
  148SAPE   H5X16387   2.446   1.401   9.722 -1.1011 -2.9233  0.3306
  148SAPE   H5Y16388   2.580   1.274   9.746  0.6501 -0.2789 -1.4701
  148SAPE   C3616389   2.580   1.378   9.555 -0.8502  0.2007  0.0563
  148SAPE   H6X16390   2.681   1.334   9.541  0.0480  2.3532 -0.6301
  148SAPE   H6Y16391   2.579   1.486   9.531 -1.1765 -0.1429 -1.6122
  148SAPE   C3716392   2.471   1.302   9.472 -0.1362  0.6249  0.6768
  148SAPE   H7X16393   2.459   1.204   9.522 -0.8173 -0.7632 -1.9820
  148SAPE   H7Y16394   2.516   1.284   9.372  1.7890  0.7043  1.4824
  148SAPE   C3816395   2.340   1.381   9.461 -0.0931 -0.1919 -0.1548
  148SAPE   H8X16396   2.358   1.472   9.401 -1.3549 -0.6126 -1.2404
  148SAPE   H8Y16397   2.305   1.413   9.562  1.2895  0.3986  0.1567
  148SAPE   C3916398   2.224   1.303   9.392 -0.7204  0.3774  0.3104
  148SAPE   H9X16399   2.123   1.346   9.406 -0.4191  1.1790  0.0851
  148SAPE   H9Y16400   2.219   1.203   9.440 -1.3637  0.8167  1.1747
  148SAPE  C31016401   2.249   1.296   9.240 -0.2256  0.0041 -0.2901
  148SAPE  H10X16402   2.343   1.242   9.214 -0.5399 -1.5347  1.5358
  148SAPE  H10Y16403   2.246   1.403   9.213 -1.8031  0.1138  0.2605
  148SAPE  C31116404   2.140   1.223   9.163  0.2738 -0.3458 -0.0890
  148SAPE  H11X16405   2.042   1.270   9.184  0.3271 -0.4100  0.3288
  148SAPE  H11Y16406   2.128   1.120   9.203  0.1558 -0.7498 -1.1480
  148SAPE  C31216407   2.184   1.208   9.025 -0.2218  0.0553 -0.3754
  148SAPE  H12X16408   2.274   1.143   9.031  0.9470  1.7441  1.5421
  148SAPE  H12Y16409   2.204   1.311   8.991 -1.0191  0.9988  1.8315
  148SAPE  C31316410   2.073   1.130   8.953 -0.4603 -0.2548 -0.3226
  148SAPE  H13X16411   1.983   1.195   8.958  0.0152  0.5208 -1.3803
  148SAPE  H13Y16412   2.056   1.029   8.994  2.1066 -0.1709  1.1703
  148SAPE  C31416413   2.101   1.104   8.807 -0.1189  1.0558 -0.3154
  148SAPE  H14X16414   2.202   1.059   8.797 -0.9244 -1.5085  1.9326
  148SAPE  H14Y16415   2.090   1.202   8.755 -1.3751  1.8885  1.4278
  148SAPE  C31516416   2.007   0.995   8.746  0.4916  0.3502 -0.1540
  148SAPE  H15X16417   1.989   0.918   8.824 -1.6471 -1.3143 -2.1610
  148SAPE  H15Y16418   2.041   0.962   8.646 -0.7735  0.0238 -0.4818
  148SAPE  C31616419   1.858   1.045   8.723 -0.0369 -0.5246  0.1490
  148SAPE  H16X16420   1.882   1.137   8.664  1.8143 -0.9034  0.2415
  148SAPE  H16Y16421   1.828   1.071   8.827  0.9161  0.8097  0.1228
  148SAPE  C31716422   1.762   0.950   8.661  0.4450  0.5444  0.4752
  148SAPE  H17X16423   1.807   0.928   8.562 -0.3361 -0.3156  0.2981
  148SAPE  H17Y16424   1.668   1.002   8.633 -0.2870 -2.0217 -2.3051
  148SAPE  C31816425   1.736   0.820   8.743 -0.0752  0.9296  0.3197
  148SAPE  H18X16426   1.826   0.759   8.768  1.2828  2.8622  0.3784
  148SAPE  H18Y16427   1.676   0.752   8.681 -1.1537  0.7186  1.5563
  148SAPE  H18Z16428   1.675   0.840   8.834 -0.1168  0.5938  0.3657
  149SAPE     N16429   0.218   3.376  11.073 -0.2296  0.2289 -0.4841
  149SAPE   HN116430   0.282   3.380  11.155 -1.1969  2.6172  0.2427
  149SAPE   HN216431   0.247   3.458  11.016 -0.3109  0.8514  0.3453
  149SAPE   HN316432   0.118   3.395  11.094  0.2414  2.1260  0.2506
  149SAPE   C1216433   0.224   3.246  11.005  0.5150 -0.2875  0.1745
  149SAPE  H12A16434   0.194   3.170  11.080 -2.6242 -0.2138 -0.8643
  149SAPE  H12B16435   0.326   3.221  10.970 -0.3146  0.2412 -2.9001
  149SAPE   C1116436   0.126   3.253  10.886  0.0795 -0.3119 -0.0791
  149SAPE  H11A16437   0.114   3.150  10.847  1.0964 -0.1303 -0.9003
  149SAPE  H11B16438   0.164   3.320  10.806  0.8776  0.6721  1.0804
  149SAPE     P16439  -0.143   3.286  10.848  0.2451 -0.4923  0.2664
  149SAPE   O1316440  -0.249   3.216  10.930 -0.1026  0.0104 -0.2063
  149SAPE   O1416441  -0.170   3.421  10.789 -0.0768 -0.1355  0.7724
  149SAPE   O1216442  -0.007   3.301  10.930 -0.7035 -0.1797 -0.3260
  149SAPE   O1116443  -0.098   3.180  10.740 -0.2200  0.4565 -0.3178
  149SAPE    C116444  -0.182   3.173  10.621  0.0663  0.2821 -0.1142
  149SAPE    HA16445  -0.187   3.068  10.583  1.1503  0.3615 -0.5035
  149SAPE    HB16446  -0.287   3.193  10.649  0.0409  0.5627 -0.4130
  149SAPE    C216447  -0.134   3.266  10.512 -0.5595  0.5593  0.0795
  149SAPE    HS16448  -0.122   3.365  10.563  1.3038 -1.4863  4.1078
  149SAPE   O2116449  -0.228   3.272  10.407 -0.0691 -0.2418  0.1623
  149SAPE   C2116450  -0.230   3.372  10.324  0.4597 -0.6390 -0.4619
  149SAPE   O2216451  -0.170   3.477  10.341  0.9609 -0.1617 -0.6291
  149SAPE   C2216452  -0.306   3.338  10.200 -0.1027  0.1593  0.1987
  149SAPE   H2R16453  -0.232   3.336  10.117 -0.8037  4.4715 -0.7998
  149SAPE   H2S16454  -0.350   3.238  10.219 -0.1023 -0.0042 -0.6393
  149SAPE    C316455  -0.000   3.215  10.453 -0.6339  0.5988  0.0185
  149SAPE    HX16456   0.084   3.233  10.524  0.0720 -1.2902 -0.2968
  149SAPE    HY16457   0.010   3.291  10.373  0.5597  1.9402  1.3712
  149SAPE   O3116458  -0.009   3.080  10.411 -0.1780  0.3585 -0.0877
  149SAPE   C3116459  -0.029   3.062  10.277  0.8753 -0.1615  0.3410
  149SAPE   O3216460  -0.026   3.150  10.196  0.0122  0.4067  0.3244
  149SAPE   C3216461  -0.040   2.913  10.254  0.1530 -0.2842  0.2132
  149SAPE   H2X16462   0.004   2.859  10.340  0.5808 -0.3582 -0.0508
  149SAPE   H2Y16463   0.020   2.884  10.165  0.0262  0.2486 -0.0496
  149SAPE   C2316464  -0.425   3.430  10.164  0.8277 -0.0443  0.1960
  149SAPE   H3R16465  -0.414   3.530  10.211 -0.2232  0.5860 -0.8416
  149SAPE   H3S16466  -0.514   3.395  10.220 -0.0745  0.9951 -0.5317
  149SAPE   C2416467  -0.452   3.434  10.015  0.3104  0.6984  0.8080
  149SAPE   H4R16468  -0.355   3.458   9.966  1.7351 -3.3839  1.2710
  149SAPE   H4S16469  -0.523   3.519  10.004  0.1217  0.5721  1.0521
  149SAPE   C2516470  -0.485   3.294   9.962 -0.5732  0.7144 -0.5101
  149SAPE   H5R16471  -0.539   3.235  10.037  0.7745 -0.1539 -0.2132
  149SAPE   C2616472  -0.453   3.237   9.848 -0.8193  0.1452  0.0189
  149SAPE   H6R16473  -0.501   3.140   9.827  0.1703 -0.3771  0.1167
  149SAPE   C2716474  -0.380   3.287   9.727 -0.1438 -0.1300  0.0316
  149SAPE   H7R16475  -0.323   3.207   9.675  2.9948  3.0806 -2.0130
  149SAPE   H7S16476  -0.295   3.358   9.744  0.8493 -1.3818  0.4460
  149SAPE   C2816477  -0.474   3.358   9.639  1.2429 -0.2318  0.7122
  149SAPE   H8R16478  -0.536   3.423   9.703  1.0423 -1.2485  1.5864
  149SAPE   C2916479  -0.490   3.352   9.510 -0.2510 -0.3289  0.1809
  149SAPE   H9R16480  -0.574   3.413   9.475 -0.2345 -0.3526  0.1006
  149SAPE  C21016481  -0.414   3.277   9.403 -0.0840  0.2398  0.0663
  149SAPE  H10R16482  -0.475   3.197   9.356  1.5356 -1.2993  0.4544
  149SAPE  H10S16483  -0.336   3.217   9.455  0.4987  1.8676  1.1399
  149SAPE  C21116484  -0.345   3.374   9.309  0.2211  0.4220  0.0478
  149SAPE  H11R16485  -0.259   3.420   9.360  1.1099  0.5176 -1.4744
  149SAPE  C21216486  -0.368   3.409   9.180 -0.1843  0.1566  0.6757
  149SAPE  H12R16487  -0.305   3.487   9.135 -0.2578  0.2385  0.7161
  149SAPE  C21316488  -0.490   3.366   9.102  0.4418  0.0971  0.5036
  149SAPE  H13R16489  -0.506   3.428   9.011 -1.5740 -1.2507 -0.1338
  149SAPE  H13S16490  -0.582   3.393   9.157  0.4782  2.5365 -0.5001
  149SAPE  C21416491  -0.499   3.217   9.064 -0.7553  0.2176 -0.3849
  149SAPE  H14R16492  -0.576   3.167   9.125 -1.9128  2.4846  0.1083
  149SAPE  C21516493  -0.427   3.143   8.978  0.3071  0.9215 -0.4434
  149SAPE  H15R16494  -0.455   3.037   8.968  0.4028  0.7340  1.0293
  149SAPE  C21616495  -0.312   3.191   8.896 -0.4211 -0.1280  0.7254
  149SAPE  H16R16496  -0.228   3.137   8.943 -0.7508 -0.3446  1.0739
  149SAPE  H16S16497  -0.296   3.301   8.900  0.6663 -0.1224 -1.9831
  149SAPE  C21716498  -0.333   3.152   8.747  0.2315  0.0684  0.0276
  149SAPE  H17R16499  -0.361   3.046   8.729  3.4470 -1.1546  1.5341
  149SAPE  H17S16500  -0.239   3.171   8.692 -0.8281  1.2863 -1.4452
  149SAPE  C21816501  -0.440   3.237   8.674  0.3084  0.1556  0.1720
  149SAPE  H18R16502  -0.402   3.340   8.654  0.1926 -0.2187 -2.3015
  149SAPE  H18S16503  -0.539   3.224   8.722  1.0010 -0.8083  1.3812
  149SAPE  C21916504  -0.465   3.189   8.531  0.2742  0.2678  0.3328
  149SAPE  H19R16505  -0.495   3.083   8.544 -3.0576  1.1536  0.9177
  149SAPE  H19S16506  -0.368   3.198   8.478  0.0107  0.2096 -0.1680
  149SAPE  C22016507  -0.583   3.253   8.453  0.0347 -0.2697  0.4140
  149SAPE  H20R16508  -0.557   3.360   8.442 -0.2532 -0.2383  0.0085
  149SAPE  H20S16509  -0.684   3.236   8.497 -0.6362 -3.2877 -2.0057
  149SAPE  H20T16510  -0.586   3.225   8.346  0.7997  2.5167 -0.4199
  149SAPE   C3316511  -0.186   2.872  10.224 -0.3568 -0.6193 -0.3357
  149SAPE   H3X16512  -0.251   2.888  10.313  1.0439  1.9241  0.3392
  149SAPE   H3Y16513  -0.171   2.763  10.210 -0.7351 -0.3548 -3.2357
  149SAPE   C3416514  -0.245   2.932  10.096  0.4875  0.8246  0.8071
  149SAPE   H4X16515  -0.166   2.916  10.020  0.6360  2.2870  0.6310
  149SAPE   H4Y16516  -0.266   3.039  10.115  1.4264  1.1219  0.2367
  149SAPE   C3516517  -0.371   2.848  10.058  0.0209  0.1520  0.1677
  149SAPE   H5X16518  -0.460   2.894  10.107 -0.7573 -1.5892  0.4603
  149SAPE   H5Y16519  -0.374   2.743  10.094  1.3788  0.3262  0.8439
  149SAPE   C3616520  -0.392   2.841   9.914  0.0008 -0.0551  0.0020
  149SAPE   H6X16521  -0.303   2.804   9.858  1.5111  1.8084  1.0382
  149SAPE   H6Y16522  -0.400   2.947   9.881  1.3895  0.3625  0.8982
  149SAPE   C3716523  -0.525   2.767   9.886  0.5328 -0.9353  0.0125
  149SAPE   H7X16524  -0.602   2.794   9.961  0.8868  2.0859 -0.5628
  149SAPE   H7Y16525  -0.505   2.658   9.899 -0.1678 -1.1209 -0.4554
  149SAPE   C3816526  -0.581   2.795   9.754  0.3080 -0.1764  0.4372
  149SAPE   H8X16527  -0.592   2.904   9.736 -4.7045 -0.2711  1.4364
  149SAPE   H8Y16528  -0.682   2.752   9.743  0.0161  0.1087  1.8395
  149SAPE   C3916529  -0.502   2.728   9.637 -0.0365 -0.1329  0.0324
  149SAPE   H9X16530  -0.509   2.618   9.647  0.9510 -0.2835 -0.7491
  149SAPE   H9Y16531  -0.393   2.749   9.651 -0.0680  0.0888 -0.0494
  149SAPE  C31016532  -0.547   2.772   9.501 -1.0287 -0.1244  0.2935
  149SAPE  H10X16533  -0.532   2.882   9.497 -1.8833 -0.0178 -0.2042
  149SAPE  H10Y16534  -0.654   2.749   9.483 -1.4230  0.9367  1.1563
  149SAPE  C31116535  -0.465   2.709   9.386  0.6070  0.2614 -0.3181
  149SAPE  H11X16536  -0.498   2.603   9.394 -2.2891  1.1098  0.2895
  149SAPE  H11Y16537  -0.356   2.721   9.406  0.7332 -0.5371 -0.4894
  149SAPE  C31216538  -0.506   2.771   9.243  0.7306  0.1804 -0.5502
  149SAPE  H12X16539  -0.480   2.879   9.252 -1.0019  0.5592  0.2299
  149SAPE  H12Y16540  -0.616   2.756   9.237  0.8363 -0.0062 -2.6788
  149SAPE  C31316541  -0.450   2.688   9.126 -0.4027  0.0234 -0.4880
  149SAPE  H13X16542  -0.461   2.581   9.152  0.5754  0.0910  0.2510
  149SAPE  H13Y16543  -0.341   2.712   9.128 -0.2893 -0.5720  1.1647
  149SAPE  C31416544  -0.508   2.730   8.996  0.0376 -0.2369 -0.4928
  149SAPE  H14X16545  -0.526   2.840   8.995 -1.8609 -0.5030  0.3675
  149SAPE  H14Y16546  -0.609   2.683   8.998  0.4980 -1.3483 -1.6097
  149SAPE  C31516547  -0.430   2.696   8.869  0.4200  0.0578 -0.1917
  149SAPE  H15X16548  -0.408   2.587   8.864  1.3841  0.0012  3.0825
  149SAPE  H15Y16549  -0.335   2.754   8.862 -0.1327  0.8487 -1.6805
  149SAPE  C31616550  -0.500   2.737   8.742  0.0371 -0.1956 -0.3881
  149SAPE  H16X16551  -0.514   2.846   8.758  1.0121  0.5920 -4.1548
  149SAPE  H16Y16552  -0.600   2.689   8.734  0.3799 -0.6938 -1.8600
  149SAPE  C31716553  -0.425   2.703   8.615 -0.2803 -0.2369 -0.5628
  149SAPE  H17X16554  -0.418   2.592   8.606 -2.9813 -0.8589  2.7952
  149SAPE  H17Y16555  -0.324   2.743   8.639 -0.8723  0.1136  1.5320
  149SAPE  C31816556  -0.491   2.760   8.490  0.2501  0.0071 -0.4900
  149SAPE  H18X16557  -0.414   2.753   8.410  2.5894 -1.5591  1.7400
  149SAPE  H18Y16558  -0.520   2.867   8.501  1.8837  0.3892  0.3816
  149SAPE  H18Z16559  -0.579   2.699   8.460  0.2340 -0.3032  0.1762
  150SAPE     N16560   6.754   2.897  10.756 -0.0318  0.3030 -0.5212
  150SAPE   HN116561   6.701   2.853  10.678 -0.0814 -0.1826 -0.2188
  150SAPE   HN216562   6.691   2.976  10.779  0.7200  0.6236  0.4855
  150SAPE   HN316563   6.836   2.945  10.713  1.5511 -0.5609  1.4038
  150SAPE   C1216564   6.797   2.807  10.871 -0.1589 -0.2322 -0.7230
  150SAPE  H12A16565   6.708   2.755  10.914 -0.7342  2.2208  1.2554
  150SAPE  H12B16566   6.846   2.869  10.949 -0.1902 -0.3614 -0.5997
  150SAPE   C1116567   6.904   2.708  10.819 -0.1084  0.3629  0.1114
  150SAPE  H11A16568   6.959   2.667  10.907  1.3777  3.1610  0.6077
  150SAPE  H11B16569   6.980   2.769  10.765  1.2616 -1.8162 -0.5753
  150SAPE     P16570   6.841   2.455  10.789 -0.1071 -0.5363  0.5270
  150SAPE   O1316571   6.969   2.393  10.752  0.2095  0.5084 -0.0201
  150SAPE   O1416572   6.803   2.456  10.930  0.1206  0.4159 -0.1518
  150SAPE   O1216573   6.852   2.604  10.734  0.8058 -0.5493  0.3105
  150SAPE   O1116574   6.723   2.391  10.709  0.2289  0.1142 -0.3911
  150SAPE    C116575   6.609   2.468  10.668  0.0245  0.6087 -0.6978
  150SAPE    HA16576   6.522   2.400  10.660  0.4860  0.0324 -0.8662
  150SAPE    HB16577   6.594   2.557  10.733  2.3645  1.4935 -1.2601
  150SAPE    C216578   6.618   2.520  10.517  0.1153  0.0150 -0.6185
  150SAPE    HS16579   6.709   2.584  10.509  1.9483 -2.1831  1.2188
  150SAPE   O2116580   6.494   2.587  10.482 -0.3971  0.3110  0.2620
  150SAPE   C2116581   6.471   2.719  10.524  0.0625  0.0102 -1.0761
  150SAPE   O2216582   6.551   2.781  10.586 -0.1445  0.0884  0.3251
  150SAPE   C2216583   6.324   2.760  10.477 -0.0497  0.5320 -0.3488
  150SAPE   H2R16584   6.319   2.731  10.370  1.4837  1.0158 -0.5800
  150SAPE   H2S16585   6.255   2.696  10.535  0.9878  0.9659  1.4288
  150SAPE    C316586   6.657   2.408  10.413  0.4385 -0.3671 -0.3216
  150SAPE    HX16587   6.592   2.320  10.435  0.9315  0.0263  3.2554
  150SAPE    HY16588   6.756   2.367  10.441  1.3278  1.1519 -1.1099
  150SAPE   O3116589   6.664   2.451  10.276 -0.5588 -0.0270 -0.0206
  150SAPE   C3116590   6.590   2.377  10.189 -0.6790 -0.2077  0.8960
  150SAPE   O3216591   6.498   2.304  10.221 -0.1993 -0.0382  0.5576
  150SAPE   C3216592   6.621   2.417  10.044 -0.2855  0.2957 -0.3086
  150SAPE   H2X16593   6.730   2.430  10.030 -0.2565  0.2700 -0.1001
  150SAPE   H2Y16594   6.589   2.523  10.035 -2.5259 -0.2503  0.4184
  150SAPE   C2316595   6.294   2.910  10.493  0.1978 -0.2425  0.3971
  150SAPE   H3R16596   6.370   2.973  10.443  0.4555  0.0712  1.1587
  150SAPE   H3S16597   6.300   2.944  10.599 -1.7926  2.5593 -0.2653
  150SAPE   C2416598   6.153   2.942  10.448 -0.0277  0.3009  0.4059
  150SAPE   H4R16599   6.084   2.875  10.504 -0.4270  1.5562  1.4795
  150SAPE   H4S16600   6.142   2.909  10.343 -2.5568  0.5454  0.5338
  150SAPE   C2516601   6.111   3.082  10.474 -0.2751 -0.1376  0.1616
  150SAPE   H5R16602   6.108   3.109  10.581 -1.8375 -3.1606  1.0053
  150SAPE   C2616603   6.057   3.176  10.394  0.3902 -0.1686 -0.3923
  150SAPE   H6R16604   6.042   3.275  10.439 -1.2950  0.5061 -2.2567
  150SAPE   C2716605   6.023   3.161  10.250  0.4024  0.3737 -0.3930
  150SAPE   H7R16606   6.009   3.056  10.218 -3.2631  0.4264  0.5303
  150SAPE   H7S16607   6.106   3.197  10.186  0.9378  0.3448  0.2796
  150SAPE   C2816608   5.894   3.232  10.215 -0.2359  0.1968 -0.5058
  150SAPE   H8R16609   5.821   3.257  10.293 -1.6339  2.4960 -2.4324
  150SAPE   C2916610   5.854   3.257  10.090  0.3291 -0.4944  0.0356
  150SAPE   H9R16611   5.761   3.314  10.078  0.8046  0.3018  0.0927
  150SAPE  C21016612   5.933   3.212   9.968  0.0599 -0.1170  0.1840
  150SAPE  H10R16613   5.990   3.120   9.993  1.5714  0.6242 -0.4192
  150SAPE  H10S16614   6.009   3.286   9.935  2.3839 -1.3793  2.3560
  150SAPE  C21116615   5.834   3.174   9.863 -0.6553  0.7248  0.4155
  150SAPE  H11R16616   5.737   3.137   9.901 -0.9504 -0.9008 -1.7186
  150SAPE  C21216617   5.838   3.190   9.728 -0.9397  0.4022 -0.1717
  150SAPE  H12R16618   5.759   3.150   9.663  0.2907 -0.5172 -1.1569
  150SAPE  C21316619   5.965   3.235   9.644 -0.1848 -0.0709  0.2929
  150SAPE  H13R16620   6.046   3.273   9.710 -1.5352  1.4534  1.1758
  150SAPE  H13S16621   5.934   3.317   9.576  1.0908 -0.5199 -0.8537
  150SAPE  C21416622   6.011   3.110   9.565 -0.3707  0.0843 -0.1318
  150SAPE  H14R16623   6.097   3.059   9.611 -0.5605  1.3038  1.6970
  150SAPE  C21516624   5.967   3.076   9.443 -0.2970 -0.2755 -0.0405
  150SAPE  H15R16625   6.009   2.988   9.392  0.8905 -0.3692  1.0356
  150SAPE  C21616626   5.858   3.152   9.377  0.0449  0.1355  0.0084
  150SAPE  H16R16627   5.805   3.220   9.447  0.1724 -0.8130  1.0530
  150SAPE  H16S16628   5.782   3.076   9.350 -0.1799  0.0218  0.9464
  150SAPE  C21716629   5.908   3.226   9.255  0.0591 -0.0609 -0.2088
  150SAPE  H17R16630   5.996   3.280   9.295  1.0444 -1.9092  0.2276
  150SAPE  H17S16631   5.844   3.305   9.211  1.7526  0.5075 -1.7306
  150SAPE  C21816632   5.945   3.134   9.139  0.2074 -0.4340 -0.6010
  150SAPE  H18R16633   5.861   3.062   9.127  0.4537 -0.7357 -0.5485
  150SAPE  H18S16634   6.036   3.081   9.176 -0.1551 -0.2604  0.5931
  150SAPE  C21916635   5.955   3.199   9.003 -0.3606 -0.2632  0.1615
  150SAPE  H19R16636   6.025   3.284   9.020  0.1103 -0.4312 -0.8315
  150SAPE  H19S16637   5.861   3.253   8.974  0.7106  0.8590 -1.4016
  150SAPE  C22016638   5.992   3.112   8.876  0.2016  0.0852  0.0609
  150SAPE  H20R16639   5.990   3.177   8.786  1.7579  0.7944  0.5041
  150SAPE  H20S16640   5.906   3.046   8.855  1.1374 -1.0378 -0.3364
  150SAPE  H20T16641   6.092   3.067   8.894  0.2375  1.6149  5.4743
  150SAPE   C3316642   6.539   2.344   9.932 -0.5317  0.4096  0.0938
  150SAPE   H3X16643   6.429   2.361   9.940 -0.5512  0.1174  0.4968
  150SAPE   H3Y16644   6.539   2.233   9.935  0.6981  0.4092  0.2528
  150SAPE   C3416645   6.582   2.394   9.789 -0.4302  0.3409  0.7290
  150SAPE   H4X16646   6.693   2.402   9.782 -0.1482 -1.6313  2.2050
  150SAPE   H4Y16647   6.545   2.498   9.771  2.9831  1.7069  0.7974
  150SAPE   C3516648   6.532   2.308   9.672 -0.0087 -0.1808  0.0428
  150SAPE   H5X16649   6.423   2.287   9.672  0.0403 -0.4792 -1.1903
  150SAPE   H5Y16650   6.561   2.202   9.683  1.0892 -0.0933 -1.6913
  150SAPE   C3616651   6.558   2.372   9.535 -0.8872 -0.3453 -0.1708
  150SAPE   H6X16652   6.669   2.381   9.534 -0.8611 -0.1526  1.6152
  150SAPE   H6Y16653   6.515   2.473   9.521 -0.8938 -0.5492 -1.7694
  150SAPE   C3716654   6.508   2.276   9.424 -0.0194 -0.3687  0.7474
  150SAPE   H7X16655   6.400   2.255   9.431 -0.3121  0.6165 -0.4028
  150SAPE   H7Y16656   6.561   2.180   9.438  0.4455 -0.4955 -1.5148
  150SAPE   C3816657   6.553   2.333   9.285 -0.1620  0.0541  0.6939
  150SAPE   H8X16658   6.660   2.360   9.288 -0.4355  1.1132  2.1508
  150SAPE   H8Y16659   6.508   2.430   9.253  1.0495 -0.5558 -3.3552
  150SAPE   C3916660   6.528   2.229   9.174 -0.0132  0.0012  0.2098
  150SAPE   H9X16661   6.429   2.188   9.203 -0.7485  0.8892 -0.9410
  150SAPE   H9Y16662   6.606   2.150   9.163  0.5138  0.4864  0.3869
  150SAPE  C31016663   6.518   2.296   9.039  0.4565  0.9808  0.7147
  150SAPE  H10X16664   6.618   2.337   9.014  1.8974 -3.2121 -1.3392
  150SAPE  H10Y16665   6.436   2.372   9.042 -0.6590  0.0230 -2.3869
  150SAPE  C31116666   6.472   2.207   8.924 -0.5228  0.3834 -0.8153
  150SAPE  H11X16667   6.364   2.180   8.930 -0.9341  1.6760 -1.8487
  150SAPE  H11Y16668   6.530   2.113   8.926 -2.5710 -0.9420  0.8023
  150SAPE  C31216669   6.490   2.260   8.784 -0.0129  0.5751 -0.0300
  150SAPE  H12X16670   6.598   2.246   8.759 -0.2642 -0.6558 -0.4563
  150SAPE  H12Y16671   6.475   2.369   8.799 -2.2158  0.0353  2.2525
  150SAPE  C31316672   6.403   2.195   8.672 -0.3124 -0.2141 -0.4976
  150SAPE  H13X16673   6.298   2.215   8.701  0.0870 -0.3687  1.1156
  150SAPE  H13Y16674   6.424   2.086   8.670 -0.4643 -0.3097  1.5342
  150SAPE  C31416675   6.423   2.241   8.527 -0.1893 -0.6967  0.0769
  150SAPE  H14X16676   6.523   2.208   8.491  0.7989 -0.8777  2.7496
  150SAPE  H14Y16677   6.420   2.352   8.535 -1.6447 -0.7323  0.3345
  150SAPE  C31516678   6.312   2.190   8.432  0.7054  0.0411  0.8701
  150SAPE  H15X16679   6.230   2.265   8.438  0.1042 -0.4402 -0.7045
  150SAPE  H15Y16680   6.290   2.090   8.473 -0.9332 -0.7234 -1.6531
  150SAPE  C31616681   6.349   2.170   8.287  0.4078 -0.4364 -0.5091
  150SAPE  H16X16682   6.262   2.126   8.232 -0.8137  0.5220  0.5848
  150SAPE  H16Y16683   6.439   2.106   8.285  0.8119  0.1284 -0.4782
  150SAPE  C31716684   6.392   2.301   8.225 -0.5942 -0.0884  0.6809
  150SAPE  H17X16685   6.484   2.336   8.275 -0.0535  0.5590 -0.6977
  150SAPE  H17Y16686   6.321   2.379   8.260  0.8520  1.6406 -0.1030
  150SAPE  C31816687   6.404   2.312   8.074  0.8644  0.4155  0.3873
  150SAPE  H18X16688   6.493   2.265   8.028 -0.6868  0.3993 -2.8242
  150SAPE  H18Y16689   6.415   2.420   8.050  3.6113  0.0540 -0.2895
  150SAPE  H18Z16690   6.318   2.269   8.019  0.8866  1.2326 -0.3010
  151SAPE     N16691   4.940   5.727  10.693  0.6954 -0.0072 -0.0850
  151SAPE   HN116692   5.044   5.724  10.698  1.1856  3.6434 -3.2604
  151SAPE   HN216693   4.912   5.790  10.616 -0.2540 -2.1763 -1.6226
  151SAPE   HN316694   4.900   5.773  10.777 -0.9629  0.0856 -0.8958
  151SAPE   C1216695   4.883   5.595  10.671 -0.5509 -0.7779  0.3357
  151SAPE  H12A16696   4.777   5.594  10.704  0.1104 -1.4668  2.6339
  151SAPE  H12B16697   4.942   5.529  10.738  2.4842  1.0218 -0.3704
  151SAPE   C1116698   4.889   5.566  10.521 -0.8710 -0.1710  0.1266
  151SAPE  H11A16699   4.886   5.455  10.516  0.4643 -0.2825  1.2743
  151SAPE  H11B16700   4.986   5.592  10.473  0.6174 -0.9024  2.5446
  151SAPE     P16701   4.651   5.550  10.412  0.3112 -0.3103  0.2414
  151SAPE   O1316702   4.669   5.402  10.432  0.7392  0.1797 -0.3601
  151SAPE   O1416703   4.536   5.610  10.484  0.1916 -0.4433  0.4445
  151SAPE   O1216704   4.782   5.625  10.451 -0.6656  0.1119 -0.4852
  151SAPE   O1116705   4.639   5.578  10.251  0.5010 -0.0025 -0.5493
  151SAPE    C116706   4.761   5.585  10.187 -0.2790 -0.1913 -0.5166
  151SAPE    HA16707   4.801   5.688  10.179  1.7890 -0.9876 -1.0378
  151SAPE    HB16708   4.845   5.524  10.227  2.2118  1.3210 -3.0874
  151SAPE    C216709   4.752   5.536  10.044 -0.4265 -0.1836 -0.4312
  151SAPE    HS16710   4.656   5.573  10.000 -0.8061 -2.0690 -1.2756
  151SAPE   O2116711   4.777   5.395  10.025  0.0790 -0.2711 -0.2355
  151SAPE   C2116712   4.668   5.325  10.012 -0.5798 -1.1554 -0.7521
  151SAPE   O2216713   4.553   5.365  10.002 -0.0757  0.4430  0.8567
  151SAPE   C2216714   4.705   5.181  10.044 -0.1933  0.0092  0.1062
  151SAPE   H2R16715   4.767   5.179  10.136  1.0054 -1.8956 -0.6864
  151SAPE   H2S16716   4.607   5.131  10.060 -0.4551  0.1592 -0.9186
  151SAPE    C316717   4.857   5.614   9.952  0.2924  0.0493 -0.2246
  151SAPE    HX16718   4.954   5.599  10.003 -0.2894 -0.7201  0.6828
  151SAPE    HY16719   4.833   5.722   9.956 -0.0473 -0.0340 -0.0304
  151SAPE   O3116720   4.856   5.568   9.815 -0.0049 -0.2601 -0.7005
  151SAPE   C3116721   4.878   5.644   9.716  0.0017 -0.3405  0.6526
  151SAPE   O3216722   4.918   5.759   9.714  0.1649  0.3502 -0.3547
  151SAPE   C3216723   4.848   5.555   9.588 -0.5743  0.0475 -0.8531
  151SAPE   H2X16724   4.741   5.575   9.569 -0.4448  1.3518 -0.3457
  151SAPE   H2Y16725   4.868   5.447   9.598 -1.9941 -0.6274 -4.0410
  151SAPE   C2316726   4.784   5.138   9.921  0.6015 -0.5776  0.2659
  151SAPE   H3R16727   4.826   5.035   9.926  0.0263 -0.8168  0.2577
  151SAPE   H3S16728   4.866   5.211   9.899  0.4625  0.1855  2.1292
  151SAPE   C2416729   4.689   5.115   9.802 -0.2455 -0.2909  0.6663
  151SAPE   H4R16730   4.627   5.208   9.795  0.7815  0.5211  1.8888
  151SAPE   H4S16731   4.620   5.029   9.816  1.1831 -1.3437  1.4886
  151SAPE   C2516732   4.764   5.084   9.680 -0.1758  0.3724 -0.1807
  151SAPE   H5R16733   4.851   5.017   9.692  0.8660  1.1719 -2.5892
  151SAPE   C2616734   4.738   5.128   9.559 -0.3386 -0.5567 -0.5014
  151SAPE   H6R16735   4.809   5.109   9.477  1.1983 -1.2552  0.9300
  151SAPE   C2716736   4.623   5.220   9.524 -0.1021 -0.6415  0.4178
  151SAPE   H7R16737   4.644   5.328   9.542 -0.8872 -0.5883  1.0617
  151SAPE   H7S16738   4.551   5.208   9.608  1.1989 -0.9780  1.5216
  151SAPE   C2816739   4.545   5.183   9.396 -0.5249 -0.4015  0.3186
  151SAPE   H8R16740   4.573   5.086   9.354 -0.6782  0.0720 -0.9007
  151SAPE   C2916741   4.461   5.267   9.330  0.1407  0.2905 -0.4833
  151SAPE   H9R16742   4.409   5.225   9.243  1.0457  0.2158 -0.9928
  151SAPE  C21016743   4.429   5.403   9.377  0.1269 -0.9317  0.3433
  151SAPE  H10R16744   4.497   5.438   9.457 -0.2634  0.7329 -0.0212
  151SAPE  H10S16745   4.324   5.416   9.409  0.2911 -2.6273  1.6642
  151SAPE  C21116746   4.460   5.504   9.267  0.4467 -0.3513  0.2332
  151SAPE  H11R16747   4.547   5.571   9.277  0.6149 -0.3349 -1.1300
  151SAPE  C21216748   4.372   5.525   9.162 -0.2866  0.2157  0.6399
  151SAPE  H12R16749   4.380   5.615   9.099 -0.7687 -0.9452 -1.1806
  151SAPE  C21316750   4.241   5.461   9.136 -0.4075  0.4867 -0.5944
  151SAPE  H13R16751   4.160   5.537   9.128  0.4008  1.4652  0.2227
  151SAPE  H13S16752   4.213   5.396   9.223  0.0796 -0.0164 -0.8127
  151SAPE  C21416753   4.257   5.371   9.022  0.5474  0.2135 -0.2030
  151SAPE  H14R16754   4.292   5.269   9.044 -1.7652 -0.7075 -0.4961
  151SAPE  C21516755   4.231   5.409   8.897 -0.7248  0.1272  0.1520
  151SAPE  H15R16756   4.229   5.342   8.809 -1.1738 -0.7512  0.8248
  151SAPE  C21616757   4.166   5.546   8.862 -0.0674  0.4422  0.4448
  151SAPE  H16R16758   4.238   5.599   8.797 -0.6608  0.8381  0.1001
  151SAPE  H16S16759   4.135   5.614   8.944 -1.3849  0.7465 -0.2699
  151SAPE  C21716760   4.046   5.530   8.762  0.2475 -0.0554 -0.7487
  151SAPE  H17R16761   4.000   5.628   8.737 -0.1210 -0.5723 -2.1827
  151SAPE  H17S16762   3.970   5.471   8.818 -0.6686  1.4726 -0.3008
  151SAPE  C21816763   4.067   5.461   8.627 -0.1399  0.2408 -0.3390
  151SAPE  H18R16764   4.121   5.365   8.642 -0.7410  0.2512  2.2981
  151SAPE  H18S16765   4.138   5.524   8.569 -0.7350  2.4342  1.1654
  151SAPE  C21916766   3.943   5.433   8.542 -0.0162  0.2237 -0.2217
  151SAPE  H19R16767   3.857   5.492   8.582 -1.9315 -1.1630 -2.0528
  151SAPE  H19S16768   3.918   5.328   8.571  2.0097 -0.4751 -0.8453
  151SAPE  C22016769   3.957   5.438   8.394 -0.3222 -0.2300 -0.5632
  151SAPE  H20R16770   4.058   5.400   8.366 -0.1645  1.2436 -2.0951
  151SAPE  H20S16771   3.959   5.541   8.354  2.5119 -0.8675 -2.3865
  151SAPE  H20T16772   3.876   5.373   8.354 -1.4227  0.0817  1.0379
  151SAPE   C3316773   4.924   5.614   9.467  0.2770  0.6361 -0.6319
  151SAPE   H3X16774   5.032   5.601   9.486 -0.0257 -1.2414 -0.0042
  151SAPE   H3Y16775   4.905   5.724   9.464  1.0202  0.9315  2.5942
  151SAPE   C3416776   4.887   5.544   9.333  0.2469 -0.0121 -0.5111
  151SAPE   H4X16777   4.776   5.551   9.330  0.1689 -1.2307 -1.1345
  151SAPE   H4Y16778   4.929   5.441   9.341  1.1042  0.4061  0.5152
  151SAPE   C3516779   4.956   5.616   9.222  0.4418  0.0412 -0.0256
  151SAPE   H5X16780   5.065   5.633   9.233  0.4971  0.2940 -0.8875
  151SAPE   H5Y16781   4.906   5.715   9.223 -0.7771 -0.5299  2.0293
  151SAPE   C3616782   4.925   5.554   9.082  0.5679 -0.1414  0.5342
  151SAPE   H6X16783   4.815   5.556   9.064  1.1445  0.0684 -4.3006
  151SAPE   H6Y16784   4.955   5.449   9.100 -3.8741 -1.8783 -0.6602
  151SAPE   C3716785   4.985   5.625   8.954 -0.1927  0.9504 -0.7537
  151SAPE   H7X16786   5.091   5.656   8.958  1.1153 -3.0110  1.5092
  151SAPE   H7Y16787   4.927   5.719   8.945 -0.4355  0.8055 -0.7295
  151SAPE   C3816788   4.964   5.547   8.826 -0.3546  0.7364  0.4105
  151SAPE   H8X16789   4.970   5.605   8.731 -2.3903 -1.5822 -1.2437
  151SAPE   H8Y16790   4.857   5.522   8.839 -0.2716  0.6455  0.9178
  151SAPE   C3916791   5.049   5.421   8.804 -0.3272 -0.1762 -0.3553
  151SAPE   H9X16792   5.037   5.362   8.897 -0.9238  1.2858  0.5162
  151SAPE   H9Y16793   5.155   5.456   8.802 -0.2177 -0.5269 -1.0483
  151SAPE  C31016794   5.023   5.355   8.665  0.0327  0.1552 -0.4061
  151SAPE  H10X16795   5.056   5.428   8.587  0.0754 -0.8007 -1.3115
  151SAPE  H10Y16796   4.913   5.343   8.656 -0.3277  2.9958 -1.0161
  151SAPE  C31116797   5.096   5.225   8.644  0.3836 -0.6871 -0.1355
  151SAPE  H11X16798   5.205   5.234   8.667  0.0472  0.9322  1.0630
  151SAPE  H11Y16799   5.071   5.203   8.538 -1.9585 -1.6259  0.5496
  151SAPE  C31216800   5.032   5.102   8.716 -0.8860 -0.9328 -0.7585
  151SAPE  H12X16801   4.921   5.100   8.705 -0.8020 -0.2416 -2.0341
  151SAPE  H12Y16802   5.059   5.099   8.823  0.5190 -2.7242 -1.1264
  151SAPE  C31316803   5.075   4.971   8.658 -0.1429  0.0335 -0.0843
  151SAPE  H13X16804   5.184   4.965   8.678  0.0805 -1.1271 -1.4126
  151SAPE  H13Y16805   5.058   4.952   8.549 -2.4130  0.0097  0.2333
  151SAPE  C31416806   5.012   4.852   8.731  0.1744 -0.0715  0.6971
  151SAPE  H14X16807   4.904   4.869   8.710  0.0646 -1.9033 -0.4740
  151SAPE  H14Y16808   5.051   4.854   8.835  1.4663  2.2868  0.2217
  151SAPE  C31516809   5.052   4.720   8.663 -0.3494 -0.0755 -0.2556
  151SAPE  H15X16810   5.149   4.675   8.693 -1.7643 -2.6674  0.8292
  151SAPE  H15Y16811   5.046   4.731   8.553 -0.8330  0.4462 -0.1819
  151SAPE  C31616812   4.948   4.604   8.698 -0.0710 -0.6828 -0.4661
  151SAPE  H16X16813   4.949   4.602   8.809 -2.0702  2.8742 -0.2444
  151SAPE  H16Y16814   4.983   4.509   8.652 -0.7677 -1.6724  1.0169
  151SAPE  C31716815   4.803   4.619   8.645  0.0494  0.2208  0.1315
  151SAPE  H17X16816   4.814   4.655   8.541 -0.4371 -0.8541 -0.3021
  151SAPE  H17Y16817   4.769   4.702   8.711 -1.0484  0.2682 -0.4707
  151SAPE  C31816818   4.713   4.495   8.634  0.5826 -0.0137 -0.5290
  151SAPE  H18X16819   4.698   4.451   8.735 -0.7811 -0.0063 -0.7060
  151SAPE  H18Y16820   4.767   4.425   8.567  3.8131  1.3696  0.4176
  151SAPE  H18Z16821   4.610   4.516   8.599  0.1516 -0.6706  0.3224
  152SAPE     N16822   5.695   0.154  10.602 -0.6563 -0.8954 -0.2918
  152SAPE   HN116823   5.718   0.160  10.703  0.4352 -0.0582 -0.5696
  152SAPE   HN216824   5.765   0.091  10.558  0.4284  1.2328 -1.8175
  152SAPE   HN316825   5.711   0.254  10.579  0.0147 -0.8580  0.3073
  152SAPE   C1216826   5.555   0.101  10.581  0.2565  0.4831 -0.5048
  152SAPE  H12A16827   5.517   0.119  10.478  0.7283  1.2578 -0.5485
  152SAPE  H12B16828   5.491   0.158  10.652  1.2603  1.4643 -0.3478
  152SAPE   C1116829   5.546  -0.047  10.625 -0.0910 -0.3545 -0.3654
  152SAPE  H11A16830   5.442  -0.084  10.608  0.5125 -1.7308 -1.1875
  152SAPE  H11B16831   5.553  -0.052  10.736  0.1710 -0.0638 -0.3686
  152SAPE     P16832   5.633  -0.281  10.584 -0.0861 -0.0590  0.1440
  152SAPE   O1316833   5.668  -0.325  10.721  0.0913  0.4678 -0.1358
  152SAPE   O1416834   5.492  -0.322  10.542  0.1004  0.7980  0.3732
  152SAPE   O1216835   5.642  -0.128  10.568 -0.5174 -0.3733 -0.1574
  152SAPE   O1116836   5.735  -0.343  10.479 -0.6030 -0.1503  0.1102
  152SAPE    C116837   5.752  -0.272  10.353  0.0851  0.0702 -0.5645
  152SAPE    HA16838   5.740  -0.162  10.353  0.1762  0.1300  2.2224
  152SAPE    HB16839   5.859  -0.280  10.325 -0.2858  0.2178 -2.1769
  152SAPE    C216840   5.666  -0.344  10.242  0.2908 -0.3181 -0.0818
  152SAPE    HS16841   5.721  -0.321  10.148  0.9709 -2.8805 -0.3681
  152SAPE   O2116842   5.528  -0.290  10.253 -0.2049 -0.0160  0.2655
  152SAPE   C2116843   5.523  -0.168  10.204  0.7097  0.0386 -0.6048
  152SAPE   O2216844   5.603  -0.108  10.137 -0.4241  0.4106 -0.1569
  152SAPE   C2216845   5.394  -0.103  10.265 -0.6602  0.1706  0.0435
  152SAPE   H2R16846   5.311  -0.164  10.224  1.3488 -1.1912 -2.3287
  152SAPE   H2S16847   5.399  -0.096  10.375  1.6758 -1.3866  0.1031
  152SAPE    C316848   5.669  -0.498  10.249  0.1717  0.4510 -0.4536
  152SAPE    HX16849   5.605  -0.533  10.332  0.3491  0.4827 -0.3036
  152SAPE    HY16850   5.768  -0.536  10.281  0.4432 -1.0156 -2.7804
  152SAPE   O3116851   5.636  -0.570  10.127 -0.7066  0.3585  0.4909
  152SAPE   C3116852   5.526  -0.638  10.126 -0.2944  0.3094 -0.3638
  152SAPE   O3216853   5.448  -0.648  10.216 -0.7665  0.0399  0.4497
  152SAPE   C3216854   5.508  -0.700   9.993  0.0496  1.0021  0.1925
  152SAPE   H2X16855   5.459  -0.799  10.008  0.0332  0.7630 -1.3116
  152SAPE   H2Y16856   5.605  -0.719   9.943 -0.5596  0.7591 -0.9443
  152SAPE   C2316857   5.374   0.045  10.235 -0.1255  0.0057  0.2566
  152SAPE   H3R16858   5.469   0.099  10.254  0.9739 -1.8390  0.1745
  152SAPE   H3S16859   5.309   0.090  10.313 -0.3539 -2.2139  1.4064
  152SAPE   C2416860   5.297   0.089  10.102  0.9361  0.1327 -0.7730
  152SAPE   H4R16861   5.291   0.200  10.104 -1.1441  0.0758 -1.8171
  152SAPE   H4S16862   5.191   0.058  10.100  0.7907  0.4200  0.7486
  152SAPE   C2516863   5.377   0.043   9.988  0.7229  0.4683 -0.0220
  152SAPE   H5R16864   5.478   0.081  10.012  0.0844  0.2312  3.6751
  152SAPE   C2616865   5.337  -0.032   9.889 -0.3005  0.0197  0.0951
  152SAPE   H6R16866   5.424  -0.063   9.830  0.8156 -0.2954  1.8323
  152SAPE   C2716867   5.209  -0.098   9.867  0.6047  0.6036 -0.3812
  152SAPE   H7R16868   5.149  -0.030   9.803 -1.1819 -0.1944  0.3842
  152SAPE   H7S16869   5.146  -0.110   9.958  0.0544  1.3120 -0.6556
  152SAPE   C2816870   5.221  -0.235   9.796 -0.0137  0.3726  0.0433
  152SAPE   H8R16871   5.222  -0.312   9.874 -0.8876  0.7814  0.4749
  152SAPE   C2916872   5.240  -0.258   9.671  0.7111 -0.4638 -0.1170
  152SAPE   H9R16873   5.229  -0.359   9.629 -0.9405  0.1605 -1.2772
  152SAPE  C21016874   5.250  -0.154   9.559  0.4766 -0.0070  0.2274
  152SAPE  H10R16875   5.282  -0.057   9.604  0.0565 -0.2248  1.0090
  152SAPE  H10S16876   5.147  -0.139   9.520  0.2328 -1.0286  0.4595
  152SAPE  C21116877   5.348  -0.208   9.454 -0.1143 -0.5010 -0.0594
  152SAPE  H11R16878   5.439  -0.263   9.484  0.5269  0.8255  0.5436
  152SAPE  C21216879   5.336  -0.196   9.317 -0.0270 -0.3809 -0.1602
  152SAPE  H12R16880   5.419  -0.233   9.256  1.2852  2.3242 -0.1472
  152SAPE  C21316881   5.227  -0.119   9.237  0.0245 -0.2419 -0.5690
  152SAPE  H13R16882   5.151  -0.079   9.308  2.2727  0.9883  1.2860
  152SAPE  H13S16883   5.191  -0.188   9.158  0.7210 -1.3811  0.0757
  152SAPE  C21416884   5.293   0.001   9.174 -0.4089  0.3463  0.1703
  152SAPE  H14R16885   5.370   0.048   9.237  0.2008 -1.1051  0.5441
  152SAPE  C21516886   5.273   0.036   9.048 -1.3512  0.5459 -1.0165
  152SAPE  H15R16887   5.336   0.116   9.007  1.0051 -0.7894 -0.1978
  152SAPE  C21616888   5.185  -0.015   8.936  0.1966 -0.6235 -0.7109
  152SAPE  H16R16889   5.107   0.064   8.925  2.0875  1.5704  0.7459
  152SAPE  H16S16890   5.142  -0.116   8.959 -0.4523 -0.1873  0.0569
  152SAPE  C21716891   5.256  -0.035   8.805 -0.3534 -0.7212 -0.7845
  152SAPE  H17R16892   5.340  -0.107   8.817  0.6422  0.5705  0.3400
  152SAPE  H17S16893   5.314   0.055   8.777  0.7717 -1.1750  0.0124
  152SAPE  C21816894   5.158  -0.076   8.693  0.2044 -0.3290 -0.1643
  152SAPE  H18R16895   5.095   0.006   8.653 -0.5550 -1.0359 -0.4532
  152SAPE  H18S16896   5.101  -0.157   8.743 -1.1754  1.4203  1.2540
  152SAPE  C21916897   5.232  -0.123   8.567  0.4844 -0.1850 -0.4803
  152SAPE  H19R16898   5.307  -0.200   8.596  1.6962  0.1959 -2.3357
  152SAPE  H19S16899   5.291  -0.041   8.521  0.1630 -1.1520 -2.7568
  152SAPE  C22016900   5.150  -0.188   8.450 -0.4655 -0.4475  0.7710
  152SAPE  H20R16901   5.121  -0.102   8.386  1.8606 -1.3453 -1.7305
  152SAPE  H20S16902   5.072  -0.248   8.500 -1.9019  1.3485  0.7663
  152SAPE  H20T16903   5.208  -0.258   8.386  0.6266  0.4357  0.7739
  152SAPE   C3316904   5.442  -0.599   9.894  0.2883  0.1299 -0.0051
  152SAPE   H3X16905   5.489  -0.501   9.875 -2.8719  1.8177  0.1113
  152SAPE   H3Y16906   5.345  -0.573   9.942  0.0184 -2.3054  0.9409
  152SAPE   C3416907   5.396  -0.665   9.760  0.1288  0.1191 -0.3611
  152SAPE   H4X16908   5.328  -0.590   9.715 -2.7312 -0.7346  2.2471
  152SAPE   H4Y16909   5.336  -0.756   9.779 -0.3647  0.3393 -0.8342
  152SAPE   C3516910   5.516  -0.701   9.670  0.3553 -0.4128 -0.1241
  152SAPE   H5X16911   5.465  -0.727   9.575  0.0893  0.4109 -0.2142
  152SAPE   H5Y16912   5.560  -0.793   9.715 -0.1379 -0.7423 -0.3026
  152SAPE   C3616913   5.619  -0.591   9.620 -0.3720  0.4757 -0.4115
  152SAPE   H6X16914   5.717  -0.642   9.628  0.2642  1.6712 -0.4252
  152SAPE   H6Y16915   5.611  -0.500   9.683 -1.8170 -0.2220  0.4945
  152SAPE   C3716916   5.598  -0.536   9.478 -0.0418  0.0542 -0.1820
  152SAPE   H7X16917   5.677  -0.462   9.453  3.2077 -3.0882 -0.0300
  152SAPE   H7Y16918   5.499  -0.491   9.457 -1.8248 -3.0534  0.8566
  152SAPE   C3816919   5.620  -0.642   9.366  0.5717  0.3982  0.3120
  152SAPE   H8X16920   5.544  -0.722   9.378 -0.0523  0.7662 -1.0215
  152SAPE   H8Y16921   5.719  -0.694   9.371 -1.1337 -3.1365  0.3323
  152SAPE   C3916922   5.610  -0.598   9.217  0.0459 -0.0099  0.0224
  152SAPE   H9X16923   5.673  -0.507   9.203 -1.1364  0.7037 -0.7769
  152SAPE   H9Y16924   5.512  -0.557   9.186 -0.0788  0.9474  1.6025
  152SAPE  C31016925   5.657  -0.706   9.111 -0.4551  0.5140 -1.3776
  152SAPE  H10X16926   5.736  -0.765   9.162 -0.8720 -0.4135 -1.7883
  152SAPE  H10Y16927   5.701  -0.651   9.024  0.2908  1.5697 -0.3558
  152SAPE  C31116928   5.545  -0.796   9.062  0.5276  0.3613  0.1450
  152SAPE  H11X16929   5.468  -0.736   9.008  2.2955  2.1135 -0.5536
  152SAPE  H11Y16930   5.496  -0.840   9.152 -1.1874  0.7338 -0.5615
  152SAPE  C31216931   5.603  -0.905   8.968 -0.1127  0.1234 -0.5584
  152SAPE  H12X16932   5.529  -0.987   8.958  1.0457 -1.4851  2.7048
  152SAPE  H12Y16933   5.691  -0.956   9.013 -0.0981  0.3017 -0.3823
  152SAPE  C31316934   5.648  -0.845   8.828  0.0428 -0.4164 -0.2678
  152SAPE  H13X16935   5.725  -0.766   8.837  2.2716 -2.5640  0.7585
  152SAPE  H13Y16936   5.558  -0.793   8.787 -0.5954 -2.1550 -1.1893
  152SAPE  C31416937   5.714  -0.960   8.743  0.5780 -0.1137 -0.6141
  152SAPE  H14X16938   5.644  -1.047   8.742  0.0936  0.2122  0.9118
  152SAPE  H14Y16939   5.803  -1.000   8.797 -0.4363 -1.6667 -0.0063
  152SAPE  C31516940   5.745  -0.915   8.602  0.2171  0.0072  0.0754
  152SAPE  H15X16941   5.829  -0.843   8.612  0.8708 -0.8340  0.8369
  152SAPE  H15Y16942   5.659  -0.862   8.557  0.7680 -1.1830 -2.5376
  152SAPE  C31616943   5.774  -1.024   8.503 -0.1818  0.3219  0.1962
  152SAPE  H16X16944   5.680  -1.082   8.509  0.9837 -1.6045  0.9818
  152SAPE  H16Y16945   5.852  -1.091   8.547 -1.4760 -1.0853  0.4292
  152SAPE  C31716946   5.830  -0.991   8.365  0.0305 -0.1747 -0.0077
  152SAPE  H17X16947   5.847  -1.080   8.301 -3.2842 -0.2866 -0.9109
  152SAPE  H17Y16948   5.924  -0.938   8.393 -1.6333  1.3341  3.2567
  152SAPE  C31816949   5.749  -0.893   8.276  0.2094 -0.3994 -0.2698
  152SAPE  H18X16950   5.798  -0.878   8.177  0.1325  0.0676 -0.2396
  152SAPE  H18Y16951   5.748  -0.793   8.325 -0.4800 -0.2922 -0.4897
  152SAPE  H18Z16952   5.645  -0.927   8.262  1.3485 -3.7201 -1.6344
  153SAPE     N16953   5.648   5.620  10.763  0.1865  0.1714  0.0810
  153SAPE   HN116954   5.555   5.625  10.716  1.5440 -0.5816 -2.9210
  153SAPE   HN216955   5.687   5.524  10.758 -0.7434 -0.4270  2.8845
  153SAPE   HN316956   5.641   5.639  10.865  1.4457 -2.0924  0.6515
  153SAPE   C1216957   5.744   5.700  10.689  0.1084 -0.5962  0.5897
  153SAPE  H12A16958   5.724   5.685  10.581  0.3080 -0.2750  0.5050
  153SAPE  H12B16959   5.840   5.648  10.708  0.7610  0.1948 -0.4222
  153SAPE   C1116960   5.735   5.847  10.740  0.0275  0.2506 -0.1619
  153SAPE  H11A16961   5.780   5.858  10.841  0.5975 -2.2970 -0.0591
  153SAPE  H11B16962   5.626   5.864  10.758 -0.0252 -0.9826  0.8761
  153SAPE     P16963   5.751   6.079  10.611 -0.2783 -0.0462  0.1931
  153SAPE   O1316964   5.655   6.116  10.716  0.2734 -0.4671  0.0890
  153SAPE   O1416965   5.876   6.154  10.599 -0.7467 -0.3251  0.1794
  153SAPE   O1216966   5.794   5.928  10.638  0.4838  0.0187 -0.1520
  153SAPE   O1116967   5.671   6.071  10.477 -0.2266 -0.1399  0.0171
  153SAPE    C116968   5.653   5.957  10.398 -0.1415 -0.2819 -0.3455
  153SAPE    HA16969   5.621   5.875  10.466 -2.6875  2.2076  1.6918
  153SAPE    HB16970   5.575   5.978  10.322  1.0055 -0.1138 -1.5082
  153SAPE    C216971   5.785   5.920  10.326  0.1189  0.8452  0.1651
  153SAPE    HS16972   5.863   5.903  10.404  0.0479  1.1263  0.2987
  153SAPE   O2116973   5.809   6.015  10.218 -0.6989 -0.4194 -0.0256
  153SAPE   C2116974   5.941   6.031  10.189  0.1276 -0.2363  0.3721
  153SAPE   O2216975   6.034   5.975  10.244 -0.0430 -0.2119 -0.5077
  153SAPE   C2216976   5.952   6.137  10.084 -0.2561  0.4654  0.2064
  153SAPE   H2R16977   5.949   6.094   9.982 -3.6047 -0.1184  0.4468
  153SAPE   H2S16978   5.854   6.190  10.088 -0.4886  0.2101 -1.2895
  153SAPE    C316979   5.760   5.778  10.260  0.1622  0.4462 -0.3770
  153SAPE    HX16980   5.658   5.786  10.216  0.4342 -0.6210 -1.2596
  153SAPE    HY16981   5.754   5.701  10.340 -1.7707  1.3316  0.3965
  153SAPE   O3116982   5.860   5.732  10.163 -0.2308 -0.6289 -0.2667
  153SAPE   C3116983   5.834   5.740  10.033  0.2647  0.1393  0.1952
  153SAPE   O3216984   5.729   5.773   9.981 -0.3101  0.1018 -0.3790
  153SAPE   C3216985   5.956   5.689   9.949  0.1955  0.0133 -0.6752
  153SAPE   H2X16986   5.921   5.592   9.906  0.9074 -0.0011 -1.2341
  153SAPE   H2Y16987   6.035   5.672  10.025 -1.1041 -0.3983  0.6245
  153SAPE   C2316988   6.064   6.240  10.098 -0.3922 -0.6904 -0.8951
  153SAPE   H3R16989   6.093   6.253  10.204  1.0132  0.9345 -1.4361
  153SAPE   H3S16990   6.032   6.342  10.067  1.3310 -0.6651 -2.8355
  153SAPE   C2416991   6.184   6.204  10.009 -0.1669  0.8239 -0.0278
  153SAPE   H4R16992   6.155   6.198   9.902  1.6318 -0.1549 -0.5073
  153SAPE   H4S16993   6.218   6.109  10.055 -0.7045  0.6377 -0.0083
  153SAPE   C2516994   6.296   6.303  10.034  0.7641 -0.1380 -0.1006
  153SAPE   H5R16995   6.316   6.315  10.142 -1.4816  0.6468  0.2847
  153SAPE   C2616996   6.371   6.371   9.949  0.6458  0.3766  0.4589
  153SAPE   H6R16997   6.458   6.424   9.990  0.4270  1.6590 -0.6744
  153SAPE   C2716998   6.374   6.359   9.799 -0.1537 -0.1408 -0.1744
  153SAPE   H7R16999   6.375   6.462   9.756  3.3510  0.2692  0.6169
  153SAPE   H7S17000   6.282   6.306   9.767 -0.1376 -0.3571  0.1364
  153SAPE   C2817001   6.497   6.284   9.752  0.0384  0.1704 -0.5835
  153SAPE   H8R17002   6.540   6.218   9.828 -0.8600  0.2637  0.0181
  153SAPE   C2917003   6.538   6.275   9.623 -0.4728 -0.3461  0.0127
  153SAPE   H9R17004   6.627   6.215   9.603 -1.3684 -1.1662 -1.7139
  153SAPE  C21017005   6.475   6.340   9.502  0.4406  0.0292 -0.1475
  153SAPE  H10R17006   6.485   6.450   9.517 -1.0499 -0.0505  1.7498
  153SAPE  H10S17007   6.370   6.307   9.487  0.7664 -1.0690 -0.1203
  153SAPE  C21117008   6.563   6.306   9.386 -0.3349  0.1339 -0.2388
  153SAPE  H11R17009   6.632   6.390   9.369 -1.9086  1.1076 -2.3561
  153SAPE  C21217010   6.561   6.201   9.299 -0.2128  0.1161  0.3271
  153SAPE  H12R17011   6.637   6.205   9.219 -0.0725  2.7996  0.4935
  153SAPE  C21317012   6.467   6.088   9.316 -0.0039 -0.6613  0.1888
  153SAPE  H13R17013   6.388   6.101   9.394  1.0277  2.5259  0.8451
  153SAPE  H13S17014   6.520   5.998   9.355  0.6859 -1.0660 -1.6113
  153SAPE  C21417015   6.394   6.064   9.189  0.2717  0.4354  0.5361
  153SAPE  H14R17016   6.300   6.118   9.173 -0.7573 -1.4798 -0.1818
  153SAPE  C21517017   6.417   5.973   9.091  0.3309 -0.1594 -0.1845
  153SAPE  H15R17018   6.352   5.975   9.003  0.5726  0.2882 -0.3567
  153SAPE  C21617019   6.532   5.878   9.091  0.0360  0.2232  0.0752
  153SAPE  H16R17020   6.587   5.870   9.186  2.1109  0.0580 -1.0861
  153SAPE  H16S17021   6.608   5.909   9.017 -1.2387 -0.8106 -1.7617
  153SAPE  C21717022   6.486   5.735   9.049  0.7936 -0.1659 -0.0208
  153SAPE  H17R17023   6.428   5.746   8.955  0.1298 -0.1419  0.3877
  153SAPE  H17S17024   6.410   5.696   9.120  1.6069  0.7100  1.3712
  153SAPE  C21817025   6.592   5.631   9.019 -0.2156 -0.3752  0.0043
  153SAPE  H18R17026   6.551   5.528   9.014  0.7169 -0.7122 -1.5598
  153SAPE  H18S17027   6.671   5.633   9.098  0.3403 -0.2528 -0.5505
  153SAPE  C21917028   6.665   5.645   8.882 -0.0487 -0.4857  0.0480
  153SAPE  H19R17029   6.730   5.735   8.886 -0.2598 -0.3330  0.1109
  153SAPE  H19S17030   6.586   5.662   8.806  0.1523  2.1383  0.3240
  153SAPE  C22017031   6.742   5.525   8.841  0.0217  0.1336 -0.3295
  153SAPE  H20R17032   6.676   5.438   8.821  0.8700 -0.3160 -1.2187
  153SAPE  H20S17033   6.813   5.497   8.921  0.2449  2.9087  0.5678
  153SAPE  H20T17034   6.802   5.542   8.749 -0.6932 -1.2920 -1.1002
  153SAPE   C3317035   5.990   5.779   9.835 -0.4746 -0.0391 -0.1249
  153SAPE   H3X17036   6.037   5.870   9.878 -1.8338  1.0862 -0.9267
  153SAPE   H3Y17037   5.899   5.821   9.787 -0.7194 -1.5484 -1.0424
  153SAPE   C3417038   6.072   5.710   9.722 -0.1016  0.2470 -0.6676
  153SAPE   H4X17039   6.012   5.624   9.688 -0.2671 -0.2553  0.8259
  153SAPE   H4Y17040   6.171   5.681   9.762 -0.3831  0.6152  0.3245
  153SAPE   C3517041   6.095   5.798   9.597  0.4992  0.0760 -0.0150
  153SAPE   H5X17042   6.122   5.901   9.628 -1.4001  0.8443 -0.8041
  153SAPE   H5Y17043   5.990   5.820   9.569  0.6886  1.6570  0.4115
  153SAPE   C3617044   6.174   5.741   9.478  0.1808 -0.2986 -0.3125
  153SAPE   H6X17045   6.163   5.630   9.480 -2.4593 -0.1224  2.8761
  153SAPE   H6Y17046   6.283   5.753   9.495  0.0456  1.1023 -0.3409
  153SAPE   C3717047   6.138   5.793   9.336 -0.5143 -0.0317 -0.5231
  153SAPE   H7X17048   6.217   5.767   9.263 -0.0551  0.7752 -0.3195
  153SAPE   H7Y17049   6.125   5.903   9.350  0.7303 -0.2013  2.7951
  153SAPE   C3817050   6.014   5.727   9.277  0.4260  0.5666 -0.6838
  153SAPE   H8X17051   5.940   5.709   9.358  1.0879  0.2705 -0.1390
  153SAPE   H8Y17052   6.034   5.626   9.237 -2.2768 -1.3510  2.3584
  153SAPE   C3917053   5.949   5.811   9.175 -0.7137  0.3473  0.9484
  153SAPE   H9X17054   5.934   5.920   9.190 -2.2513  0.2228  0.4851
  153SAPE   H9Y17055   5.841   5.785   9.162 -0.2766 -0.7744 -0.9368
  153SAPE  C31017056   6.020   5.800   9.039 -0.5303  0.0046 -0.1048
  153SAPE  H10X17057   6.117   5.854   9.040 -1.0694  1.0005  0.7282
  153SAPE  H10Y17058   5.959   5.866   8.974  0.0514 -0.5350 -1.2288
  153SAPE  C31117059   6.026   5.669   8.972  0.4460  0.2034  0.4612
  153SAPE  H11X17060   6.089   5.600   9.032 -1.0567 -1.7809 -0.1481
  153SAPE  H11Y17061   6.057   5.684   8.866 -3.3875 -0.6576 -0.9316
  153SAPE  C31217062   5.895   5.583   8.966 -0.3578  0.4913 -0.0963
  153SAPE  H12X17063   5.816   5.639   8.912  0.0820 -0.8156 -2.1767
  153SAPE  H12Y17064   5.855   5.551   9.065  1.9534  0.3569  0.8504
  153SAPE  C31317065   5.911   5.441   8.902  0.6205  0.4687 -0.1984
  153SAPE  H13X17066   5.811   5.394   8.914  1.2047 -0.4123  1.4924
  153SAPE  H13Y17067   5.990   5.392   8.962  0.2520 -0.9556 -0.8382
  153SAPE  C31417068   5.951   5.450   8.754  0.4381  0.0765 -0.1384
  153SAPE  H14X17069   6.056   5.483   8.736  1.5585 -2.3335  1.5021
  153SAPE  H14Y17070   5.880   5.513   8.696  0.6095 -0.2989 -0.7593
  153SAPE  C31517071   5.947   5.300   8.692  0.8897 -1.3208 -0.3605
  153SAPE  H15X17072   5.839   5.274   8.691  0.3642  0.2856  2.4103
  153SAPE  H15Y17073   5.988   5.234   8.772 -0.2111 -1.3322  0.2084
  153SAPE  C31617074   6.022   5.277   8.560  0.3335  0.0112 -0.0257
  153SAPE  H16X17075   6.132   5.288   8.572  0.4487 -0.1041 -0.9056
  153SAPE  H16Y17076   5.983   5.340   8.477 -1.9799  0.1473  1.0989
  153SAPE  C31717077   5.998   5.132   8.520 -0.4768 -0.2634 -0.2075
  153SAPE  H17X17078   5.889   5.117   8.505 -0.3131  0.3258 -2.1832
  153SAPE  H17Y17079   6.028   5.064   8.602  2.4208  0.8822 -0.2073
  153SAPE  C31817080   6.060   5.087   8.391 -0.0126  0.1326 -0.4039
  153SAPE  H18X17081   6.169   5.112   8.397 -0.2048  0.9305 -0.0919
  153SAPE  H18Y17082   6.032   5.140   8.297  0.4670 -0.3289 -0.8165
  153SAPE  H18Z17083   6.037   4.980   8.375  2.6807 -0.8465  1.5420
  154SAPE     N17084   6.322   0.518  10.957  0.2550  0.2862 -0.2128
  154SAPE   HN117085   6.228   0.475  10.958  0.0625  0.6503 -1.3668
  154SAPE   HN217086   6.397   0.448  10.940 -0.2006 -0.0380 -0.9466
  154SAPE   HN317087   6.331   0.553  11.055 -3.1052  0.1620  0.2385
  154SAPE   C1217088   6.342   0.629  10.859  0.7056  0.0974 -0.2685
  154SAPE  H12A17089   6.265   0.706  10.881  0.4150 -0.4633  0.7237
  154SAPE  H12B17090   6.321   0.580  10.761 -1.9686 -0.4045  0.4686
  154SAPE   C1117091   6.493   0.668  10.866 -0.3624 -0.0271  0.3763
  154SAPE  H11A17092   6.522   0.714  10.963  0.4319 -1.8993  1.0727
  154SAPE  H11B17093   6.510   0.743  10.786  1.8099  1.4494  2.0872
  154SAPE     P17094   6.710   0.547  10.782  0.1927 -0.1286  0.0597
  154SAPE   O1317095   6.798   0.631  10.869 -0.1067 -0.3747 -0.1044
  154SAPE   O1417096   6.746   0.415  10.740  0.9502 -0.6063  0.6278
  154SAPE   O1217097   6.570   0.544  10.842 -0.9048 -0.5472 -0.0548
  154SAPE   O1117098   6.686   0.628  10.650 -0.1644 -0.2924  0.5118
  154SAPE    C117099   6.615   0.562  10.540 -0.3952 -0.2107  0.3988
  154SAPE    HA17100   6.555   0.476  10.577 -0.7526  0.2866  0.9734
  154SAPE    HB17101   6.543   0.632  10.493 -1.8982 -0.7896  1.7406
  154SAPE    C217102   6.709   0.516  10.423 -0.3257 -0.1383 -0.0587
  154SAPE    HS17103   6.797   0.471  10.474 -0.0355  1.4821  0.9385
  154SAPE   O2117104   6.743   0.638  10.355 -0.1453 -0.0641  0.2418
  154SAPE   C2117105   6.862   0.646  10.314 -0.1585 -0.4094  0.2308
  154SAPE   O2217106   6.954   0.562  10.326 -0.0732  0.4171  0.5434
  154SAPE   C2217107   6.883   0.790  10.263 -0.2516  0.1199 -0.3507
  154SAPE   H2R17108   6.840   0.798  10.161 -2.2678  0.3500  0.4686
  154SAPE   H2S17109   6.835   0.865  10.330  3.2462  1.1816  1.2284
  154SAPE    C317110   6.657   0.404  10.327  0.4103  0.1204  0.5673
  154SAPE    HX17111   6.562   0.440  10.284  0.4197 -1.0076 -0.4653
  154SAPE    HY17112   6.634   0.311  10.385 -0.8607 -0.6865 -1.1440
  154SAPE   O3117113   6.746   0.377  10.216 -0.6605  0.7229  0.5412
  154SAPE   C3117114   6.829   0.272  10.239 -0.1769 -0.4679 -0.3190
  154SAPE   O3217115   6.839   0.205  10.345 -0.5669 -0.3879 -0.1264
  154SAPE   C3217116   6.926   0.271  10.123 -0.0025 -0.3572 -0.0384
  154SAPE   H2X17117   7.015   0.221  10.167 -0.2201 -0.4489  0.2956
  154SAPE   H2Y17118   6.960   0.374  10.098 -0.0375  0.9960  4.5453
  154SAPE   C2317119   7.036   0.830  10.247  0.1099 -0.7640 -0.3576
  154SAPE   H3R17120   7.090   0.741  10.208  0.8099 -1.6322  2.3275
  154SAPE   H3S17121   7.081   0.853  10.346  0.3364 -1.2951 -0.3355
  154SAPE   C2417122   7.044   0.950  10.147  0.6431  0.2583  0.9752
  154SAPE   H4R17123   7.029   1.044  10.204  3.6106  1.4590 -0.0516
  154SAPE   H4S17124   6.957   0.947  10.078  2.7560 -1.9643 -1.8575
  154SAPE   C2517125   7.174   0.968  10.074  0.2058 -0.0176  0.5402
  154SAPE   H5R17126   7.269   0.967  10.129  1.2075  2.6637 -0.9634
  154SAPE   C2617127   7.198   0.995   9.941  0.3308  0.1929 -0.7755
  154SAPE   H6R17128   7.302   1.006   9.909 -0.1502 -1.3945 -3.1066
  154SAPE   C2717129   7.086   1.029   9.846  1.0003  0.4147  0.9924
  154SAPE   H7R17130   7.133   1.090   9.766  0.4606  0.0350  0.3840
  154SAPE   H7S17131   7.007   1.086   9.899 -1.2479 -0.9791 -0.6919
  154SAPE   C2817132   7.014   0.907   9.795  0.3040 -0.1633 -0.3978
  154SAPE   H8R17133   7.010   0.826   9.870  2.8676  0.4077  0.4501
  154SAPE   C2917134   6.971   0.876   9.672 -1.0777 -0.4482  0.4447
  154SAPE   H9R17135   6.931   0.774   9.659 -1.0757 -0.8585  3.0796
  154SAPE  C21017136   6.988   0.968   9.553  0.0457 -0.8324  0.2160
  154SAPE  H10R17137   7.066   1.046   9.563  0.3927 -0.8542 -1.8062
  154SAPE  H10S17138   6.900   1.036   9.552  0.7247  0.0840  0.9297
  154SAPE  C21117139   7.005   0.896   9.422 -0.0802  0.4037 -0.1366
  154SAPE  H11R17140   7.049   0.795   9.425  0.0515  0.4406 -0.7594
  154SAPE  C21217141   6.957   0.925   9.301 -0.1051 -0.2136  0.1086
  154SAPE  H12R17142   6.984   0.856   9.219 -1.4453  0.2567 -0.7533
  154SAPE  C21317143   6.895   1.057   9.270 -0.0774  0.2548 -0.3094
  154SAPE  H13R17144   6.905   1.120   9.361 -3.5560 -1.3111  1.3163
  154SAPE  H13S17145   6.784   1.056   9.265 -0.0516 -1.6370 -1.2916
  154SAPE  C21417146   6.953   1.115   9.145  0.1540  0.2060 -0.1839
  154SAPE  H14R17147   7.027   1.192   9.171 -0.2732  0.9965 -1.2499
  154SAPE  C21517148   6.948   1.076   9.016 -0.1019 -0.0576  0.1055
  154SAPE  H15R17149   7.002   1.142   8.946 -0.8270  2.4639  1.7735
  154SAPE  C21617150   6.877   0.956   8.968 -0.3539  0.6437  0.3873
  154SAPE  H16R17151   6.783   0.986   8.916 -0.9455 -1.1424  0.3663
  154SAPE  H16S17152   6.822   0.920   9.058 -0.4990 -0.4919 -0.1390
  154SAPE  C21717153   6.955   0.864   8.880 -0.3103  0.0242 -0.0754
  154SAPE  H17R17154   6.892   0.773   8.881 -1.2784  0.4268  5.3899
  154SAPE  H17S17155   7.043   0.836   8.942 -0.5174  2.2808  1.3714
  154SAPE  C21817156   6.992   0.905   8.744  0.3585  0.7613  0.9139
  154SAPE  H18R17157   7.077   0.975   8.733 -0.9547  2.0526 -3.0149
  154SAPE  H18S17158   6.906   0.961   8.701  1.5712  1.0039 -1.3612
  154SAPE  C21917159   7.029   0.789   8.642 -0.5863  0.1465 -0.0999
  154SAPE  H19R17160   7.126   0.743   8.668 -0.5012 -0.1658 -0.9329
  154SAPE  H19S17161   7.052   0.841   8.546  1.8226  0.6419  0.6803
  154SAPE  C22017162   6.918   0.685   8.625 -0.5524  0.2703  0.2078
  154SAPE  H20R17163   6.822   0.739   8.616  0.0009  1.1683 -0.4021
  154SAPE  H20S17164   6.910   0.601   8.698  3.6849 -1.2348 -0.7239
  154SAPE  H20T17165   6.924   0.637   8.525 -3.7933 -1.4785  0.7080
  154SAPE   C3317166   6.879   0.182  10.001 -0.2346  0.5535 -0.4123
  154SAPE   H3X17167   6.784   0.216   9.954 -0.9161  0.7543  1.0371
  154SAPE   H3Y17168   6.858   0.083  10.046 -2.9438  1.5588  0.8210
  154SAPE   C3417169   6.987   0.174   9.892 -0.0062  0.6765  0.3917
  154SAPE   H4X17170   7.079   0.119   9.920  1.4727  2.8340 -0.0287
  154SAPE   H4Y17171   7.021   0.279   9.879  0.2826  0.5211 -0.1205
  154SAPE   C3517172   6.933   0.111   9.762 -0.7465  0.4778 -0.0064
  154SAPE   H5X17173   6.839   0.162   9.732 -0.8653  0.1023 -0.2807
  154SAPE   H5Y17174   6.910   0.004   9.779 -2.4805  0.8623  0.1842
  154SAPE   C3617175   7.036   0.128   9.645  0.5477 -0.1083  0.2689
  154SAPE   H6X17176   7.124   0.066   9.672 -0.5981 -2.0546 -0.3502
  154SAPE   H6Y17177   7.075   0.229   9.617 -0.8323  0.3064 -0.2393
  154SAPE   C3717178   6.990   0.052   9.524  0.5867  0.5526 -0.4356
  154SAPE   H7X17179   6.897   0.100   9.486  0.9644  0.9557 -0.8563
  154SAPE   H7Y17180   6.975  -0.055   9.551  2.7784  0.7763  2.0979
  154SAPE   C3817181   7.088   0.082   9.412 -0.1345  0.8604  0.1732
  154SAPE   H8X17182   7.185   0.041   9.446  0.1046  0.2833 -1.1352
  154SAPE   H8Y17183   7.087   0.191   9.389  0.5835  1.0233  0.8762
  154SAPE   C3917184   7.046   0.001   9.290  0.0438 -0.2266  0.6751
  154SAPE   H9X17185   6.948   0.044   9.261  0.1351 -0.5583 -0.1601
  154SAPE   H9Y17186   7.022  -0.105   9.312  0.5057 -0.2931  0.8814
  154SAPE  C31017187   7.147   0.014   9.177 -0.0729 -0.0836 -0.2275
  154SAPE  H10X17188   7.253  -0.005   9.206  0.2767 -1.0834 -2.0155
  154SAPE  H10Y17189   7.140   0.114   9.130 -0.9167 -0.2600 -0.4862
  154SAPE  C31117190   7.124  -0.081   9.055 -1.3849 -0.6122  0.0187
  154SAPE  H11X17191   7.029  -0.047   9.009 -0.2782 -1.1692 -2.9362
  154SAPE  H11Y17192   7.117  -0.186   9.093  0.5819 -0.7147  0.2212
  154SAPE  C31217193   7.234  -0.071   8.943  0.5108  0.4321 -0.3972
  154SAPE  H12X17194   7.334  -0.090   8.986 -0.6568 -3.9622  0.8749
  154SAPE  H12Y17195   7.230   0.033   8.902  4.5755  1.0493  0.3636
  154SAPE  C31317196   7.208  -0.180   8.825  0.5919 -0.1241  0.4676
  154SAPE  H13X17197   7.107  -0.154   8.784  0.0032  1.8691  2.9095
  154SAPE  H13Y17198   7.200  -0.283   8.866 -0.9377 -0.8066 -1.4135
  154SAPE  C31417199   7.300  -0.174   8.708  0.5979  0.1644  0.6881
  154SAPE  H14X17200   7.317  -0.067   8.684  1.0953 -0.4534 -2.0142
  154SAPE  H14Y17201   7.263  -0.228   8.618  2.6174 -0.2985  0.0774
  154SAPE  C31517202   7.442  -0.233   8.734 -0.0690 -0.0366  0.5599
  154SAPE  H15X17203   7.436  -0.343   8.749 -0.7405 -0.0451  0.2474
  154SAPE  H15Y17204   7.481  -0.190   8.829 -1.8883 -0.6353  1.6248
  154SAPE  C31617205   7.533  -0.195   8.612  0.2173 -0.5533  0.2653
  154SAPE  H16X17206   7.557  -0.087   8.623  0.1108 -0.5760  0.7698
  154SAPE  H16Y17207   7.476  -0.211   8.518 -0.1526 -2.6718  0.7889
  154SAPE  C31717208   7.662  -0.280   8.593  0.2736 -0.0759 -0.4774
  154SAPE  H17X17209   7.636  -0.388   8.580 -1.5612  0.3491 -0.6828
  154SAPE  H17Y17210   7.722  -0.277   8.686  0.6797 -0.9983 -0.6888
  154SAPE  C31817211   7.744  -0.226   8.472  0.1130 -0.5519 -0.0411
  154SAPE  H18X17212   7.687  -0.255   8.382 -1.6806 -0.3382  0.9817
  154SAPE  H18Y17213   7.850  -0.262   8.471 -0.6103 -2.8929 -1.7742
  154SAPE  H18Z17214   7.746  -0.115   8.473 -2.5482 -0.4388  1.0929
  155SAPE     N17215   1.618   1.849  11.160  0.1130 -0.5067 -0.3073
  155SAPE   HN117216   1.647   1.779  11.232  0.5806  1.3937  1.4660
  155SAPE   HN217217   1.614   1.944  11.203  2.1765 -0.5806  0.1475
  155SAPE   HN317218   1.520   1.825  11.136 -0.5459  0.5256  1.1950
  155SAPE   C1217219   1.707   1.841  11.040  0.2285 -0.5364 -0.3066
  155SAPE  H12A17220   1.805   1.807  11.080  1.2540  2.2205 -0.2680
  155SAPE  H12B17221   1.722   1.945  11.004  0.2958 -0.9979 -1.6648
  155SAPE   C1117222   1.637   1.772  10.917  0.2129  0.0940 -0.1563
  155SAPE  H11A17223   1.624   1.663  10.935 -2.1981  0.5579  1.2594
  155SAPE  H11B17224   1.696   1.786  10.824 -2.2478  2.5372 -1.4904
  155SAPE     P17225   1.474   1.943  10.788 -0.0329 -0.4000  0.2940
  155SAPE   O1317226   1.350   2.008  10.835 -1.0587 -0.2881 -0.1856
  155SAPE   O1417227   1.591   2.031  10.770 -0.1755 -0.3415 -0.0354
  155SAPE   O1217228   1.502   1.823  10.888  0.1194  0.3320 -0.5966
  155SAPE   O1117229   1.448   1.882  10.648 -0.1002  1.0251 -0.3608
  155SAPE    C117230   1.379   1.754  10.626  0.2763  1.0805  0.0944
  155SAPE    HA17231   1.439   1.668  10.663 -0.3803  0.6095  0.0782
  155SAPE    HB17232   1.282   1.756  10.680 -1.0549 -3.2521 -1.6739
  155SAPE    C217233   1.338   1.728  10.485 -0.6856 -0.6181  0.8027
  155SAPE    HS17234   1.309   1.622  10.474 -1.8665 -0.1429 -1.0786
  155SAPE   O2117235   1.448   1.756  10.394 -0.2967 -0.2722 -0.2582
  155SAPE   C2117236   1.540   1.665  10.387  0.3939  0.4732  0.8160
  155SAPE   O2217237   1.535   1.558  10.443  0.1329 -0.1355 -0.1902
  155SAPE   C2217238   1.648   1.704  10.285 -0.3298  0.6230  0.0699
  155SAPE   H2R17239   1.620   1.796  10.228  0.4570  1.5730  1.1612
  155SAPE   H2S17240   1.743   1.717  10.341  0.1775 -1.0734 -0.3448
  155SAPE    C317241   1.222   1.819  10.435 -0.7578  0.3465  0.0007
  155SAPE    HX17242   1.258   1.924  10.440  1.4422 -0.3442 -0.5857
  155SAPE    HY17243   1.137   1.804  10.506  1.1646 -3.4711  1.7507
  155SAPE   O3117244   1.189   1.774  10.299 -0.3470  0.0933  0.2986
  155SAPE   C3117245   1.246   1.834  10.198  0.9267  0.6461  0.0481
  155SAPE   O3217246   1.308   1.939  10.202  0.1340 -0.2925 -0.0640
  155SAPE   C3217247   1.227   1.742  10.075  0.3681  0.6324 -0.1588
  155SAPE   H2X17248   1.270   1.641  10.090 -2.2219 -0.6225 -0.5837
  155SAPE   H2Y17249   1.289   1.790   9.996 -0.5811  0.5517 -0.9860
  155SAPE   C2317250   1.674   1.584  10.183 -0.4225 -0.7202  0.5425
  155SAPE   H3R17251   1.668   1.486  10.236 -0.4138 -0.8628  0.2845
  155SAPE   H3S17252   1.780   1.592  10.150 -0.5461  0.5065  0.4028
  155SAPE   C2417253   1.580   1.608  10.063  0.3176  0.4634  0.1838
  155SAPE   H4R17254   1.605   1.711  10.029 -2.0559  1.3940  1.0753
  155SAPE   H4S17255   1.475   1.616  10.098 -0.4023  0.5123 -1.8283
  155SAPE   C2517256   1.589   1.508   9.954  0.0585  0.9127  0.0136
  155SAPE   H5R17257   1.598   1.407   9.995  1.0379 -0.1486 -2.6020
  155SAPE   C2617258   1.611   1.525   9.823 -0.6908 -0.2287  0.3995
  155SAPE   H6R17259   1.621   1.435   9.761  1.4200 -1.6587  2.6189
  155SAPE   C2717260   1.621   1.660   9.766  0.0641  0.4046  0.8763
  155SAPE   H7R17261   1.660   1.652   9.663 -0.2196  1.3983  0.6839
  155SAPE   H7S17262   1.700   1.715   9.822  0.1844 -0.0085  1.1193
  155SAPE   C2817263   1.490   1.737   9.759 -0.0193 -0.8677  0.4991
  155SAPE   H8R17264   1.397   1.681   9.740  0.2142 -1.4819  1.1302
  155SAPE   C2917265   1.482   1.867   9.773 -0.0744  0.0481  0.2141
  155SAPE   H9R17266   1.382   1.909   9.754  0.4912  1.5754  0.4475
  155SAPE  C21017267   1.586   1.967   9.805 -0.0218 -0.0600  0.1846
  155SAPE  H10R17268   1.587   2.050   9.731  2.0052 -1.1939 -1.1292
  155SAPE  H10S17269   1.687   1.924   9.813 -0.3094 -0.4986  1.8946
  155SAPE  C21117270   1.555   2.024   9.944 -0.5825 -0.1644 -0.6053
  155SAPE  H11R17271   1.451   2.050   9.969  0.0718 -0.5493  3.0195
  155SAPE  C21217272   1.638   2.041  10.046 -0.3433 -0.1117  0.5794
  155SAPE  H12R17273   1.591   2.064  10.142 -2.1410  2.5036 -0.8246
  155SAPE  C21317274   1.781   2.004  10.045 -0.3399 -0.1644 -0.2771
  155SAPE  H13R17275   1.850   2.076   9.996 -1.6177 -0.2930 -2.3962
  155SAPE  H13S17276   1.782   1.910   9.985 -0.0463  0.1377 -0.7484
  155SAPE  C21417277   1.840   1.981  10.187 -0.0762  0.5111 -0.5344
  155SAPE  H14R17278   1.760   1.978  10.261 -1.6368  1.7297 -2.0785
  155SAPE  C21517279   1.969   1.946  10.220 -0.0297  0.0586 -0.4697
  155SAPE  H15R17280   1.991   1.936  10.327  2.1123  0.4708 -0.8255
  155SAPE  C21617281   2.080   1.906  10.124 -0.1390  0.4160  0.4254
  155SAPE  H16R17282   2.136   1.988  10.074  2.0044 -1.5164 -0.5518
  155SAPE  H16S17283   2.038   1.847  10.040  1.4032  1.1691 -0.9285
  155SAPE  C21717284   2.171   1.804  10.195  0.2958 -0.8374  0.3544
  155SAPE  H17R17285   2.226   1.854  10.277 -1.3839 -0.1896  1.1226
  155SAPE  H17S17286   2.252   1.768  10.127  0.2948 -1.5075  0.6978
  155SAPE  C21817287   2.096   1.684  10.250 -0.1253  0.2823  0.0131
  155SAPE  H18R17288   2.007   1.667  10.185 -0.4003  3.3299 -0.5836
  155SAPE  H18S17289   2.050   1.691  10.351 -2.4112 -1.0139 -0.8527
  155SAPE  C21917290   2.195   1.566  10.250 -0.2838  0.5026 -0.2731
  155SAPE  H19R17291   2.255   1.574  10.157 -0.4173 -1.0462 -0.5232
  155SAPE  H19S17292   2.139   1.470  10.250  0.1730  0.2387  0.0647
  155SAPE  C22017293   2.291   1.571  10.370  1.2133 -0.7678 -0.2507
  155SAPE  H20R17294   2.356   1.481  10.360 -0.8992 -2.5085  0.6531
  155SAPE  H20S17295   2.224   1.579  10.458 -0.7928  3.0724 -1.8988
  155SAPE  H20T17296   2.359   1.658  10.366  1.2925 -0.7827  0.5236
  155SAPE   C3317297   1.083   1.732  10.017 -0.1823 -0.2401  0.3588
  155SAPE   H3X17298   1.030   1.829  10.004 -1.1823 -0.6370  1.2656
  155SAPE   H3Y17299   1.032   1.671  10.094 -0.0990 -0.4634  0.2358
  155SAPE   C3417300   1.073   1.640   9.897 -0.0422 -0.2248  0.2666
  155SAPE   H4X17301   0.965   1.614   9.902 -0.9377  3.0034  0.5418
  155SAPE   H4Y17302   1.128   1.544   9.904  0.3176  0.0748  2.0460
  155SAPE   C3517303   1.104   1.705   9.756  0.6749  0.0607  0.1695
  155SAPE   H5X17304   1.193   1.772   9.766 -1.0785  2.6105 -0.2668
  155SAPE   H5Y17305   1.021   1.771   9.724  1.8245  0.8255 -1.3902
  155SAPE   C3617306   1.126   1.596   9.653  0.4784  0.5132 -0.7304
  155SAPE   H6X17307   1.036   1.531   9.647  0.7449  0.1503 -0.9170
  155SAPE   H6Y17308   1.214   1.541   9.694  1.0551  1.8932 -0.0723
  155SAPE   C3717309   1.152   1.639   9.508 -0.1093  0.5028  0.2049
  155SAPE   H7X17310   1.246   1.697   9.492  1.0644 -1.5237 -0.7258
  155SAPE   H7Y17311   1.064   1.696   9.472  0.1230  0.6314 -0.1762
  155SAPE   C3817312   1.187   1.517   9.421 -0.6853 -0.2602 -0.1524
  155SAPE   H8X17313   1.111   1.478   9.350 -0.9402  0.5756 -0.3488
  155SAPE   H8Y17314   1.226   1.438   9.488  0.1303  0.3162  0.0753
  155SAPE   C3917315   1.308   1.555   9.332 -0.4837 -0.4326  0.0396
  155SAPE   H9X17316   1.361   1.469   9.288  2.0143  1.0919 -0.1315
  155SAPE   H9Y17317   1.391   1.587   9.398 -1.0261 -0.4026  0.7253
  155SAPE  C31017318   1.273   1.650   9.214  0.5287 -0.8109 -0.2650
  155SAPE  H10X17319   1.273   1.756   9.247 -0.4698 -0.9616  0.2592
  155SAPE  H10Y17320   1.178   1.625   9.162  0.7443 -0.2890 -0.9250
  155SAPE  C31117321   1.391   1.634   9.111  0.4840 -0.0538  0.1317
  155SAPE  H11X17322   1.405   1.527   9.084 -0.4803 -0.3799  0.8673
  155SAPE  H11Y17323   1.479   1.676   9.164 -0.0641  0.5710  0.5599
  155SAPE  C31217324   1.366   1.717   8.986 -0.3080 -0.6300 -0.1306
  155SAPE  H12X17325   1.358   1.823   9.017  0.6493 -0.8258  0.8283
  155SAPE  H12Y17326   1.263   1.695   8.950 -1.0816  0.3970  1.3755
  155SAPE  C31317327   1.469   1.693   8.877  0.1590 -0.2519  0.3649
  155SAPE  H13X17328   1.446   1.588   8.849 -0.0419  0.1711 -1.0952
  155SAPE  H13Y17329   1.571   1.712   8.915 -0.0357  3.3831 -0.6097
  155SAPE  C31417330   1.435   1.776   8.753 -0.2183 -0.0765  0.0931
  155SAPE  H14X17331   1.342   1.743   8.702 -0.3840  0.0380  0.3201
  155SAPE  H14Y17332   1.514   1.764   8.676 -1.4977  1.2927 -1.5124
  155SAPE  C31517333   1.425   1.929   8.783 -0.0570  0.8271  0.4834
  155SAPE  H15X17334   1.341   1.949   8.853 -0.9787 -1.9516  0.3062
  155SAPE  H15Y17335   1.393   1.985   8.693  0.2586 -0.4221 -0.4316
  155SAPE  C31617336   1.557   1.990   8.824  0.3135  0.5186 -0.5843
  155SAPE  H16X17337   1.648   1.951   8.773  0.8386 -2.4224  2.2265
  155SAPE  H16Y17338   1.575   1.965   8.931 -1.4657  0.6950 -0.2178
  155SAPE  C31717339   1.555   2.143   8.811 -0.0747  0.2238 -1.2744
  155SAPE  H17X17340   1.454   2.188   8.828  1.0700  2.5985 -0.2327
  155SAPE  H17Y17341   1.571   2.170   8.704  1.2231  0.6001 -1.0048
  155SAPE  C31817342   1.658   2.220   8.890 -0.4164  0.2496  0.7064
  155SAPE  H18X17343   1.649   2.329   8.870 -0.5354 -0.1227 -1.5319
  155SAPE  H18Y17344   1.762   2.188   8.867 -0.8441 -0.7826  0.1516
  155SAPE  H18Z17345   1.647   2.202   8.999 -0.5733 -1.9476  0.3784
  156SAPE     N17346   5.424   6.046  10.928  0.6183 -0.4702  0.0378
  156SAPE   HN117347   5.453   6.077  11.023  0.4621 -3.0499  0.9952
  156SAPE   HN217348   5.497   5.978  10.899 -1.2346 -2.6788  0.2610
  156SAPE   HN317349   5.423   6.129  10.866  0.6339 -0.5630 -0.0855
  156SAPE   C1217350   5.293   5.971  10.934  1.2590  0.1234  0.1899
  156SAPE  H12A17351   5.223   6.044  10.979  1.4634 -0.2633  1.1687
  156SAPE  H12B17352   5.303   5.889  11.009  2.1381  1.7474  1.9178
  156SAPE   C1117353   5.238   5.911  10.801 -0.1822  0.2085 -1.0991
  156SAPE  H11A17354   5.193   5.995  10.744 -0.0513  0.0263 -1.4726
  156SAPE  H11B17355   5.167   5.839  10.845  0.4649  1.6494  2.6507
  156SAPE     P17356   5.321   5.748  10.620 -0.0910 -0.5605  0.1792
  156SAPE   O1317357   5.447   5.674  10.591  0.2213 -0.0047 -0.3840
  156SAPE   O1417358   5.196   5.669  10.658 -0.5195  0.4475 -0.2092
  156SAPE   O1217359   5.351   5.851  10.738 -0.3799 -0.7355  0.3764
  156SAPE   O1117360   5.292   5.853  10.503  0.2519  0.0178  0.3739
  156SAPE    C117361   5.186   5.825  10.413 -0.0557 -0.2139  0.3546
  156SAPE    HA17362   5.090   5.789  10.456 -1.7844  1.5353 -1.7876
  156SAPE    HB17363   5.155   5.923  10.371 -0.8146 -0.2105  0.8980
  156SAPE    C217364   5.221   5.729  10.290 -0.1382  0.7973  0.0576
  156SAPE    HS17365   5.126   5.733  10.232 -2.3733  0.9325  3.3977
  156SAPE   O2117366   5.233   5.593  10.335  0.1613  0.0661 -0.4389
  156SAPE   C2117367   5.199   5.499  10.243  0.0311 -0.7252 -0.2783
  156SAPE   O2217368   5.156   5.528  10.133  0.5477 -0.3904 -0.5566
  156SAPE   C2217369   5.198   5.365  10.317 -0.4558  0.3456  0.2581
  156SAPE   H2R17370   5.300   5.332  10.288 -0.2962  1.2431 -0.2496
  156SAPE   H2S17371   5.203   5.384  10.426  1.6064  0.7081  0.1424
  156SAPE    C317372   5.341   5.765  10.189 -0.6802 -0.5230 -0.3417
  156SAPE    HX17373   5.437   5.763  10.245 -0.6137 -1.1803 -0.4821
  156SAPE    HY17374   5.324   5.874  10.170 -0.3213 -0.6869 -1.7302
  156SAPE   O3117375   5.358   5.689  10.066 -0.2021 -0.5235  0.3836
  156SAPE   C3117376   5.307   5.743   9.960  0.6971  0.0348 -0.5596
  156SAPE   O3217377   5.253   5.854   9.953 -0.0286 -0.1924  0.1980
  156SAPE   C3217378   5.339   5.659   9.840 -0.6080  0.0555  0.2327
  156SAPE   H2X17379   5.445   5.637   9.818 -0.7490  0.7084 -1.1660
  156SAPE   H2Y17380   5.304   5.729   9.761 -0.7805  0.5027  0.7000
  156SAPE   C2317381   5.090   5.264  10.273 -0.0069  0.8462 -0.6002
  156SAPE   H3R17382   4.990   5.310  10.256 -0.7997 -1.3345 -2.3004
  156SAPE   H3S17383   5.068   5.182  10.344 -0.9922  0.4498 -1.3312
  156SAPE   C2417384   5.117   5.194  10.135 -0.5705  0.1139 -0.5352
  156SAPE   H4R17385   5.120   5.274  10.058 -0.5909 -1.3480 -2.1343
  156SAPE   H4S17386   5.030   5.126  10.119 -1.5956  0.7470  1.9193
  156SAPE   C2517387   5.244   5.114  10.117 -0.6263  0.5968  0.6549
  156SAPE   H5R17388   5.331   5.149  10.174 -0.5566  0.7311  0.4659
  156SAPE   C2617389   5.255   5.009  10.032 -0.0719 -0.2584 -1.1792
  156SAPE   H6R17390   5.353   4.964  10.009 -0.1693 -0.7207 -0.7093
  156SAPE   C2717391   5.139   4.956   9.948 -0.6034 -0.3332 -1.1421
  156SAPE   H7R17392   5.172   4.916   9.850 -2.2403 -0.1378 -1.7991
  156SAPE   H7S17393   5.078   5.041   9.909 -1.1787 -1.0136 -1.7645
  156SAPE   C2817394   5.055   4.853  10.028  0.3539  0.0481  0.4816
  156SAPE   H8R17395   5.019   4.876  10.130 -0.7206 -3.5449  1.0494
  156SAPE   C2917396   4.998   4.740   9.985  0.1879 -0.3257  0.2495
  156SAPE   H9R17397   4.947   4.677  10.060 -2.6512  0.5456 -0.8154
  156SAPE  C21017398   5.021   4.678   9.850  0.1123 -0.3544 -0.2796
  156SAPE  H10R17399   5.029   4.758   9.773  1.0112 -1.0509 -0.9345
  156SAPE  H10S17400   4.932   4.618   9.823 -0.4216  1.2915 -2.5035
  156SAPE  C21117401   5.153   4.595   9.836 -0.1002 -0.0807 -0.1434
  156SAPE  H11R17402   5.202   4.562   9.929 -1.6958  0.0939  0.7928
  156SAPE  C21217403   5.183   4.542   9.718 -0.0610  0.7956 -0.3852
  156SAPE  H12R17404   5.277   4.486   9.705 -0.5857  0.0685 -1.2061
  156SAPE  C21317405   5.106   4.555   9.587  0.0840 -0.2883  0.4011
  156SAPE  H13R17406   5.133   4.650   9.536 -1.6410 -0.1173 -0.2742
  156SAPE  H13S17407   5.000   4.586   9.601 -0.5526 -1.7999 -0.6963
  156SAPE  C21417408   5.110   4.437   9.498 -0.9520  0.3408  0.4669
  156SAPE  H14R17409   5.125   4.346   9.558 -1.4368  0.6345  1.0554
  156SAPE  C21517410   5.114   4.431   9.361 -0.1142 -0.3704  1.0123
  156SAPE  H15R17411   5.135   4.339   9.305 -3.0327  0.5584 -1.8877
  156SAPE  C21617412   5.113   4.556   9.275  0.1556 -0.3216  0.9976
  156SAPE  H16R17413   5.196   4.553   9.201  1.9171  1.5881  2.7351
  156SAPE  H16S17414   5.146   4.647   9.331  0.4473  0.2526 -0.0894
  156SAPE  C21717415   4.975   4.576   9.215 -0.2199 -0.0137 -0.0293
  156SAPE  H17R17416   4.980   4.673   9.162 -1.0653  0.7818  1.2864
  156SAPE  H17S17417   4.897   4.580   9.294  0.7676 -0.2909  0.9752
  156SAPE  C21817418   4.920   4.468   9.113  0.5297 -0.0475 -0.1738
  156SAPE  H18R17419   4.914   4.375   9.174 -3.6995 -0.6820 -1.2861
  156SAPE  H18S17420   5.009   4.444   9.050  0.7045 -0.1480  0.1093
  156SAPE  C21917421   4.794   4.497   9.034 -0.4180 -0.0472 -0.1045
  156SAPE  H19R17422   4.797   4.436   8.941 -2.0519  1.0450 -0.9036
  156SAPE  H19S17423   4.805   4.602   9.001 -1.1449  0.2135  0.4626
  156SAPE  C22017424   4.665   4.482   9.105  0.2135 -0.5508  0.2757
  156SAPE  H20R17425   4.657   4.549   9.194 -0.5950 -1.8941  1.2639
  156SAPE  H20S17426   4.654   4.373   9.122 -2.0660 -0.4030  0.1468
  156SAPE  H20T17427   4.575   4.507   9.045 -0.5879  0.4217  1.8200
  156SAPE   C3317428   5.245   5.536   9.832 -0.0327  0.5663 -0.2178
  156SAPE   H3X17429   5.136   5.557   9.841 -0.0830  0.9289 -1.4466
  156SAPE   H3Y17430   5.269   5.455   9.904  0.1364 -0.3150 -1.2433
  156SAPE   C3417431   5.259   5.485   9.689 -0.0299  0.3397  0.1837
  156SAPE   H4X17432   5.369   5.472   9.681  0.6654  3.0141  3.3633
  156SAPE   H4Y17433   5.237   5.568   9.619 -1.3717 -0.9996 -1.0822
  156SAPE   C3517434   5.193   5.353   9.658  0.2061  0.7896 -0.1746
  156SAPE   H5X17435   5.096   5.361   9.712 -1.2883 -0.0408 -2.5640
  156SAPE   H5Y17436   5.244   5.271   9.713 -1.9077  0.8021  1.9998
  156SAPE   C3617437   5.190   5.327   9.508  0.5754 -0.0171  0.5102
  156SAPE   H6X17438   5.287   5.348   9.458  0.5404  0.2042  0.5328
  156SAPE   H6Y17439   5.140   5.412   9.457  2.4669 -0.3646 -2.1557
  156SAPE   C3717440   5.114   5.201   9.474  0.0181  0.1806 -0.6213
  156SAPE   H7X17441   5.033   5.184   9.549 -0.4663  2.0850 -0.6452
  156SAPE   H7Y17442   5.191   5.123   9.485 -1.2299 -1.1954 -1.3402
  156SAPE   C3817443   5.061   5.194   9.330 -0.3908 -0.0253  0.8371
  156SAPE   H8X17444   5.117   5.266   9.267 -0.6562  0.0242  0.6549
  156SAPE   H8Y17445   4.953   5.222   9.324 -0.1470  0.6667 -1.0677
  156SAPE   C3917446   5.080   5.043   9.278  0.0428  0.0148 -0.0962
  156SAPE   H9X17447   5.017   4.984   9.348  0.7065  0.0797  0.5607
  156SAPE   H9Y17448   5.187   5.019   9.290  0.3246  2.4180  4.1836
  156SAPE  C31017449   5.029   5.025   9.136  0.0917 -0.6286  0.7238
  156SAPE  H10X17450   5.063   4.936   9.080  1.7738  1.0816 -1.1358
  156SAPE  H10Y17451   5.075   5.105   9.075 -1.2684 -0.0585  0.4148
  156SAPE  C31117452   4.874   5.015   9.138 -0.5940 -0.0260 -0.3207
  156SAPE  H11X17453   4.852   5.124   9.136  1.0089  0.3310  0.2741
  156SAPE  H11Y17454   4.822   4.977   9.228 -1.8577  0.8186 -0.6589
  156SAPE  C31217455   4.806   4.969   9.006 -0.4345 -0.1459  0.0631
  156SAPE  H12X17456   4.854   4.878   8.964 -1.2454 -1.7023  2.2889
  156SAPE  H12Y17457   4.834   5.049   8.934 -2.0321 -0.2768 -0.7282
  156SAPE  C31317458   4.652   4.939   9.005  0.1175 -0.2415 -0.1327
  156SAPE  H13X17459   4.614   5.032   9.053  2.0604  1.2943 -1.3885
  156SAPE  H13Y17460   4.635   4.850   9.068 -1.4104 -1.1141 -1.6978
  156SAPE  C31417461   4.603   4.923   8.860 -0.1016  0.8944  0.2764
  156SAPE  H14X17462   4.507   4.868   8.847  0.4819 -1.2274  3.6223
  156SAPE  H14Y17463   4.686   4.867   8.812 -0.6164  1.8773 -1.8933
  156SAPE  C31517464   4.597   5.063   8.793 -0.1423  0.5452  0.1946
  156SAPE  H15X17465   4.670   5.134   8.837  0.0922  0.5259 -0.1533
  156SAPE  H15Y17466   4.499   5.114   8.804  1.1821  3.3936 -0.4272
  156SAPE  C31617467   4.626   5.054   8.643 -0.0353 -0.1109 -0.5848
  156SAPE  H16X17468   4.552   4.986   8.598 -0.7870 -0.1768  0.6997
  156SAPE  H16Y17469   4.721   5.002   8.619 -0.8611 -1.6418 -0.6536
  156SAPE  C31717470   4.632   5.191   8.573 -0.3435  0.1527  0.3122
  156SAPE  H17X17471   4.644   5.183   8.463  0.2856  0.2832  0.3698
  156SAPE  H17Y17472   4.714   5.252   8.616 -0.2107  0.1420  0.0726
  156SAPE  C31817473   4.505   5.275   8.592 -0.3155  0.8309 -0.5336
  156SAPE  H18X17474   4.413   5.226   8.554  0.4464 -0.3412 -0.9024
  156SAPE  H18Y17475   4.520   5.370   8.537  0.1847  1.4851  0.6809
  156SAPE  H18Z17476   4.495   5.289   8.702 -1.6037 -3.1793  0.0064
  157SAPE     N17477   3.791   6.203  10.869  0.0399  0.6167  0.7044
  157SAPE   HN117478   3.804   6.248  10.776  0.5693  0.5433  0.7407
  157SAPE   HN217479   3.689   6.186  10.870  0.0217  0.7398  1.3162
  157SAPE   HN317480   3.831   6.261  10.946  0.8492 -1.6797  2.1207
  157SAPE   C1217481   3.874   6.074  10.874 -0.6175 -0.1881  0.1264
  157SAPE  H12A17482   3.801   5.992  10.892 -1.5615  0.4431 -0.7447
  157SAPE  H12B17483   3.949   6.090  10.954 -0.6816 -0.5448  0.2577
  157SAPE   C1117484   3.958   6.046  10.748 -0.5170 -0.3219  0.0246
  157SAPE  H11A17485   4.021   6.136  10.733  0.5351 -1.4058 -2.5528
  157SAPE  H11B17486   3.893   6.064  10.660  1.0348  2.4757 -0.6566
  157SAPE     P17487   3.972   5.789  10.697  0.3792  0.0743  0.4940
  157SAPE   O1317488   4.048   5.675  10.751  0.5808  0.1484 -0.0051
  157SAPE   O1417489   3.823   5.791  10.703 -0.6101  0.3552 -0.3155
  157SAPE   O1217490   4.029   5.923  10.765  0.3754 -0.4326 -0.1157
  157SAPE   O1117491   4.017   5.817  10.546 -0.0688  0.0975  0.6597
  157SAPE    C117492   4.144   5.884  10.519  0.8836 -0.0069 -0.2524
  157SAPE    HA17493   4.130   5.993  10.535  3.4317 -0.0010  2.8767
  157SAPE    HB17494   4.227   5.852  10.585  3.2997  0.1924 -2.9646
  157SAPE    C217495   4.192   5.866  10.368 -0.0874 -0.7511  0.4856
  157SAPE    HS17496   4.285   5.924  10.349 -0.6601  0.0213 -0.0378
  157SAPE   O2117497   4.085   5.896  10.273 -0.8174  0.4596 -0.0157
  157SAPE   C2117498   4.032   6.017  10.281 -0.1544 -0.0608  1.0608
  157SAPE   O2217499   4.078   6.107  10.341  0.5886 -0.2898  0.1322
  157SAPE   C2217500   3.901   6.025  10.195 -0.2722 -0.2070  0.0416
  157SAPE   H2R17501   3.892   5.936  10.130  0.4823 -0.2396 -0.0290
  157SAPE   H2S17502   3.826   6.035  10.276  1.6350 -1.3664  2.0611
  157SAPE    C317503   4.229   5.719  10.356  0.3795 -0.0718  0.1796
  157SAPE    HX17504   4.144   5.652  10.378  0.4607  0.0583  0.8859
  157SAPE    HY17505   4.310   5.708  10.431  0.1525 -2.9599  0.1239
  157SAPE   O3117506   4.279   5.690  10.226 -0.2518 -0.0770 -0.1955
  157SAPE   C3117507   4.304   5.567  10.196 -0.1773 -0.6149 -0.3734
  157SAPE   O3217508   4.300   5.470  10.271 -0.1107  0.0259 -0.0810
  157SAPE   C3217509   4.327   5.565  10.046  0.8603 -0.4714  0.0689
  157SAPE   H2X17510   4.307   5.463  10.008  1.8737 -0.6066 -0.1306
  157SAPE   H2Y17511   4.435   5.590  10.034  0.2835  1.0673 -2.7851
  157SAPE   C2317512   3.886   6.159  10.112  0.6729 -0.0534 -0.6337
  157SAPE   H3R17513   3.907   6.244  10.181  1.1484  0.5841 -1.5519
  157SAPE   H3S17514   3.787   6.167  10.063 -0.5323 -0.0191  1.6475
  157SAPE   C2417515   3.982   6.158   9.993 -0.1197 -0.2321 -0.2952
  157SAPE   H4R17516   4.083   6.130  10.029 -0.2007  1.0724  1.0261
  157SAPE   H4S17517   3.987   6.262   9.956  0.7932 -0.1504  0.0384
  157SAPE   C2517518   3.958   6.056   9.886 -0.4973 -0.4645  0.4447
  157SAPE   H5R17519   4.024   5.968   9.897  0.6872  0.0896 -1.6758
  157SAPE   C2617520   3.868   6.050   9.792  0.7891 -0.2549 -0.1336
  157SAPE   H6R17521   3.874   5.967   9.720  3.9044  0.0481 -0.3525
  157SAPE   C2717522   3.759   6.153   9.767 -0.3393 -0.1264 -0.1467
  157SAPE   H7R17523   3.798   6.225   9.691 -0.4730 -0.3465 -0.4269
  157SAPE   H7S17524   3.743   6.209   9.862 -0.8142 -1.8104  0.7965
  157SAPE   C2817525   3.625   6.106   9.724 -0.0412 -0.0277  0.2534
  157SAPE   H8R17526   3.564   6.066   9.807 -0.7595 -0.3696 -0.4212
  157SAPE   C2917527   3.566   6.114   9.603  0.0588 -0.1012 -0.3690
  157SAPE   H9R17528   3.474   6.056   9.589  0.6992 -0.6402 -2.7457
  157SAPE  C21017529   3.629   6.170   9.479  0.1126  0.0937  0.4446
  157SAPE  H10R17530   3.725   6.219   9.505 -0.3979 -0.1773  3.0621
  157SAPE  H10S17531   3.560   6.245   9.433 -0.4343 -1.0219 -0.6130
  157SAPE  C21117532   3.652   6.061   9.377 -0.5967 -0.2804 -0.3789
  157SAPE  H11R17533   3.683   5.970   9.431  0.9746  0.7138  0.4952
  157SAPE  C21217534   3.649   6.064   9.239  0.0986  0.2361  0.3742
  157SAPE  H12R17535   3.660   5.967   9.187 -0.6183  0.5627 -0.4114
  157SAPE  C21317536   3.614   6.179   9.150  0.6513  0.2063 -0.3502
  157SAPE  H13R17537   3.588   6.268   9.210 -1.0787 -0.6709  0.2753
  157SAPE  H13S17538   3.518   6.161   9.096 -1.2834 -0.9473  3.1586
  157SAPE  C21417539   3.728   6.215   9.061  0.1772 -0.0068  0.2501
  157SAPE  H14R17540   3.816   6.216   9.127 -2.3910 -0.2574  3.9981
  157SAPE  C21517541   3.724   6.255   8.925 -0.2173 -0.2827 -0.3943
  157SAPE  H15R17542   3.815   6.303   8.887 -1.1977  1.2865 -0.8797
  157SAPE  C21617543   3.598   6.273   8.845 -1.1651  0.1854  0.4549
  157SAPE  H16R17544   3.592   6.380   8.814 -2.2685 -0.3554 -1.3661
  157SAPE  H16S17545   3.502   6.251   8.895 -0.5914 -2.5042  0.5100
  157SAPE  C21717546   3.592   6.186   8.725 -0.3825 -0.0314 -0.6574
  157SAPE  H17R17547   3.578   6.082   8.764  0.5417  0.0762 -0.0091
  157SAPE  H17S17548   3.683   6.191   8.662 -0.8933  1.5901 -1.3030
  157SAPE  C21817549   3.473   6.220   8.640 -0.1809 -0.3450 -0.3018
  157SAPE  H18R17550   3.492   6.324   8.604 -1.0725 -0.2843 -0.6219
  157SAPE  H18S17551   3.385   6.226   8.708  0.5294  0.3419  0.5776
  157SAPE  C21917552   3.454   6.121   8.531 -0.2515 -0.5029 -0.0873
  157SAPE  H19R17553   3.447   6.020   8.576  1.0139 -0.8095 -0.5178
  157SAPE  H19S17554   3.531   6.119   8.451 -0.2198 -0.2648 -0.0658
  157SAPE  C22017555   3.320   6.151   8.454 -0.1321  0.1656  0.5184
  157SAPE  H20R17556   3.326   6.244   8.394 -0.4309  0.1617  0.4826
  157SAPE  H20S17557   3.242   6.152   8.533  0.4066 -0.7116  1.1010
  157SAPE  H20T17558   3.293   6.068   8.385  2.6213  0.6002 -1.2315
  157SAPE   C3317559   4.241   5.665   9.969 -0.2246  0.0001 -0.2854
  157SAPE   H3X17560   4.275   5.767   9.998  1.0109 -0.1972 -0.9606
  157SAPE   H3Y17561   4.136   5.641   9.994 -0.0396  1.2342  1.9352
  157SAPE   C3417562   4.266   5.651   9.817 -0.0421  0.3381 -0.4300
  157SAPE   H4X17563   4.244   5.553   9.771 -4.5348 -0.2276  2.4227
  157SAPE   H4Y17564   4.373   5.674   9.793  0.3523  0.8591  1.6316
  157SAPE   C3517565   4.163   5.737   9.743 -0.1884 -0.0754 -0.3939
  157SAPE   H5X17566   4.196   5.841   9.761  2.9963 -0.9503 -0.5982
  157SAPE   H5Y17567   4.058   5.713   9.770 -0.4069 -0.2828 -1.3999
  157SAPE   C3617568   4.169   5.715   9.594 -0.6945 -0.4967  0.2208
  157SAPE   H6X17569   4.149   5.610   9.565  0.4446 -0.7682  0.3637
  157SAPE   H6Y17570   4.271   5.742   9.560 -1.0990 -1.4566 -1.9958
  157SAPE   C3717571   4.070   5.804   9.519  0.0942 -0.5866  0.2360
  157SAPE   H7X17572   4.105   5.906   9.545  1.6230 -1.4093  1.6496
  157SAPE   H7Y17573   3.960   5.798   9.533 -0.1443 -0.0425 -1.2212
  157SAPE   C3817574   4.098   5.779   9.370 -0.3139 -0.2434  0.1191
  157SAPE   H8X17575   4.028   5.697   9.344 -1.5794  0.8569 -0.0372
  157SAPE   H8Y17576   4.201   5.742   9.348 -0.5129 -0.7490  0.0256
  157SAPE   C3917577   4.053   5.900   9.283 -0.1380  0.7721 -0.4351
  157SAPE   H9X17578   4.118   5.985   9.316  1.0716  0.1961 -1.2502
  157SAPE   H9Y17579   3.948   5.914   9.314 -0.6146 -0.4615 -1.4331
  157SAPE  C31017580   4.074   5.876   9.129 -0.2380 -0.0120  0.4429
  157SAPE  H10X17581   4.064   5.768   9.103 -3.3461  0.3966 -0.4641
  157SAPE  H10Y17582   4.176   5.903   9.095 -0.7803 -0.0762 -1.2855
  157SAPE  C31117583   3.965   5.944   9.034 -0.0277 -0.8650 -0.8940
  157SAPE  H11X17584   3.967   6.049   9.069  1.3274 -1.7717  2.0419
  157SAPE  H11Y17585   3.859   5.918   9.053  0.5526 -0.9313  3.1443
  157SAPE  C31217586   4.002   5.927   8.884 -0.5814 -0.0961  0.2894
  157SAPE  H12X17587   3.995   5.817   8.867 -0.5301 -0.0795  0.1641
  157SAPE  H12Y17588   4.109   5.954   8.875 -0.7551  0.5782  0.2119
  157SAPE  C31317589   3.910   5.994   8.774  0.2811 -0.1270 -0.5595
  157SAPE  H13X17590   3.924   6.103   8.761 -0.2591 -0.0310 -0.3637
  157SAPE  H13Y17591   3.804   5.964   8.790 -0.0161 -0.6162 -3.1552
  157SAPE  C31417592   3.960   5.934   8.638  0.1177 -0.2368 -0.5196
  157SAPE  H14X17593   3.940   5.826   8.650 -0.5302  0.1292  2.1006
  157SAPE  H14Y17594   4.066   5.968   8.636 -0.8116  3.0690  0.9160
  157SAPE  C31517595   3.872   5.969   8.514  0.2729 -0.6296 -0.0447
  157SAPE  H15X17596   3.879   6.079   8.526  2.4308 -0.7024 -0.1732
  157SAPE  H15Y17597   3.769   5.931   8.526  0.2865 -0.5861  0.2099
  157SAPE  C31617598   3.945   5.917   8.387  0.5620 -0.2170 -0.1686
  157SAPE  H16X17599   3.990   5.818   8.408 -0.0366 -0.7822 -1.4785
  157SAPE  H16Y17600   4.030   5.988   8.377 -1.2047  1.6548 -3.7391
  157SAPE  C31717601   3.870   5.947   8.257  1.4120  0.2142  0.4729
  157SAPE  H17X17602   3.936   5.929   8.170  0.5653 -3.9716  0.4608
  157SAPE  H17Y17603   3.847   6.055   8.252  0.9046  0.0634 -1.1849
  157SAPE  C31817604   3.750   5.852   8.230 -0.0338 -0.4745  0.2875
  157SAPE  H18X17605   3.728   5.844   8.122  0.7641 -0.6093  0.1318
  157SAPE  H18Y17606   3.661   5.900   8.277  1.4021  2.0148  0.6354
  157SAPE  H18Z17607   3.749   5.756   8.285  0.9150 -0.9590 -0.5123
  158SAPE     N17608   5.341   6.301  10.409 -0.3540 -0.0123 -0.3168
  158SAPE   HN117609   5.408   6.243  10.354  0.5676  0.5247  0.2129
  158SAPE   HN217610   5.375   6.399  10.407  0.3328 -0.1936  1.2206
  158SAPE   HN317611   5.365   6.276  10.507  2.2794 -3.2505 -1.5872
  158SAPE   C1217612   5.203   6.268  10.368  0.4633  0.2922 -0.0343
  158SAPE  H12A17613   5.152   6.228  10.458  0.1274 -0.8140 -0.6931
  158SAPE  H12B17614   5.211   6.191  10.288 -0.5307  0.3775 -0.2364
  158SAPE   C1117615   5.134   6.389  10.302 -0.4626  0.4549  0.6801
  158SAPE  H11A17616   5.032   6.353  10.275 -0.1532 -0.1110  0.2358
  158SAPE  H11B17617   5.186   6.409  10.206  1.1390 -3.5147  0.5307
  158SAPE     P17618   5.034   6.522  10.500  0.1912  0.5850 -0.2147
  158SAPE   O1317619   5.082   6.432  10.607  0.1532  0.1723 -0.1131
  158SAPE   O1417620   5.022   6.661  10.537  0.5196 -0.7691  0.1739
  158SAPE   O1217621   5.133   6.509  10.380  0.0358  0.1417  0.1511
  158SAPE   O1117622   4.897   6.468  10.440 -0.5972 -0.1095  0.1432
  158SAPE    C117623   4.830   6.541  10.336  0.6938  0.3959  0.1332
  158SAPE    HA17624   4.766   6.616  10.386  1.2331 -0.5366  2.3436
  158SAPE    HB17625   4.895   6.605  10.273 -2.2213  1.8545 -1.6204
  158SAPE    C217626   4.761   6.434  10.255  0.0529  0.8824 -0.2040
  158SAPE    HS17627   4.829   6.348  10.233  0.1359  0.6076  1.0211
  158SAPE   O2117628   4.713   6.501  10.139 -0.5568  0.1237  0.3508
  158SAPE   C2117629   4.733   6.436  10.021  0.6535  0.1588 -0.7558
  158SAPE   O2217630   4.809   6.342  10.003  0.1132 -0.2222  0.7116
  158SAPE   C2217631   4.647   6.504   9.914  0.0195  0.3640 -0.0440
  158SAPE   H2R17632   4.557   6.527   9.975  0.8698  0.5704  1.1628
  158SAPE   H2S17633   4.707   6.593   9.883  1.5514 -0.2861  0.9172
  158SAPE    C317634   4.639   6.375  10.334 -0.7833 -0.0832 -0.1441
  158SAPE    HX17635   4.576   6.458  10.371  0.4014  0.1074  1.5644
  158SAPE    HY17636   4.674   6.323  10.427  0.1513  0.5642 -0.1216
  158SAPE   O3117637   4.555   6.291  10.244 -0.5405  0.2662  0.3341
  158SAPE   C3117638   4.581   6.159  10.248  0.3445 -0.1408 -0.1694
  158SAPE   O3217639   4.674   6.111  10.314 -0.0828  0.2495  0.6740
  158SAPE   C3217640   4.489   6.091  10.145  0.4605  0.6740  0.8077
  158SAPE   H2X17641   4.486   6.149  10.050 -0.3031 -0.8093 -0.1200
  158SAPE   H2Y17642   4.386   6.093  10.184  0.0443  1.7537 -0.2621
  158SAPE   C2317643   4.614   6.402   9.798  0.0597  0.6255  0.0843
  158SAPE   H3R17644   4.523   6.449   9.754  0.0192  0.9244  0.4848
  158SAPE   H3S17645   4.571   6.317   9.855  2.2620  1.0151  2.4869
  158SAPE   C2417646   4.716   6.367   9.695 -0.1176  0.2453  0.4174
  158SAPE   H4R17647   4.666   6.293   9.629 -0.0193 -0.9793  1.6701
  158SAPE   H4S17648   4.796   6.322   9.759 -0.6033 -0.4014  0.5843
  158SAPE   C2517649   4.774   6.472   9.599  0.0530 -0.1899 -0.4982
  158SAPE   H5R17650   4.871   6.515   9.628 -1.0116  2.2154 -0.3135
  158SAPE   C2617651   4.731   6.501   9.475  0.1386 -1.0162 -0.5171
  158SAPE   H6R17652   4.791   6.572   9.417  0.4015 -0.3166  0.5831
  158SAPE   C2717653   4.608   6.439   9.419 -0.3470  0.3642 -0.0405
  158SAPE   H7R17654   4.562   6.530   9.376 -0.2971  0.1341 -0.5913
  158SAPE   H7S17655   4.543   6.395   9.498  0.0452  1.4248  0.8809
  158SAPE   C2817656   4.636   6.342   9.306  0.2757  0.2415 -0.1464
  158SAPE   H8R17657   4.667   6.240   9.333 -2.3814 -0.3113  1.2276
  158SAPE   C2917658   4.637   6.376   9.177  0.5185  0.3511 -0.0455
  158SAPE   H9R17659   4.654   6.294   9.106  3.2252  1.1260 -0.4146
  158SAPE  C21017660   4.610   6.509   9.111  0.5937  0.3072 -0.1336
  158SAPE  H10R17661   4.579   6.583   9.188  2.7255 -0.9304  2.0648
  158SAPE  H10S17662   4.540   6.497   9.026  2.3578  0.7190 -1.7116
  158SAPE  C21117663   4.751   6.556   9.057 -0.1381  0.3439 -0.5865
  158SAPE  H11R17664   4.812   6.578   9.146 -1.7801  0.2230  0.6308
  158SAPE  C21217665   4.789   6.576   8.928  0.2193 -0.5738  0.4679
  158SAPE  H12R17666   4.894   6.596   8.901  0.1503 -1.9306 -0.9156
  158SAPE  C21317667   4.701   6.550   8.808 -0.1832 -0.4369 -0.2914
  158SAPE  H13R17668   4.595   6.570   8.836 -0.5807 -1.4127 -1.0605
  158SAPE  H13S17669   4.710   6.447   8.768 -0.5632 -0.1668 -1.0921
  158SAPE  C21417670   4.724   6.649   8.703 -0.2969 -0.0207 -0.7931
  158SAPE  H14R17671   4.762   6.747   8.737  2.6939 -1.3478 -0.0520
  158SAPE  C21517672   4.688   6.638   8.576 -0.2015 -0.0626 -0.6153
  158SAPE  H15R17673   4.717   6.719   8.507  2.6486 -0.3295  0.1411
  158SAPE  C21617674   4.630   6.518   8.512  0.2886  0.4345  0.1060
  158SAPE  H16R17675   4.658   6.426   8.567 -2.7206 -0.5230  0.1809
  158SAPE  H16S17676   4.672   6.507   8.409  1.6042  0.1553  0.6467
  158SAPE  C21717677   4.478   6.533   8.491  0.1077 -0.9186 -0.4846
  158SAPE  H17R17678   4.432   6.548   8.591 -0.9549  0.9254 -1.1955
  158SAPE  H17S17679   4.451   6.431   8.457  0.8407 -0.9376 -1.0326
  158SAPE  C21817680   4.440   6.640   8.389  0.9903 -0.3821 -0.2230
  158SAPE  H18R17681   4.509   6.629   8.302 -1.7134 -1.4253 -2.4273
  158SAPE  H18S17682   4.452   6.741   8.432  0.1517  0.5131 -1.9597
  158SAPE  C21917683   4.296   6.625   8.347 -0.3496 -0.1637 -0.4706
  158SAPE  H19R17684   4.230   6.627   8.436 -0.4261 -0.3374 -0.5237
  158SAPE  H19S17685   4.283   6.537   8.281  0.7944 -0.7171  0.0210
  158SAPE  C22017686   4.248   6.739   8.254  0.0107 -0.6931 -0.5104
  158SAPE  H20R17687   4.258   6.836   8.308  0.1064 -1.4291  0.8317
  158SAPE  H20S17688   4.144   6.716   8.221 -0.5097 -1.4492  1.5122
  158SAPE  H20T17689   4.307   6.756   8.162  1.2764 -0.1678  0.3716
  158SAPE   C3317690   4.528   5.952  10.108  0.0153 -0.5242  0.1229
  158SAPE   H3X17691   4.441   5.894  10.072 -2.1196  2.5883 -0.1136
  158SAPE   H3Y17692   4.558   5.892  10.197  0.2746 -0.5809 -0.0006
  158SAPE   C3417693   4.625   5.952   9.991  0.3136 -0.2780 -0.6608
  158SAPE   H4X17694   4.670   5.850   9.987 -0.9931 -0.9258  0.1513
  158SAPE   H4Y17695   4.710   6.023  10.000  0.2736  0.0352 -2.4482
  158SAPE   C3517696   4.542   5.974   9.865 -0.3839 -0.9070  0.1881
  158SAPE   H5X17697   4.497   6.075   9.852 -0.0031 -0.5419  1.5678
  158SAPE   H5Y17698   4.468   5.891   9.858  1.8086 -3.2861  2.7187
  158SAPE   C3617699   4.627   5.962   9.733 -0.5153 -0.2971 -0.8235
  158SAPE   H6X17700   4.707   5.885   9.738  1.4290  1.6397 -0.6507
  158SAPE   H6Y17701   4.675   6.062   9.724  1.2002 -0.9424  0.6791
  158SAPE   C3717702   4.534   5.939   9.607  0.5331  0.3736  0.0497
  158SAPE   H7X17703   4.440   5.998   9.609 -2.0456 -3.3418 -0.8435
  158SAPE   H7Y17704   4.493   5.836   9.602 -0.5201  0.8263 -1.3507
  158SAPE   C3817705   4.597   5.955   9.469  0.6423 -0.0444 -0.4002
  158SAPE   H8X17706   4.687   5.890   9.461 -0.1236 -1.1485 -0.3083
  158SAPE   H8Y17707   4.636   6.057   9.449  1.7608 -0.7454 -1.9882
  158SAPE   C3917708   4.482   5.933   9.360 -0.1906  0.1217  0.3410
  158SAPE   H9X17709   4.392   5.993   9.385  0.9054  2.3778 -0.7970
  158SAPE   H9Y17710   4.464   5.823   9.366 -2.8506  0.4556  0.0172
  158SAPE  C31017711   4.518   5.961   9.209  0.3199  0.1152 -0.0124
  158SAPE  H10X17712   4.557   6.065   9.207  0.7960 -0.0464  0.5066
  158SAPE  H10Y17713   4.432   5.934   9.144  0.9344 -2.9309  0.2983
  158SAPE  C31117714   4.630   5.868   9.155 -0.5471 -0.6726 -0.5364
  158SAPE  H11X17715   4.595   5.765   9.135  3.8464 -2.4546 -0.2269
  158SAPE  H11Y17716   4.703   5.843   9.235  0.5139 -3.2664 -2.1979
  158SAPE  C31217717   4.692   5.921   9.020 -0.5040 -0.0847 -0.1398
  158SAPE  H12X17718   4.770   5.851   8.982 -0.1723 -0.0847  0.5259
  158SAPE  H12Y17719   4.738   6.022   9.020  0.9879 -0.7150 -1.3494
  158SAPE  C31317720   4.591   5.906   8.899 -0.9913  0.3890  0.1125
  158SAPE  H13X17721   4.521   5.992   8.902  0.1188  1.4087 -1.4732
  158SAPE  H13Y17722   4.547   5.804   8.901  0.0419 -0.1641 -2.0378
  158SAPE  C31417723   4.673   5.915   8.775 -0.2324  0.1183  0.3752
  158SAPE  H14X17724   4.743   5.829   8.772 -2.4333 -1.7276 -1.7139
  158SAPE  H14Y17725   4.733   6.009   8.773  2.7426 -1.6598  0.6748
  158SAPE  C31517726   4.607   5.912   8.637 -0.6844  0.3516  0.7844
  158SAPE  H15X17727   4.684   5.904   8.557  0.9055 -0.4123  2.3216
  158SAPE  H15Y17728   4.537   5.994   8.613  1.9878  2.4625 -0.3619
  158SAPE  C31617729   4.531   5.776   8.624  0.1124  0.0743  0.3301
  158SAPE  H16X17730   4.461   5.764   8.709 -0.6059 -0.1376 -0.2834
  158SAPE  H16Y17731   4.606   5.697   8.644  1.9593  1.4063 -0.9309
  158SAPE  C31717732   4.457   5.767   8.488 -0.2951  0.2895 -0.3214
  158SAPE  H17X17733   4.518   5.802   8.402  0.4471 -2.9736 -1.2768
  158SAPE  H17Y17734   4.360   5.820   8.500 -0.3088 -0.0478  1.4290
  158SAPE  C31817735   4.433   5.619   8.459  0.0758 -0.1428 -0.2085
  158SAPE  H18X17736   4.363   5.597   8.375 -1.4208  0.3427  0.8778
  158SAPE  H18Y17737   4.394   5.569   8.550  1.6001 -0.6409  0.1901
  158SAPE  H18Z17738   4.532   5.572   8.442  0.5402  0.6900  0.1039
  159SAPE     N17739   2.312   2.651   6.413 -0.1110  0.4007 -0.5536
  159SAPE   HN117740   2.351   2.564   6.370 -1.6823 -0.2106 -0.8108
  159SAPE   HN217741   2.211   2.642   6.389 -1.0093 -2.7887  3.2695
  159SAPE   HN317742   2.352   2.737   6.371 -0.5466 -0.0683 -1.9845
  159SAPE   C1217743   2.297   2.653   6.566 -0.2702  0.3783 -0.2819
  159SAPE  H12A17744   2.320   2.551   6.604 -1.3070  1.4727  3.7488
  159SAPE  H12B17745   2.192   2.678   6.589 -0.9267 -2.0558 -0.3293
  159SAPE   C1117746   2.391   2.756   6.622 -0.5287 -1.0511 -0.5628
  159SAPE  H11A17747   2.367   2.735   6.728  0.5317 -2.2667 -0.5332
  159SAPE  H11B17748   2.370   2.862   6.596  0.0255 -0.2647  1.9184
  159SAPE     P17749   2.644   2.817   6.615 -0.2136  0.4288 -0.3087
  159SAPE   O1317750   2.766   2.737   6.647  0.0731  0.1340  0.0107
  159SAPE   O1417751   2.659   2.904   6.494 -0.3629 -0.0188  0.4558
  159SAPE   O1217752   2.524   2.718   6.595 -0.6872 -0.2613 -0.0192
  159SAPE   O1117753   2.602   2.908   6.745 -0.1049 -0.0197  0.0879
  159SAPE    C117754   2.552   3.045   6.721  0.6187  1.2051 -0.0975
  159SAPE    HA17755   2.615   3.110   6.656  1.6412 -0.4921 -0.8568
  159SAPE    HB17756   2.454   3.042   6.668  0.4034 -2.4916  0.2824
  159SAPE    C217757   2.534   3.117   6.862  0.2569  0.6588  0.5152
  159SAPE    HS17758   2.466   3.204   6.851 -3.6320 -1.7558  2.8646
  159SAPE   O2117759   2.659   3.134   6.938  0.1016 -0.0522  0.1713
  159SAPE   C2117760   2.743   3.218   6.876  0.6926 -0.5372  0.0785
  159SAPE   O2217761   2.713   3.288   6.780  0.3714 -0.0947 -0.1259
  159SAPE   C2217762   2.875   3.212   6.945  0.0621 -0.0819 -0.3242
  159SAPE   H2R17763   2.889   3.102   6.949  2.5639  0.1661 -0.6793
  159SAPE   H2S17764   2.953   3.266   6.888 -0.6314  2.4417  0.9442
  159SAPE    C317765   2.436   3.037   6.945  0.2093 -0.2817  0.4079
  159SAPE    HX17766   2.486   2.945   6.981 -0.5580 -0.6903  0.4518
  159SAPE    HY17767   2.348   2.998   6.888  0.0010 -0.2579  0.7137
  159SAPE   O3117768   2.395   3.116   7.060  0.0606 -0.3205 -0.2268
  159SAPE   C3117769   2.374   3.041   7.168  0.0514  0.0813 -0.1671
  159SAPE   O3217770   2.377   2.922   7.183  0.1955 -0.0747 -0.9917
  159SAPE   C3217771   2.356   3.135   7.289 -0.2031  0.5996 -0.0626
  159SAPE   H2X17772   2.348   3.244   7.267  0.6757  0.5911 -0.4685
  159SAPE   H2Y17773   2.448   3.114   7.347  1.0004 -0.1055 -2.1115
  159SAPE   C2317774   2.878   3.270   7.088  0.1754 -0.2068 -0.2447
  159SAPE   H3R17775   2.976   3.227   7.116  0.8082  0.6784 -1.0599
  159SAPE   H3S17776   2.809   3.222   7.161  0.7476  1.4550  1.4581
  159SAPE   C2417777   2.887   3.425   7.105 -0.8584 -0.0248  0.0971
  159SAPE   H4R17778   2.944   3.460   7.016  0.8399  0.0384  1.1468
  159SAPE   H4S17779   2.952   3.450   7.192 -1.9999 -0.0595  0.9908
  159SAPE   C2517780   2.753   3.487   7.123 -0.2762 -0.6480 -0.3297
  159SAPE   H5R17781   2.734   3.552   7.037 -2.4702 -2.0438 -1.0079
  159SAPE   C2617782   2.671   3.476   7.232  0.2740  0.4961 -0.4114
  159SAPE   H6R17783   2.564   3.501   7.225 -0.4506 -2.5831 -2.2347
  159SAPE   C2717784   2.685   3.391   7.353 -0.4317  0.0272  0.1741
  159SAPE   H7R17785   2.775   3.325   7.354  0.0574  0.6637 -0.5811
  159SAPE   H7S17786   2.604   3.317   7.372  0.0991 -0.4440  0.6632
  159SAPE   C2817787   2.692   3.489   7.467 -0.3043 -0.0985  0.7977
  159SAPE   H8R17788   2.781   3.554   7.470  0.2325 -0.8313  1.1279
  159SAPE   C2917789   2.601   3.514   7.567 -0.2340 -0.3548  0.4818
  159SAPE   H9R17790   2.635   3.562   7.661  2.0398  1.2432 -1.0260
  159SAPE  C21017791   2.476   3.425   7.583 -0.7738 -0.5959  0.9116
  159SAPE  H10R17792   2.440   3.397   7.482 -0.6846 -2.8839  1.4643
  159SAPE  H10S17793   2.389   3.484   7.620 -0.7666 -1.3220  2.1450
  159SAPE  C21117794   2.478   3.321   7.692 -0.2275 -0.3333 -0.5490
  159SAPE  H11R17795   2.492   3.217   7.658  1.1880 -0.5933  0.7369
  159SAPE  C21217796   2.457   3.344   7.816  0.1580  0.1586 -0.7726
  159SAPE  H12R17797   2.461   3.257   7.883  2.1771  1.2391  0.6164
  159SAPE  C21317798   2.441   3.476   7.882  0.2905 -0.1555 -0.3916
  159SAPE  H13R17799   2.339   3.482   7.926  0.7778 -2.6570  1.2831
  159SAPE  H13S17800   2.441   3.560   7.809  2.4946 -1.1379 -1.6264
  159SAPE  C21417801   2.550   3.508   7.985  0.0882 -0.6213  0.8650
  159SAPE  H14R17802   2.648   3.519   7.936 -0.2220 -2.5720 -0.2942
  159SAPE  C21517803   2.543   3.498   8.120 -0.3743 -0.4841 -0.1100
  159SAPE  H15R17804   2.637   3.521   8.171 -0.4556  0.0692 -0.2109
  159SAPE  C21617805   2.430   3.468   8.209  0.2198 -1.0120  0.2514
  159SAPE  H16R17806   2.459   3.414   8.301 -0.8975 -0.2441  1.0880
  159SAPE  H16S17807   2.354   3.401   8.162 -0.8440 -0.8080  1.6307
  159SAPE  C21717808   2.350   3.589   8.260  0.0038 -0.6345 -0.4309
  159SAPE  H17R17809   2.279   3.635   8.188  0.4846  0.7834 -0.0207
  159SAPE  H17S17810   2.428   3.662   8.288 -1.0194 -0.1535  1.3545
  159SAPE  C21817811   2.265   3.549   8.386 -0.1657  0.3391  0.0280
  159SAPE  H18R17812   2.335   3.513   8.464 -0.8940  0.6423  0.8434
  159SAPE  H18S17813   2.203   3.461   8.357  1.7372 -0.6320 -1.3517
  159SAPE  C21917814   2.180   3.656   8.436  0.7958  0.0513  0.2812
  159SAPE  H19R17815   2.107   3.680   8.357  0.7241  2.5542  1.0331
  159SAPE  H19S17816   2.240   3.750   8.443  1.0731  0.0860 -1.8835
  159SAPE  C22017817   2.111   3.627   8.570  0.4384  0.4700  0.1218
  159SAPE  H20R17818   2.046   3.538   8.567  0.0849  0.7040 -3.5673
  159SAPE  H20S17819   2.031   3.704   8.570 -0.5162 -0.5063 -0.0342
  159SAPE  H20T17820   2.175   3.629   8.661 -1.2660 -0.2741  1.3922
  159SAPE   C3317821   2.229   3.099   7.375 -0.3182  0.3932  0.1112
  159SAPE   H3X17822   2.153   3.049   7.311 -0.2999 -0.5006  0.7781
  159SAPE   H3Y17823   2.191   3.184   7.436  2.3965  1.1363  0.9121
  159SAPE   C3417824   2.268   2.995   7.489  0.1082 -0.0421 -0.1199
  159SAPE   H4X17825   2.341   3.036   7.563  0.9941  0.0465 -1.0296
  159SAPE   H4Y17826   2.316   2.905   7.446 -0.3069 -0.8662  1.0631
  159SAPE   C3517827   2.139   2.947   7.560  0.3515  0.7492 -0.1386
  159SAPE   H5X17828   2.171   2.847   7.597 -0.2212  0.4586 -0.4215
  159SAPE   H5Y17829   2.056   2.948   7.486 -2.4667 -0.5545  2.7401
  159SAPE   C3617830   2.092   3.031   7.680 -0.9721  0.1427  0.5307
  159SAPE   H6X17831   1.982   3.028   7.699 -0.7102  1.7606  2.7004
  159SAPE   H6Y17832   2.106   3.137   7.650  0.1361  0.0014  0.5015
  159SAPE   C3717833   2.168   2.989   7.810 -0.4847  0.0295  0.1577
  159SAPE   H7X17834   2.278   2.989   7.792 -0.6202 -0.0698 -0.7450
  159SAPE   H7Y17835   2.150   2.881   7.833 -0.5025 -0.1593 -0.7156
  159SAPE   C3817836   2.143   3.072   7.930 -0.7781 -0.2477 -0.8173
  159SAPE   H8X17837   2.042   3.057   7.975 -1.0294 -0.7466 -1.5342
  159SAPE   H8Y17838   2.147   3.181   7.910 -0.3468 -0.4524 -1.8899
  159SAPE   C3917839   2.237   3.042   8.047 -0.5338 -0.1645  0.7423
  159SAPE   H9X17840   2.342   3.074   8.029 -0.2116 -1.1158  0.8547
  159SAPE   H9Y17841   2.235   2.932   8.066 -1.9602 -0.4864 -0.9801
  159SAPE  C31017842   2.204   3.105   8.180 -0.5343  0.2257  0.2404
  159SAPE  H10X17843   2.113   3.059   8.224  0.0002 -0.4351  0.6735
  159SAPE  H10Y17844   2.186   3.212   8.157 -0.6091  0.5068  1.5646
  159SAPE  C31117845   2.320   3.105   8.283  0.2954  0.2940 -0.8584
  159SAPE  H11X17846   2.395   3.168   8.230  0.1093 -1.5280 -3.5036
  159SAPE  H11Y17847   2.351   2.999   8.293 -0.6682 -0.0807 -1.6376
  159SAPE  C31217848   2.279   3.151   8.421 -0.1784  0.1658  0.0319
  159SAPE  H12X17849   2.196   3.092   8.466 -1.1054  0.4671 -1.2237
  159SAPE  H12Y17850   2.239   3.254   8.410  1.5390  0.6609 -2.1821
  159SAPE  C31317851   2.405   3.157   8.511 -0.0994  0.0064 -0.1710
  159SAPE  H13X17852   2.460   3.247   8.478 -0.5733 -0.8848 -3.8722
  159SAPE  H13Y17853   2.467   3.070   8.480  1.7879  0.6838  1.4869
  159SAPE  C31417854   2.373   3.171   8.661  0.0437 -0.3747  0.0260
  159SAPE  H14X17855   2.454   3.141   8.730  0.1706  2.9336  1.5027
  159SAPE  H14Y17856   2.293   3.095   8.678 -2.2409  1.5707 -1.3649
  159SAPE  C31517857   2.329   3.312   8.706 -0.2612  0.0924 -0.0513
  159SAPE  H15X17858   2.233   3.344   8.662 -0.1758  0.6470  0.1523
  159SAPE  H15Y17859   2.408   3.385   8.678  2.0393 -2.6986 -1.4080
  159SAPE  C31617860   2.318   3.330   8.859 -0.2965 -0.4131 -0.6446
  159SAPE  H16X17861   2.292   3.435   8.883 -1.6523 -0.5462 -1.4203
  159SAPE  H16Y17862   2.414   3.299   8.906  0.0324  0.2955 -0.8356
  159SAPE  C31717863   2.203   3.250   8.919 -0.3322 -0.3566  0.4195
  159SAPE  H17X17864   2.227   3.248   9.027  1.7922  0.0347  0.0123
  159SAPE  H17Y17865   2.214   3.144   8.889  0.5674 -0.1758  0.0535
  159SAPE  C31817866   2.067   3.301   8.893 -0.6809  0.6357 -0.1299
  159SAPE  H18X17867   1.995   3.243   8.955 -1.5369  1.8179  0.0190
  159SAPE  H18Y17868   2.050   3.286   8.784  1.1048  1.0225 -0.4930
  159SAPE  H18Z17869   2.055   3.408   8.920 -2.4732  0.3238  0.4227
  160SAPE     N17870   0.185   5.160   6.319 -0.1675 -0.0472 -0.1779
  160SAPE   HN117871   0.246   5.123   6.243  1.0794 -0.4750  0.9800
  160SAPE   HN217872   0.161   5.260   6.303 -1.8070 -0.3493  0.2617
  160SAPE   HN317873   0.233   5.141   6.409  0.2321 -0.6029 -0.5029
  160SAPE   C1217874   0.081   5.058   6.351  0.1305  0.1383  0.5169
  160SAPE  H12A17875  -0.013   5.068   6.293  1.4756  1.6691 -1.5307
  160SAPE  H12B17876   0.049   5.079   6.455 -3.3696 -1.1201 -0.1650
  160SAPE   C1117877   0.134   4.910   6.334 -0.3727  0.2318  0.0625
  160SAPE  H11A17878   0.143   4.895   6.224  1.0893  1.3318  0.0181
  160SAPE  H11B17879   0.048   4.846   6.365 -0.7909 -0.2428 -1.9034
  160SAPE     P17880   0.298   4.751   6.433 -0.2963  0.4669  0.0827
  160SAPE   O1317881   0.296   4.670   6.313 -0.0566 -0.1761 -0.2320
  160SAPE   O1417882   0.420   4.758   6.511 -0.8136 -0.1932 -0.1324
  160SAPE   O1217883   0.258   4.898   6.397  0.1096 -0.2459 -0.3131
  160SAPE   O1117884   0.180   4.698   6.520  0.3293  0.1720 -0.1730
  160SAPE    C117885   0.156   4.769   6.642 -0.7495  0.5682 -0.0140
  160SAPE    HA17886   0.195   4.873   6.642  0.1031  0.2596 -0.2196
  160SAPE    HB17887   0.046   4.773   6.659 -0.9708 -2.3405 -0.1131
  160SAPE    C217888   0.200   4.679   6.771 -0.7175  0.2780  0.5844
  160SAPE    HS17889   0.136   4.711   6.856  0.3007 -1.1775  1.9560
  160SAPE   O2117890   0.341   4.705   6.810 -0.3131  0.4906  0.1018
  160SAPE   C2117891   0.363   4.819   6.868  0.2855  0.1556 -0.2673
  160SAPE   O2217892   0.273   4.900   6.892  0.2968 -0.0056  0.8846
  160SAPE   C2217893   0.514   4.836   6.898  0.6374  0.2085 -0.0605
  160SAPE   H2R17894   0.570   4.789   6.815  4.1592  2.9067  0.5777
  160SAPE   H2S17895   0.535   4.945   6.900 -1.2194  0.6374 -1.0932
  160SAPE    C317896   0.186   4.523   6.759 -0.6404  0.0247 -0.0865
  160SAPE    HX17897   0.252   4.491   6.676 -0.1802  1.4296 -0.2829
  160SAPE    HY17898   0.082   4.493   6.732 -0.4270 -2.7218  1.7413
  160SAPE   O3117899   0.215   4.454   6.884 -0.6164  0.0110  0.2524
  160SAPE   C3117900   0.143   4.478   6.992 -0.8216 -0.1079  0.1795
  160SAPE   O3217901   0.050   4.558   7.002  0.0764 -0.5843 -0.0984
  160SAPE   C3217902   0.196   4.372   7.091 -0.6036 -0.4810  0.0682
  160SAPE   H2X17903   0.259   4.293   7.044 -1.6385 -2.0803  1.2480
  160SAPE   H2Y17904   0.111   4.310   7.125 -1.4659 -0.2691 -1.5858
  160SAPE   C2317905   0.548   4.771   7.032 -0.5050 -0.5553  0.1185
  160SAPE   H3R17906   0.656   4.794   7.037 -0.6327  1.8393 -3.8883
  160SAPE   H3S17907   0.544   4.662   7.015  0.0220 -0.8263  1.5916
  160SAPE   C2417908   0.467   4.817   7.148 -0.6535 -0.0661 -1.1340
  160SAPE   H4R17909   0.360   4.793   7.132 -0.9031 -0.4415  0.8245
  160SAPE   H4S17910   0.477   4.926   7.168  0.2305 -0.4678  0.9466
  160SAPE   C2517911   0.501   4.741   7.278  0.3327  0.3193  0.3229
  160SAPE   H5R17912   0.452   4.644   7.297  0.7176  0.2332  0.8881
  160SAPE   C2617913   0.560   4.791   7.389 -0.8886 -0.1990  0.5476
  160SAPE   H6R17914   0.583   4.727   7.475  0.8096 -0.7360 -0.2550
  160SAPE   C2717915   0.620   4.932   7.401 -0.2869  0.4057  0.9182
  160SAPE   H7R17916   0.618   4.980   7.301 -1.9361 -0.2643  0.6014
  160SAPE   H7S17917   0.730   4.920   7.416  0.0410  2.1343  0.1173
  160SAPE   C2817918   0.564   5.023   7.505  1.0620  0.4709 -0.3357
  160SAPE   H8R17919   0.454   5.029   7.497  1.0278  0.7293  0.3183
  160SAPE   C2917920   0.622   5.097   7.601 -0.1584 -0.6395  0.1513
  160SAPE   H9R17921   0.566   5.167   7.665  0.8438  1.9582 -1.6442
  160SAPE  C21017922   0.773   5.105   7.623 -0.3786  0.6365  0.3312
  160SAPE  H10R17923   0.822   5.135   7.528 -2.7791  0.5358 -1.0139
  160SAPE  H10S17924   0.797   5.008   7.671 -4.0775  0.3350  1.9621
  160SAPE  C21117925   0.809   5.214   7.718  0.0789  0.1297 -1.0682
  160SAPE  H11R17926   0.825   5.309   7.665 -2.5177  0.0574 -2.1125
  160SAPE  C21217927   0.825   5.198   7.849  0.2110 -0.0442 -0.3348
  160SAPE  H12R17928   0.859   5.284   7.907  2.0810 -1.0234  0.0911
  160SAPE  C21317929   0.810   5.065   7.922 -0.3823 -0.2458  0.1528
  160SAPE  H13R17930   0.714   5.012   7.907  0.6240 -1.8565 -0.9854
  160SAPE  H13S17931   0.815   5.100   8.027  1.4653  1.0778 -0.3156
  160SAPE  C21417932   0.925   4.966   7.899  0.0966  0.4104  0.0708
  160SAPE  H14R17933   0.965   4.958   7.796  1.4286  3.0448  0.3105
  160SAPE  C21517934   0.987   4.894   7.991 -0.0335  0.5413  0.0442
  160SAPE  H15R17935   1.074   4.833   7.963  1.2176  1.1882  2.2112
  160SAPE  C21617936   0.969   4.898   8.143  0.2135  0.0035  0.1335
  160SAPE  H16R17937   0.860   4.909   8.161  0.3106 -1.0409  1.4683
  160SAPE  H16S17938   1.013   4.982   8.201  1.8617 -1.4331  1.0296
  160SAPE  C21717939   1.017   4.771   8.225 -0.1093  0.4986 -0.0500
  160SAPE  H17R17940   0.977   4.792   8.327 -2.0511  1.2529 -0.9183
  160SAPE  H17S17941   1.127   4.754   8.232 -0.6287 -2.8788  2.6142
  160SAPE  C21817942   0.952   4.640   8.165 -0.0346 -0.0887 -0.3576
  160SAPE  H18R17943   0.999   4.621   8.066  2.0434 -0.1742  0.5849
  160SAPE  H18S17944   0.843   4.656   8.152 -0.1596 -0.1635  0.5330
  160SAPE  C21917945   0.979   4.519   8.257 -0.5972  0.0226  0.2108
  160SAPE  H19R17946   0.921   4.519   8.352 -1.9273 -1.0379 -0.5500
  160SAPE  H19S17947   1.088   4.515   8.277 -0.5098 -0.8852 -0.3948
  160SAPE  C22017948   0.932   4.385   8.189  0.0940 -0.1903 -0.3674
  160SAPE  H20R17949   0.995   4.369   8.099  1.8066  1.3543  0.4593
  160SAPE  H20S17950   0.833   4.409   8.146  0.8298  1.3271 -1.3007
  160SAPE  H20T17951   0.939   4.304   8.265 -0.4702  1.2248  1.2733
  160SAPE   C3317952   0.273   4.436   7.210 -1.3696 -0.0597 -0.3419
  160SAPE   H3X17953   0.205   4.511   7.256 -3.3038 -1.7055 -0.3742
  160SAPE   H3Y17954   0.366   4.475   7.164 -0.9399  0.3437  0.8302
  160SAPE   C3417955   0.309   4.327   7.313  0.0280  0.2628  0.6578
  160SAPE   H4X17956   0.385   4.261   7.267  0.2909 -0.4890  2.1229
  160SAPE   H4Y17957   0.223   4.264   7.342  0.2919 -1.3795 -1.8280
  160SAPE   C3517958   0.386   4.384   7.437 -0.6962  0.6629 -0.2187
  160SAPE   H5X17959   0.476   4.437   7.398  0.3944  0.4380  1.8519
  160SAPE   H5Y17960   0.412   4.299   7.504  0.3203  0.1769 -1.2029
  160SAPE   C3617961   0.322   4.484   7.534  0.0122  0.2025  0.4737
  160SAPE   H6X17962   0.223   4.450   7.570 -0.6341  1.2971 -0.2128
  160SAPE   H6Y17963   0.293   4.580   7.486  2.1019  0.5264 -0.2487
  160SAPE   C3717964   0.410   4.504   7.661  0.2860  0.0897  0.1990
  160SAPE   H7X17965   0.512   4.533   7.627  0.2810  1.7087  1.4842
  160SAPE   H7Y17966   0.417   4.404   7.710 -0.5435 -0.2585 -0.3639
  160SAPE   C3817967   0.376   4.608   7.767 -0.7075  0.6168  0.6179
  160SAPE   H8X17968   0.266   4.621   7.776 -0.8590  0.7743 -1.1302
  160SAPE   H8Y17969   0.401   4.708   7.726 -1.3575  1.3155  1.8577
  160SAPE   C3917970   0.430   4.576   7.904 -0.5020 -0.2105  0.0321
  160SAPE   H9X17971   0.538   4.602   7.905 -0.8671  1.4245  0.7117
  160SAPE   H9Y17972   0.393   4.477   7.940 -2.6446  0.7021  0.5197
  160SAPE  C31017973   0.378   4.664   8.015  0.0910  0.0778 -0.0830
  160SAPE  H10X17974   0.269   4.652   7.993  0.6127 -1.5434 -2.0399
  160SAPE  H10Y17975   0.398   4.773   8.006  2.5461 -0.4094 -1.5183
  160SAPE  C31117976   0.411   4.604   8.149  0.3016 -0.1915 -0.4517
  160SAPE  H11X17977   0.515   4.624   8.182 -0.2504 -0.3793  1.5175
  160SAPE  H11Y17978   0.399   4.494   8.151 -0.1647 -0.1371 -0.0221
  160SAPE  C31217979   0.310   4.665   8.247  0.3713  0.3368  1.0323
  160SAPE  H12X17980   0.207   4.646   8.209  0.5737  1.4961 -0.1955
  160SAPE  H12Y17981   0.320   4.776   8.246  0.9526  0.2890  1.2357
  160SAPE  C31317982   0.311   4.602   8.382  0.0606  0.1952 -1.0522
  160SAPE  H13X17983   0.284   4.685   8.451 -0.8768 -0.9149 -0.0529
  160SAPE  H13Y17984   0.416   4.574   8.406 -0.3459  0.0074  0.6392
  160SAPE  C31417985   0.216   4.478   8.394  0.1425 -0.5064  0.4225
  160SAPE  H14X17986   0.245   4.415   8.308 -0.0872  0.9091 -0.7268
  160SAPE  H14Y17987   0.109   4.509   8.389  0.2051 -0.4923 -1.5930
  160SAPE  C31517988   0.223   4.397   8.523 -0.2699 -0.3325  1.0508
  160SAPE  H15X17989   0.330   4.377   8.543  1.2421  2.4283 -3.1051
  160SAPE  H15Y17990   0.170   4.299   8.514 -0.2413 -0.3435  1.0089
  160SAPE  C31617991   0.166   4.472   8.640  0.6010  0.1720 -0.6651
  160SAPE  H16X17992   0.063   4.511   8.621 -0.3838 -1.5633  0.8853
  160SAPE  H16Y17993   0.235   4.557   8.659  0.9639  0.0973 -1.5672
  160SAPE  C31717994   0.162   4.394   8.771  0.4886  0.5636 -0.1209
  160SAPE  H17X17995   0.105   4.301   8.753  0.5824 -0.2106  2.9542
  160SAPE  H17Y17996   0.102   4.451   8.845 -0.5561 -1.1415  0.4048
  160SAPE  C31817997   0.298   4.348   8.820  0.0528 -0.2516 -0.0598
  160SAPE  H18X17998   0.288   4.273   8.901  0.5596 -0.6741 -0.3798
  160SAPE  H18Y17999   0.360   4.434   8.853 -1.9516  1.1445  0.2553
  160SAPE  H18Z18000   0.353   4.300   8.736 -0.2230 -2.1247  0.7843
  161SAPE     N18001   3.093   2.539   6.285  0.1744 -0.1402 -0.0731
  161SAPE   HN118002   3.059   2.635   6.305  0.6919  0.1218 -0.4463
  161SAPE   HN218003   3.117   2.545   6.184  2.7786 -0.0058  0.4901
  161SAPE   HN318004   3.015   2.471   6.301  1.0591 -1.8111 -2.3566
  161SAPE   C1218005   3.208   2.492   6.360 -0.4699  0.7677 -0.7061
  161SAPE  H12A18006   3.178   2.511   6.465  0.0369  1.1637 -0.6317
  161SAPE  H12B18007   3.296   2.553   6.331  1.0207 -1.9659 -2.3233
  161SAPE   C1118008   3.242   2.342   6.356  0.6138 -0.6536 -0.1551
  161SAPE  H11A18009   3.148   2.294   6.392 -0.1293 -1.4272 -2.9157
  161SAPE  H11B18010   3.311   2.318   6.440 -0.4979  0.2874  1.0848
  161SAPE     P18011   3.383   2.177   6.218 -0.0243  0.0597  0.2615
  161SAPE   O1318012   3.348   2.099   6.094 -0.6951 -0.3745 -0.2392
  161SAPE   O1418013   3.521   2.226   6.226  0.0558  0.4093  0.0509
  161SAPE   O1218014   3.291   2.300   6.233 -0.7555  0.2981  0.0584
  161SAPE   O1118015   3.349   2.090   6.351  0.0237 -0.3626  0.2352
  161SAPE    C118016   3.469   2.033   6.421  0.7964 -0.6807 -0.1618
  161SAPE    HA18017   3.503   1.938   6.374  0.3219 -0.5810 -0.7184
  161SAPE    HB18018   3.543   2.115   6.420  0.4951 -0.2393 -4.2070
  161SAPE    C218019   3.427   1.990   6.574  0.3016 -0.3449  0.0512
  161SAPE    HS18020   3.344   2.055   6.607 -0.0503 -0.9838  0.4485
  161SAPE   O2118021   3.531   2.017   6.671 -0.0957 -0.3528 -0.0307
  161SAPE   C2118022   3.554   2.147   6.695  0.0584  0.2776  0.1022
  161SAPE   O2218023   3.507   2.244   6.643  0.4050 -0.2203  0.4503
  161SAPE   C2218024   3.651   2.137   6.821  0.9951 -0.5913  0.0638
  161SAPE   H2R18025   3.593   2.096   6.906  1.2944 -1.7464 -0.2650
  161SAPE   H2S18026   3.732   2.071   6.783 -1.4654 -2.2743 -2.6293
  161SAPE    C318027   3.377   1.847   6.589  0.2539  0.2661 -0.5887
  161SAPE    HX18028   3.463   1.779   6.606  1.2554  1.5588 -0.3377
  161SAPE    HY18029   3.348   1.830   6.483 -0.6491 -0.5668 -0.2183
  161SAPE   O3118030   3.273   1.846   6.681  0.4496  0.5139  0.7492
  161SAPE   C3118031   3.212   1.729   6.704 -0.2087  0.2225 -0.6483
  161SAPE   O3218032   3.234   1.625   6.650  0.3441  0.3258 -0.6282
  161SAPE   C3218033   3.103   1.754   6.814  0.3088 -0.9889 -0.2263
  161SAPE   H2X18034   3.007   1.775   6.762  0.1519  0.8630  0.7424
  161SAPE   H2Y18035   3.132   1.846   6.868  0.6538 -1.0886 -0.2429
  161SAPE   C2318036   3.711   2.269   6.865 -0.9001 -0.5567 -0.8778
  161SAPE   H3R18037   3.634   2.340   6.903 -1.0046 -1.7818  1.3674
  161SAPE   H3S18038   3.761   2.313   6.776  0.4417  1.2787  0.6948
  161SAPE   C2418039   3.822   2.260   6.982  0.1954  0.4511  0.3904
  161SAPE   H4R18040   3.843   2.365   7.009  1.5230  0.5269 -0.8312
  161SAPE   H4S18041   3.911   2.213   6.935  1.1078  1.2680  1.2906
  161SAPE   C2518042   3.795   2.174   7.094 -0.0713 -0.3269  0.2847
  161SAPE   H5R18043   3.815   2.066   7.086  2.6663  0.1452 -0.1660
  161SAPE   C2618044   3.726   2.219   7.200 -0.3811  0.0425 -0.0917
  161SAPE   H6R18045   3.710   2.150   7.284 -0.6877  0.3269  0.0898
  161SAPE   C2718046   3.685   2.361   7.226  0.8903 -0.3492 -0.2926
  161SAPE   H7R18047   3.605   2.365   7.303  1.1136  1.4225 -0.1040
  161SAPE   H7S18048   3.646   2.401   7.130  0.7917  0.7125  0.1648
  161SAPE   C2818049   3.777   2.468   7.275 -0.4558 -0.3099  0.7677
  161SAPE   H8R18050   3.827   2.514   7.189 -0.9619  0.2835  0.7791
  161SAPE   C2918051   3.829   2.485   7.395 -0.5141  0.3672 -0.1038
  161SAPE   H9R18052   3.887   2.573   7.425 -0.7987 -0.0523  1.8283
  161SAPE  C21018053   3.771   2.408   7.518  0.0496  0.4527 -0.3095
  161SAPE  H10R18054   3.744   2.303   7.494 -0.3163  0.6702 -0.8881
  161SAPE  H10S18055   3.675   2.458   7.542 -2.0882 -2.4856 -1.9741
  161SAPE  C21118056   3.854   2.426   7.641 -0.0502 -0.0586 -0.0090
  161SAPE  H11R18057   3.908   2.336   7.675  0.4146  1.3139  3.2255
  161SAPE  C21218058   3.846   2.517   7.736 -0.6888  0.4036  0.0076
  161SAPE  H12R18059   3.923   2.514   7.815 -0.7437 -0.6015  0.0355
  161SAPE  C21318060   3.749   2.638   7.739  0.9718 -0.2344 -0.4447
  161SAPE  H13R18061   3.729   2.666   7.634 -1.6808  1.9728  0.5027
  161SAPE  H13S18062   3.800   2.727   7.782 -0.0980 -0.5300  1.6025
  161SAPE  C21418063   3.629   2.618   7.831 -0.4573 -0.0459  0.7172
  161SAPE  H14R18064   3.575   2.529   7.796 -0.1919  0.2833 -0.5832
  161SAPE  C21518065   3.596   2.680   7.943  0.6840 -0.7714  0.6982
  161SAPE  H15R18066   3.503   2.649   7.994 -1.5706  0.8743 -2.1100
  161SAPE  C21618067   3.670   2.791   8.006 -0.2854 -0.7087  0.0746
  161SAPE  H16R18068   3.609   2.847   8.079 -0.5118  1.2873 -1.5686
  161SAPE  H16S18069   3.685   2.854   7.916 -1.7042 -2.4295 -1.4347
  161SAPE  C21718070   3.803   2.752   8.073 -0.0361 -0.2694 -0.4188
  161SAPE  H17R18071   3.864   2.844   8.086  1.8404 -1.5915  0.4563
  161SAPE  H17S18072   3.874   2.684   8.022  2.9116  0.3417  2.5271
  161SAPE  C21818073   3.794   2.677   8.213  0.2572  0.1797 -0.3467
  161SAPE  H18R18074   3.747   2.579   8.188  0.0020  0.3015 -0.3454
  161SAPE  H18S18075   3.726   2.734   8.280  1.9162  1.5882  0.2236
  161SAPE  C21918076   3.925   2.650   8.283 -0.2594 -0.8013 -0.2030
  161SAPE  H19R18077   3.901   2.575   8.361 -1.3105  1.3902  1.6876
  161SAPE  H19S18078   3.957   2.738   8.343 -0.6114  0.4950 -1.8448
  161SAPE  C22018079   4.052   2.606   8.201  0.2025 -0.0057 -0.9007
  161SAPE  H20R18080   4.019   2.552   8.110  1.0654 -0.3688 -1.0008
  161SAPE  H20S18081   4.125   2.555   8.267 -1.9076 -0.7437  0.9670
  161SAPE  H20T18082   4.107   2.702   8.188  0.5304 -0.0090  0.3075
  161SAPE   C3318083   3.080   1.646   6.921  0.6605 -0.2471 -0.2337
  161SAPE   H3X18084   3.147   1.560   6.898 -1.9506 -2.2385 -0.8722
  161SAPE   H3Y18085   2.974   1.616   6.908  0.4614 -0.1081  0.9717
  161SAPE   C3418086   3.099   1.700   7.062  0.3485  0.4243 -1.0552
  161SAPE   H4X18087   3.034   1.785   7.094 -0.1334 -0.7566  1.3320
  161SAPE   H4Y18088   3.206   1.728   7.074  0.5077 -0.7326  0.6862
  161SAPE   C3518089   3.083   1.594   7.172  0.1560 -0.5548  0.1115
  161SAPE   H5X18090   3.125   1.500   7.131  1.2467  0.4369 -1.1093
  161SAPE   H5Y18091   2.975   1.580   7.197  0.1649  0.9404  1.1308
  161SAPE   C3618092   3.150   1.634   7.303 -0.5617 -0.0594 -0.5075
  161SAPE   H6X18093   3.259   1.648   7.290 -0.1582 -2.6485 -0.3820
  161SAPE   H6Y18094   3.150   1.540   7.363 -0.4012 -0.0350 -0.4690
  161SAPE   C3718095   3.089   1.759   7.365  0.1786  0.0392 -0.5328
  161SAPE   H7X18096   2.991   1.783   7.320  0.2736 -0.4126 -0.9944
  161SAPE   H7Y18097   3.168   1.836   7.352 -0.8798  1.5275  1.4151
  161SAPE   C3818098   3.075   1.757   7.516 -0.2275  0.3891  0.5296
  161SAPE   H8X18099   3.064   1.652   7.550  3.2012 -0.4219 -0.4927
  161SAPE   H8Y18100   2.991   1.823   7.545 -2.8959 -2.2854 -0.6478
  161SAPE   C3918101   3.205   1.817   7.575 -0.3924  0.3805  0.2655
  161SAPE   H9X18102   3.217   1.927   7.561  0.3885  0.3222  0.4243
  161SAPE   H9Y18103   3.291   1.762   7.531 -0.3733  1.7272 -1.5199
  161SAPE  C31018104   3.210   1.793   7.728  0.2918  0.7895 -0.7212
  161SAPE  H10X18105   3.180   1.686   7.737 -1.6050  1.4374  1.7838
  161SAPE  H10Y18106   3.127   1.841   7.784  0.4470  0.4008 -0.1494
  161SAPE  C31118107   3.337   1.843   7.800 -1.0453  0.0843  0.4673
  161SAPE  H11X18108   3.355   1.952   7.784 -1.0157  0.1654  1.0260
  161SAPE  H11Y18109   3.415   1.788   7.742  0.4911  0.2378  2.2873
  161SAPE  C31218110   3.340   1.796   7.942  0.3170 -0.1824  0.3115
  161SAPE  H12X18111   3.339   1.686   7.953  1.2506 -0.3672 -1.1895
  161SAPE  H12Y18112   3.250   1.834   7.994  0.4574  0.1588  0.3067
  161SAPE  C31318113   3.462   1.846   8.014  0.0231  0.2209  0.6970
  161SAPE  H13X18114   3.446   1.956   8.027 -0.7568  0.0507  1.2743
  161SAPE  H13Y18115   3.545   1.842   7.941  0.1524  3.5519  0.4886
  161SAPE  C31418116   3.478   1.804   8.162 -0.0181 -0.0360  0.4738
  161SAPE  H14X18117   3.475   1.693   8.164  1.8449 -0.4793 -4.7394
  161SAPE  H14Y18118   3.390   1.835   8.221 -1.3393  1.2988 -2.0373
  161SAPE  C31518119   3.601   1.866   8.246  0.0765  0.0457 -0.5695
  161SAPE  H15X18120   3.613   1.975   8.228  0.4876 -0.1119 -1.3015
  161SAPE  H15Y18121   3.695   1.827   8.200 -0.3042 -0.1429 -1.2071
  161SAPE  C31618122   3.595   1.823   8.392  0.0699  0.8858 -0.2167
  161SAPE  H16X18123   3.607   1.713   8.392 -0.4011  0.8261 -1.3821
  161SAPE  H16Y18124   3.497   1.838   8.442  0.3178  0.5955  0.3640
  161SAPE  C31718125   3.709   1.867   8.475  0.6203  1.0433  0.5900
  161SAPE  H17X18126   3.679   1.972   8.493 -0.8720  1.0063 -1.3448
  161SAPE  H17Y18127   3.800   1.865   8.411  0.1382  2.5823 -0.1889
  161SAPE  C31818128   3.732   1.789   8.602 -0.4907 -0.7265 -0.2772
  161SAPE  H18X18129   3.641   1.801   8.665  0.4994 -3.2115  1.7812
  161SAPE  H18Y18130   3.825   1.822   8.653  1.1987 -0.4333 -3.2832
  161SAPE  H18Z18131   3.748   1.685   8.566  0.8989  0.0123 -1.9510
  162SAPE     N18132   2.846   5.117   5.929 -0.0549  1.0362  0.2500
  162SAPE   HN118133   2.795   5.187   5.985  0.6626  0.5144  1.5927
  162SAPE   HN218134   2.843   5.171   5.840 -0.3618  1.5286  0.5519
  162SAPE   HN318135   2.808   5.020   5.925  1.7932  0.1186  2.4813
  162SAPE   C1218136   2.988   5.103   5.990 -0.9181 -0.5357 -0.4457
  162SAPE  H12A18137   3.044   5.187   5.944  1.5914 -2.3311 -0.9247
  162SAPE  H12B18138   3.028   5.018   5.930  1.6023  0.5567 -0.4597
  162SAPE   C1118139   2.996   5.127   6.143  0.0359  0.1107 -0.0654
  162SAPE  H11A18140   3.103   5.149   6.167  0.6081 -0.1631 -2.1557
  162SAPE  H11B18141   2.975   5.035   6.201 -1.7213  0.1661 -0.5554
  162SAPE     P18142   2.917   5.380   6.182 -0.6297 -0.2543  0.4472
  162SAPE   O1318143   2.898   5.426   6.040 -0.0637  0.0752  0.4799
  162SAPE   O1418144   2.836   5.446   6.284 -0.1718  0.1007  0.0617
  162SAPE   O1218145   2.910   5.226   6.190  0.3593 -0.5630 -0.0685
  162SAPE   O1118146   3.070   5.396   6.228  0.4598  0.4340 -0.0497
  162SAPE    C118147   3.096   5.360   6.366  0.5345  0.8566 -0.1179
  162SAPE    HA18148   3.028   5.281   6.403 -0.0221  1.5888  0.4658
  162SAPE    HB18149   3.182   5.291   6.375 -0.4250 -0.3526 -0.0317
  162SAPE    C218150   3.128   5.471   6.465 -0.1478  0.8455  0.5703
  162SAPE    HS18151   3.030   5.524   6.463 -0.7758 -0.1750 -3.0300
  162SAPE   O2118152   3.243   5.531   6.418 -0.4013 -0.1532 -0.3442
  162SAPE   C2118153   3.262   5.653   6.464 -0.8753 -0.2309 -0.3995
  162SAPE   O2218154   3.175   5.722   6.499 -0.4466 -0.4072 -0.7822
  162SAPE   C2218155   3.403   5.706   6.434 -0.5536  0.2242 -0.3638
  162SAPE   H2R18156   3.448   5.636   6.360  1.4238  0.2443  0.7487
  162SAPE   H2S18157   3.395   5.799   6.374 -0.7278 -0.1143 -0.8712
  162SAPE    C318158   3.129   5.414   6.608 -0.5915  0.9167 -0.2765
  162SAPE    HX18159   3.217   5.348   6.620 -1.0736 -0.0496 -1.7507
  162SAPE    HY18160   3.037   5.355   6.622 -1.7521  2.7585  0.2036
  162SAPE   O3118161   3.134   5.513   6.714 -0.1361 -0.3559  0.4817
  162SAPE   C3118162   3.016   5.571   6.736 -0.1576 -0.2155  0.1493
  162SAPE   O3218163   2.912   5.554   6.675  0.0156 -0.4390 -0.2155
  162SAPE   C3218164   3.024   5.673   6.843  0.2061 -0.5143  0.4752
  162SAPE   H2X18165   2.936   5.737   6.820  1.4222  0.7875 -0.7423
  162SAPE   H2Y18166   3.119   5.728   6.826 -0.0202 -0.6060 -1.2160
  162SAPE   C2318167   3.494   5.732   6.558 -0.4806 -0.0118 -0.3628
  162SAPE   H3R18168   3.444   5.793   6.636  1.0086  0.1204  0.5290
  162SAPE   H3S18169   3.585   5.786   6.523 -0.3796 -1.0629 -1.8362
  162SAPE   C2418170   3.540   5.589   6.615 -0.3409  0.6764 -0.7810
  162SAPE   H4R18171   3.601   5.543   6.534  2.0046  0.3662  1.0655
  162SAPE   H4S18172   3.446   5.534   6.638 -1.6029  2.7493 -0.6999
  162SAPE   C2518173   3.627   5.594   6.741  1.1350 -0.0650 -0.3659
  162SAPE   H5R18174   3.734   5.615   6.731  1.0185  0.2156 -1.0625
  162SAPE   C2618175   3.582   5.578   6.864 -0.5540 -0.5569  0.5586
  162SAPE   H6R18176   3.654   5.582   6.947 -1.5090 -1.0095  1.4244
  162SAPE   C2718177   3.443   5.539   6.907  0.0040 -0.1764 -0.0762
  162SAPE   H7R18178   3.457   5.448   6.970 -0.4576 -0.7488 -0.7939
  162SAPE   H7S18179   3.378   5.509   6.823  1.6205  1.5107 -2.0259
  162SAPE   C2818180   3.384   5.650   6.986 -0.1921 -0.0937  0.3549
  162SAPE   H8R18181   3.331   5.732   6.936  0.0323  0.2776  0.7138
  162SAPE   C2918182   3.397   5.675   7.116 -0.5288 -0.2820  0.2067
  162SAPE   H9R18183   3.342   5.761   7.156  2.0253  0.2313  2.9580
  162SAPE  C21018184   3.474   5.598   7.221 -0.1470 -0.3186 -0.2249
  162SAPE  H10R18185   3.532   5.663   7.290  2.5163  0.1675 -2.7384
  162SAPE  H10S18186   3.553   5.534   7.176  1.6813  2.7832 -1.7053
  162SAPE  C21118187   3.359   5.527   7.284 -0.5040 -0.3560 -0.6112
  162SAPE  H11R18188   3.289   5.476   7.216  0.2926 -2.5277  0.1069
  162SAPE  C21218189   3.321   5.534   7.415  0.6030  0.2974 -0.0075
  162SAPE  H12R18190   3.237   5.474   7.454  0.9502  0.5143  1.1301
  162SAPE  C21318191   3.387   5.620   7.526  1.0028  0.2988 -0.2208
  162SAPE  H13R18192   3.297   5.635   7.589  1.1129 -2.3139  0.6577
  162SAPE  H13S18193   3.407   5.725   7.494 -0.9654  0.4843 -0.9746
  162SAPE  C21418194   3.512   5.557   7.588  0.3164  0.3438  0.2429
  162SAPE  H14R18195   3.590   5.523   7.519 -1.0351  1.8671 -2.1916
  162SAPE  C21518196   3.536   5.564   7.721  0.7238 -0.4226 -0.3676
  162SAPE  H15R18197   3.628   5.514   7.754  0.8223 -1.2062 -1.7294
  162SAPE  C21618198   3.444   5.611   7.834 -0.3868  0.1618 -0.0300
  162SAPE  H16R18199   3.346   5.638   7.789 -0.0570  0.0230 -0.8489
  162SAPE  H16S18200   3.483   5.712   7.859 -2.8673  1.2361 -0.2822
  162SAPE  C21718201   3.435   5.516   7.956  0.4608 -0.2645 -0.3716
  162SAPE  H17R18202   3.535   5.479   7.991  1.2651  2.5703  0.5454
  162SAPE  H17S18203   3.373   5.428   7.927 -0.3456  0.6592 -1.5100
  162SAPE  C21818204   3.357   5.565   8.082  0.0713 -0.7672 -0.0568
  162SAPE  H18R18205   3.354   5.473   8.144  2.0817  0.1893  1.5947
  162SAPE  H18S18206   3.256   5.601   8.056  0.7899 -0.7139 -3.1643
  162SAPE  C21918207   3.437   5.671   8.159 -0.2498  0.4673  0.3355
  162SAPE  H19R18208   3.509   5.719   8.089 -1.1003  0.3178 -0.6800
  162SAPE  H19S18209   3.500   5.606   8.222  0.8090  0.0118 -1.1307
  162SAPE  C22018210   3.361   5.768   8.242 -0.0042 -0.2391  0.5111
  162SAPE  H20R18211   3.302   5.821   8.164  2.3257  0.5640 -0.7727
  162SAPE  H20S18212   3.426   5.843   8.290  1.9543 -1.5210 -0.0285
  162SAPE  H20T18213   3.299   5.715   8.318 -2.2975  2.6154  0.8015
  162SAPE   C3318214   3.030   5.610   6.982 -0.4077  0.1508 -0.2537
  162SAPE   H3X18215   3.123   5.551   6.996 -0.7322  0.2585  3.0328
  162SAPE   H3Y18216   2.954   5.536   7.014  1.8618 -1.5879  1.4419
  162SAPE   C3418217   3.023   5.722   7.096 -0.4630  0.2025  0.0590
  162SAPE   H4X18218   2.931   5.783   7.087  2.1235  4.4231 -1.0053
  162SAPE   H4Y18219   3.113   5.786   7.082 -1.1683  0.8636 -1.6303
  162SAPE   C3518220   3.021   5.675   7.244  0.0236  0.0762  0.0589
  162SAPE   H5X18221   3.112   5.619   7.272 -0.7180 -1.1557  0.0939
  162SAPE   H5Y18222   2.942   5.598   7.264 -0.0003  0.6953  2.5898
  162SAPE   C3618223   2.993   5.787   7.346 -0.3553 -0.0402  0.1833
  162SAPE   H6X18224   2.896   5.837   7.326 -0.1408  0.2442 -0.1573
  162SAPE   H6Y18225   3.080   5.855   7.333  0.7630 -1.3244  0.7330
  162SAPE   C3718226   3.009   5.740   7.493  0.0424  0.1296 -0.3715
  162SAPE   H7X18227   3.111   5.704   7.516 -0.3558 -1.9289 -1.5936
  162SAPE   H7Y18228   2.953   5.645   7.503 -1.3785  0.6818 -2.4567
  162SAPE   C3818229   2.943   5.841   7.593 -0.1103  0.0217 -0.7520
  162SAPE   H8X18230   2.844   5.874   7.555 -1.1556 -1.5594  0.4763
  162SAPE   H8Y18231   3.013   5.927   7.596 -0.0940  0.0440 -1.5626
  162SAPE   C3918232   2.916   5.787   7.736  0.3676  0.0469  0.0815
  162SAPE   H9X18233   3.004   5.726   7.767  1.0559 -0.4939 -2.6493
  162SAPE   H9Y18234   2.823   5.726   7.728 -0.9479  1.9018  0.4988
  162SAPE  C31018235   2.890   5.889   7.843  0.3978  0.2779 -0.3722
  162SAPE  H10X18236   2.793   5.942   7.832  1.3779  2.6917  1.7300
  162SAPE  H10Y18237   2.956   5.977   7.831 -1.2086  1.5221 -0.5323
  162SAPE  C31118238   2.911   5.821   7.979 -0.4107  0.1785 -0.2402
  162SAPE  H11X18239   3.001   5.759   7.959  0.0620  0.9544 -0.5488
  162SAPE  H11Y18240   2.830   5.761   8.026  0.7356 -0.5499  0.8774
  162SAPE  C31218241   2.932   5.924   8.091  0.4029  0.0818 -0.0793
  162SAPE  H12X18242   2.834   5.976   8.087  0.3389 -0.1412 -2.2875
  162SAPE  H12Y18243   3.017   5.987   8.059  1.4882 -1.5468 -0.5499
  162SAPE  C31318244   2.940   5.856   8.226  0.7386  0.1106 -1.1293
  162SAPE  H13X18245   3.048   5.833   8.236  0.7929 -0.0051 -1.8840
  162SAPE  H13Y18246   2.883   5.761   8.226  2.2320 -0.8176 -1.5123
  162SAPE  C31418247   2.889   5.950   8.339  0.3753  0.4607  0.1860
  162SAPE  H14X18248   2.781   5.971   8.322 -0.1131 -1.6553  0.4171
  162SAPE  H14Y18249   2.928   6.052   8.321  1.0594 -0.1589 -2.1870
  162SAPE  C31518250   2.906   5.894   8.482 -0.5208 -0.3497 -0.1485
  162SAPE  H15X18251   3.015   5.872   8.490 -0.4457 -0.0507 -0.3469
  162SAPE  H15Y18252   2.856   5.796   8.496 -0.6964 -0.2762 -0.2676
  162SAPE  C31618253   2.848   5.995   8.588  0.2640 -0.0956  0.0228
  162SAPE  H16X18254   2.866   5.958   8.691 -1.9617  0.7013  0.7484
  162SAPE  H16Y18255   2.738   5.993   8.572  0.2787  0.2657 -0.1150
  162SAPE  C31718256   2.901   6.135   8.571  0.1800  0.3202  0.4148
  162SAPE  H17X18257   2.866   6.177   8.474 -1.7851  1.7651  1.6702
  162SAPE  H17Y18258   3.012   6.130   8.580  0.5507 -3.6761 -3.2498
  162SAPE  C31818259   2.863   6.232   8.683  0.0189  0.4828  0.2396
  162SAPE  H18X18260   2.923   6.323   8.663  1.7933 -0.8531 -0.7424
  162SAPE  H18Y18261   2.895   6.185   8.779 -0.6452  1.1540  0.8010
  162SAPE  H18Z18262   2.754   6.253   8.693 -0.1879  0.3197 -1.4798
  163SAPE     N18263   1.789   3.470   6.393 -0.4614 -0.2390  0.6209
  163SAPE   HN118264   1.844   3.519   6.320  1.1017 -3.5301 -0.6012
  163SAPE   HN218265   1.756   3.377   6.361  0.2495  0.5518 -2.7597
  163SAPE   HN318266   1.701   3.521   6.413 -0.9135 -1.2943  1.4724
  163SAPE   C1218267   1.874   3.443   6.509  0.5380 -0.1678 -0.1138
  163SAPE  H12A18268   1.925   3.541   6.524 -1.4991  0.8038  0.8109
  163SAPE  H12B18269   1.959   3.378   6.478 -0.3523 -1.8501  0.7999
  163SAPE   C1118270   1.800   3.378   6.631  0.5260 -0.2674  0.7933
  163SAPE  H11A18271   1.725   3.452   6.664  0.0822 -1.0996  1.6944
  163SAPE  H11B18272   1.879   3.357   6.707 -0.0509 -0.6701  1.2933
  163SAPE     P18273   1.771   3.116   6.625  0.1915 -0.2072 -0.8241
  163SAPE   O1318274   1.659   3.028   6.599 -0.0653 -0.3518  0.1651
  163SAPE   O1418275   1.903   3.073   6.570 -0.3522 -0.2754 -0.5153
  163SAPE   O1218276   1.737   3.260   6.583  0.4216 -0.0374  0.5099
  163SAPE   O1118277   1.801   3.145   6.776  0.2326 -0.3639 -0.3492
  163SAPE    C118278   1.702   3.128   6.874  0.1985 -0.0701 -0.5728
  163SAPE    HA18279   1.602   3.144   6.827  0.8198  0.8569 -1.6065
  163SAPE    HB18280   1.712   3.028   6.921  0.9514  0.4752  0.4745
  163SAPE    C218281   1.719   3.243   6.979  0.3735  0.2885 -0.4102
  163SAPE    HS18282   1.815   3.294   6.955  0.6798 -0.3523 -0.5792
  163SAPE   O2118283   1.734   3.180   7.111 -0.1796  0.6489  0.0479
  163SAPE   C2118284   1.797   3.257   7.195  0.7774  0.0073 -0.0835
  163SAPE   O2218285   1.830   3.374   7.174  0.1852  0.1070 -0.0036
  163SAPE   C2218286   1.812   3.176   7.322 -0.1450  0.0644  0.5330
  163SAPE   H2R18287   1.718   3.134   7.365 -0.8431  0.2173 -0.7938
  163SAPE   H2S18288   1.872   3.086   7.296 -0.6908  0.2898 -1.7405
  163SAPE    C318289   1.601   3.347   6.974 -0.7548 -0.7083  0.3670
  163SAPE    HX18290   1.593   3.395   6.874 -0.4543  1.5080  1.3421
  163SAPE    HY18291   1.620   3.424   7.052  0.6433  0.0143 -0.6480
  163SAPE   O3118292   1.476   3.277   6.985  0.2789  0.4160  0.5496
  163SAPE   C3118293   1.422   3.281   7.107 -0.0191  0.3593  0.1804
  163SAPE   O3218294   1.474   3.337   7.200  0.0968  0.6062  0.1275
  163SAPE   C3218295   1.291   3.201   7.102  0.9569 -0.1805 -0.6025
  163SAPE   H2X18296   1.305   3.112   7.036  1.2879  0.3132 -1.2165
  163SAPE   H2Y18297   1.224   3.273   7.050  0.7445 -0.3591 -0.5754
  163SAPE   C2318298   1.879   3.260   7.432 -0.7407 -0.0091  0.1525
  163SAPE   H3R18299   1.960   3.326   7.396  0.3236 -0.3531  1.7889
  163SAPE   H3S18300   1.913   3.196   7.517 -4.2099 -0.0309  1.6996
  163SAPE   C2418301   1.780   3.359   7.494  0.6303 -0.3587  0.2972
  163SAPE   H4R18302   1.746   3.433   7.418  0.3681  0.2102  0.9603
  163SAPE   H4S18303   1.828   3.427   7.567 -0.5892 -1.0097  1.7389
  163SAPE   C2518304   1.653   3.301   7.567 -0.0336  0.2084  0.2952
  163SAPE   H5R18305   1.564   3.280   7.506 -0.1080 -1.2503  0.8640
  163SAPE   C2618306   1.658   3.264   7.699 -0.2244  0.1562 -0.6614
  163SAPE   H6R18307   1.571   3.211   7.742  1.0012  0.0003  1.8055
  163SAPE   C2718308   1.774   3.274   7.795 -0.2984  0.9766 -0.5557
  163SAPE   H7R18309   1.771   3.369   7.853 -0.6985  1.7831 -1.8594
  163SAPE   H7S18310   1.872   3.265   7.743 -0.6311 -0.0740 -1.0129
  163SAPE   C2818311   1.773   3.158   7.895  0.2018  0.4056 -0.2630
  163SAPE   H8R18312   1.834   3.069   7.871  0.8299  0.7284  0.1151
  163SAPE   C2918313   1.704   3.153   8.014 -1.3456  0.2680 -0.6159
  163SAPE   H9R18314   1.696   3.060   8.073  0.7834 -0.4726 -1.3731
  163SAPE  C21018315   1.616   3.263   8.065  0.0715 -0.1042 -0.2821
  163SAPE  H10R18316   1.658   3.359   8.026  0.8083 -1.2860 -2.5658
  163SAPE  H10S18317   1.620   3.260   8.176  0.9683 -1.1159 -0.3245
  163SAPE  C21118318   1.471   3.235   8.025 -0.0703 -0.3262 -0.8356
  163SAPE  H11R18319   1.427   3.310   7.958 -0.0055 -1.2134 -1.8912
  163SAPE  C21218320   1.391   3.129   8.063  0.2169 -0.3657  0.2710
  163SAPE  H12R18321   1.282   3.131   8.048 -0.0145  0.1670  1.8263
  163SAPE  C21318322   1.442   3.020   8.158 -0.0272  0.3464  0.7075
  163SAPE  H13R18323   1.524   3.064   8.219 -0.2248  0.7496  0.6833
  163SAPE  H13S18324   1.494   2.949   8.090 -0.2116  1.0408 -0.1788
  163SAPE  C21418325   1.348   2.951   8.251 -0.3819  0.1351 -0.6619
  163SAPE  H14R18326   1.258   2.923   8.195  1.5834 -2.2287 -2.8924
  163SAPE  C21518327   1.362   2.921   8.381  0.5370  0.1888  0.9772
  163SAPE  H15R18328   1.281   2.857   8.420 -0.7033  0.1917 -1.3746
  163SAPE  C21618329   1.473   2.960   8.475 -0.0632 -0.1391 -0.5031
  163SAPE  H16R18330   1.528   3.051   8.441 -0.8271  0.2702 -0.6710
  163SAPE  H16S18331   1.553   2.885   8.490  0.2986  0.3545  0.1011
  163SAPE  C21718332   1.404   2.976   8.612  0.1954 -0.0513 -0.7654
  163SAPE  H17R18333   1.305   3.024   8.596  0.7495  0.5863 -2.5556
  163SAPE  H17S18334   1.461   3.058   8.662 -0.6050  0.2316 -0.2873
  163SAPE  C21818335   1.375   2.856   8.705 -0.2254  0.4454  0.6535
  163SAPE  H18R18336   1.337   2.785   8.629  1.6457 -0.2421  0.3042
  163SAPE  H18S18337   1.294   2.888   8.774 -1.0109 -1.2348  0.5655
  163SAPE  C21918338   1.499   2.806   8.778 -0.9509  0.0395 -0.5532
  163SAPE  H19R18339   1.521   2.869   8.867  1.0255 -3.2133  1.4702
  163SAPE  H19S18340   1.587   2.801   8.710 -0.4152  1.1675  0.0126
  163SAPE  C22018341   1.489   2.669   8.837 -0.5879  0.3050  0.3571
  163SAPE  H20R18342   1.593   2.647   8.870 -0.7858 -1.8816 -0.3363
  163SAPE  H20S18343   1.462   2.593   8.761  0.0881 -0.3337  0.7460
  163SAPE  H20T18344   1.411   2.662   8.916 -2.6392 -2.1356 -1.6742
  163SAPE   C3318345   1.233   3.175   7.240 -1.0837 -0.1267  0.3671
  163SAPE   H3X18346   1.124   3.158   7.229 -1.4671  2.7227 -0.9833
  163SAPE   H3Y18347   1.256   3.265   7.301  3.6310 -0.5419 -0.3791
  163SAPE   C3418348   1.304   3.057   7.303  0.0726  0.1046 -0.5275
  163SAPE   H4X18349   1.412   3.080   7.295  0.0933  0.6270  0.9186
  163SAPE   H4Y18350   1.270   2.965   7.252 -0.8666 -0.1405  0.5016
  163SAPE   C3518351   1.260   3.039   7.450  0.2092  0.2911  0.4823
  163SAPE   H5X18352   1.284   2.938   7.488  0.2933  0.6417  1.3862
  163SAPE   H5Y18353   1.151   3.055   7.458  0.5156  2.0918  1.8605
  163SAPE   C3618354   1.330   3.135   7.542 -0.9465 -0.2325  0.3110
  163SAPE   H6X18355   1.336   3.232   7.489 -1.0555  0.1967  1.0803
  163SAPE   H6Y18356   1.435   3.104   7.562 -1.2980  0.3802  3.5675
  163SAPE   C3718357   1.263   3.154   7.677  0.1383 -0.0920  0.0342
  163SAPE   H7X18358   1.336   3.190   7.753 -0.2163 -0.3820  0.5101
  163SAPE   H7Y18359   1.238   3.056   7.722 -0.2468  0.3684  0.8521
  163SAPE   C3818360   1.149   3.243   7.679  0.0277 -0.4045  0.0978
  163SAPE   H8X18361   1.066   3.184   7.635 -0.0075 -1.0522  1.0079
  163SAPE   H8Y18362   1.164   3.334   7.617 -1.2279  0.4882  1.0667
  163SAPE   C3918363   1.123   3.291   7.820 -0.5112  0.3631  0.4400
  163SAPE   H9X18364   1.222   3.326   7.858 -0.5854  0.2195  0.7687
  163SAPE   H9Y18365   1.078   3.212   7.883  1.0192 -0.3619  0.6784
  163SAPE  C31018366   1.027   3.403   7.809  0.1667  0.2894 -0.0754
  163SAPE  H10X18367   0.928   3.363   7.776 -0.7208  0.5000  2.1360
  163SAPE  H10Y18368   1.050   3.484   7.736 -1.2463  1.4766  0.7431
  163SAPE  C31118369   1.002   3.483   7.940  0.2659  0.0741  0.3414
  163SAPE  H11X18370   0.925   3.561   7.918  1.4716  0.4032 -3.4934
  163SAPE  H11Y18371   1.091   3.538   7.976  0.5883  0.2758 -0.7346
  163SAPE  C31218372   0.944   3.380   8.032  0.1696  0.2451  0.1739
  163SAPE  H12X18373   1.019   3.304   8.066  2.6126  1.3189 -2.4383
  163SAPE  H12Y18374   0.860   3.325   7.985 -0.3726  1.0159  0.2209
  163SAPE  C31318375   0.879   3.453   8.156  0.0462 -0.3648  0.2643
  163SAPE  H13X18376   0.822   3.375   8.211 -0.3156  0.7918  1.5778
  163SAPE  H13Y18377   0.808   3.526   8.109  0.2908 -0.7903 -0.8048
  163SAPE  C31418378   0.986   3.514   8.244 -0.8060 -0.1405 -0.3262
  163SAPE  H14X18379   0.949   3.575   8.329  2.9132  1.3018  0.4033
  163SAPE  H14Y18380   1.062   3.565   8.182  2.0204 -1.2937  1.9842
  163SAPE  C31518381   1.070   3.404   8.322  0.6854 -0.1574 -0.1585
  163SAPE  H15X18382   1.081   3.305   8.272  1.7713 -0.7756  1.2249
  163SAPE  H15Y18383   1.016   3.365   8.411 -0.1003 -1.6503 -1.2447
  163SAPE  C31618384   1.210   3.451   8.351 -0.4647 -0.0561 -0.3478
  163SAPE  H16X18385   1.263   3.456   8.254 -2.1007 -1.7751 -1.3880
  163SAPE  H16Y18386   1.261   3.373   8.410 -0.6625  0.0497 -0.0319
  163SAPE  C31718387   1.219   3.588   8.425 -0.1690 -0.0459 -0.2698
  163SAPE  H17X18388   1.136   3.592   8.499  1.5901 -2.0689  1.9542
  163SAPE  H17Y18389   1.191   3.670   8.355  1.0959  0.4989 -0.1453
  163SAPE  C31818390   1.350   3.611   8.501 -0.2247 -0.3652 -0.2389
  163SAPE  H18X18391   1.356   3.710   8.551 -0.2529 -0.5867  0.2175
  163SAPE  H18Y18392   1.434   3.617   8.429  2.1776  0.9282  2.4583
  163SAPE  H18Z18393   1.359   3.529   8.576  1.9798 -1.0230 -1.1615
  164SAPE     N18394   3.119   0.114   5.777 -0.0654  0.3474  0.4363
  164SAPE   HN118395   3.146   0.185   5.847  1.1741  0.0660  0.2554
  164SAPE   HN218396   3.077   0.158   5.692 -0.7035 -1.3524 -0.1930
  164SAPE   HN318397   3.039   0.060   5.817 -0.9759  1.6218  0.4083
  164SAPE   C1218398   3.242   0.041   5.744  0.0222 -0.1738 -0.7528
  164SAPE  H12A18399   3.224  -0.035   5.665 -3.5807 -1.8519  1.4636
  164SAPE  H12B18400   3.296  -0.006   5.829 -3.1239  1.0538  2.1279
  164SAPE   C1118401   3.350   0.142   5.698  0.3065 -0.9988  0.6170
  164SAPE  H11A18402   3.311   0.190   5.606 -0.6163 -1.6565  0.6540
  164SAPE  H11B18403   3.440   0.083   5.669  2.2198  1.6526  0.8484
  164SAPE     P18404   3.514   0.237   5.872 -0.7957 -0.3132 -0.5366
  164SAPE   O1318405   3.625   0.266   5.779  0.1951  0.2447  0.1565
  164SAPE   O1418406   3.500   0.327   5.990 -0.2437 -0.1296 -0.5052
  164SAPE   O1218407   3.379   0.236   5.799 -0.2246 -0.4282  0.6815
  164SAPE   O1118408   3.535   0.085   5.914 -0.1025 -1.1847  0.6177
  164SAPE    C118409   3.476   0.040   6.031  0.1227  0.0962  0.0078
  164SAPE    HA18410   3.381   0.091   6.058 -0.6937 -2.0650  1.5231
  164SAPE    HB18411   3.454  -0.066   6.005 -2.0438  0.6863 -0.8169
  164SAPE    C218412   3.574   0.043   6.147  0.1820  0.4005  0.0380
  164SAPE    HS18413   3.599   0.150   6.162  2.2651 -0.1343  0.7430
  164SAPE   O2118414   3.687  -0.041   6.120 -0.1983 -0.0197 -0.0975
  164SAPE   C2118415   3.801   0.017   6.095 -0.3354 -0.3593  0.4382
  164SAPE   O2218416   3.816   0.140   6.090  0.1137  0.6739 -0.7485
  164SAPE   C2218417   3.896  -0.099   6.055  0.4817  0.0402  0.4053
  164SAPE   H2R18418   3.849  -0.187   6.104 -0.6700  2.0516  3.1852
  164SAPE   H2S18419   3.906  -0.112   5.945  0.9001  0.2064  0.4222
  164SAPE    C318420   3.502  -0.002   6.283 -0.2263  0.1897 -0.2989
  164SAPE    HX18421   3.470  -0.107   6.267 -2.4414  0.4575  1.7592
  164SAPE    HY18422   3.411   0.057   6.307 -0.9198 -1.3513  1.0933
  164SAPE   O3118423   3.597  -0.010   6.391  0.1218 -0.1247 -0.3446
  164SAPE   C3118424   3.607   0.101   6.466 -0.3842  0.6603 -0.5513
  164SAPE   O3218425   3.570   0.210   6.435 -0.1735  0.2719  0.2430
  164SAPE   C3218426   3.671   0.064   6.601 -0.1913  0.1599 -0.4530
  164SAPE   H2X18427   3.696  -0.045   6.599  1.6733  0.5387  0.1008
  164SAPE   H2Y18428   3.585   0.068   6.671 -0.4156 -2.0589 -0.5345
  164SAPE   C2318429   4.036  -0.074   6.104  0.5769  0.2287 -0.2370
  164SAPE   H3R18430   4.056   0.031   6.073  0.4534 -0.2504 -2.0844
  164SAPE   H3S18431   4.106  -0.136   6.044 -0.0856  1.1389 -2.0274
  164SAPE   C2418432   4.060  -0.093   6.256  0.1364  0.2784  0.1383
  164SAPE   H4R18433   3.999  -0.025   6.318 -0.2434 -0.1368  0.2232
  164SAPE   H4S18434   4.166  -0.066   6.276 -0.2998  0.4666  2.5319
  164SAPE   C2518435   4.034  -0.237   6.297  0.3924 -0.5937  0.4176
  164SAPE   H5R18436   3.999  -0.296   6.211  2.5750  0.5896 -1.4090
  164SAPE   C2618437   4.067  -0.296   6.414  0.2740  0.4680 -0.0595
  164SAPE   H6R18438   4.044  -0.404   6.419  0.6632  0.4035  0.4129
  164SAPE   C2718439   4.128  -0.216   6.524  0.1574  0.3281 -0.1217
  164SAPE   H7R18440   4.045  -0.145   6.546 -0.7655  0.2448 -2.9863
  164SAPE   H7S18441   4.218  -0.163   6.487 -0.2682 -1.6571 -4.5501
  164SAPE   C2818442   4.155  -0.314   6.640 -0.1725  0.6720 -0.1364
  164SAPE   H8R18443   4.134  -0.421   6.624 -0.4164  0.6518  0.2802
  164SAPE   C2918444   4.196  -0.281   6.764 -0.1627 -0.4971  0.2294
  164SAPE   H9R18445   4.207  -0.358   6.841  1.2290 -0.7505 -0.1823
  164SAPE  C21018446   4.230  -0.142   6.810  0.4448 -0.0612  0.3729
  164SAPE  H10R18447   4.286  -0.089   6.731 -0.3236  0.1194 -0.0647
  164SAPE  H10S18448   4.289  -0.148   6.904  0.0539 -0.4142  0.6041
  164SAPE  C21118449   4.107  -0.050   6.835 -0.2430 -0.1275 -0.3596
  164SAPE  H11R18450   4.034  -0.041   6.754 -0.8316 -1.1981  0.0255
  164SAPE  C21218451   4.078   0.018   6.951  0.3299  1.1834  0.4638
  164SAPE  H12R18452   3.980   0.066   6.954 -0.2515  0.0893 -0.3007
  164SAPE  C21318453   4.161   0.006   7.082  0.2466 -0.3653  0.6104
  164SAPE  H13R18454   4.103   0.066   7.155 -1.0243  0.3138 -0.8976
  164SAPE  H13S18455   4.253   0.063   7.057 -2.1971  2.6255 -2.5234
  164SAPE  C21418456   4.197  -0.132   7.141 -0.1442  0.4049  0.3441
  164SAPE  H14R18457   4.178  -0.222   7.081  0.2284  1.2783 -1.1301
  164SAPE  C21518458   4.242  -0.159   7.266 -0.5409  0.2715  0.3766
  164SAPE  H15R18459   4.241  -0.266   7.288 -0.3489  0.0187 -0.7742
  164SAPE  C21618460   4.272  -0.059   7.372  0.3510  0.2400 -0.0922
  164SAPE  H16R18461   4.209  -0.092   7.458 -1.3568  0.3081 -1.2689
  164SAPE  H16S18462   4.244   0.040   7.329  2.2982 -0.0217 -2.1178
  164SAPE  C21718463   4.419  -0.054   7.418 -0.2115 -0.5094  0.0236
  164SAPE  H17R18464   4.485  -0.014   7.337  0.3975 -2.1495 -0.3226
  164SAPE  H17S18465   4.457  -0.156   7.441  2.4707  1.0509  3.4408
  164SAPE  C21818466   4.434   0.020   7.550  0.2782 -0.1408 -0.4052
  164SAPE  H18R18467   4.354  -0.010   7.621 -0.6423 -0.0620 -1.3693
  164SAPE  H18S18468   4.417   0.128   7.531  1.2886  0.1057  0.0541
  164SAPE  C21918469   4.567  -0.003   7.615  0.3586  0.0052 -0.2648
  164SAPE  H19R18470   4.573  -0.114   7.624  1.7419 -0.1490 -2.4024
  164SAPE  H19S18471   4.571   0.051   7.713 -2.1844  1.7834 -1.0307
  164SAPE  C22018472   4.676   0.046   7.532 -0.1536 -0.6310  0.2145
  164SAPE  H20R18473   4.700  -0.031   7.455  0.0926  1.6933 -2.1776
  164SAPE  H20S18474   4.771   0.066   7.585  0.3484  0.6349 -1.0872
  164SAPE  H20T18475   4.647   0.141   7.482 -1.9157  0.1971  2.6295
  164SAPE   C3318476   3.793   0.146   6.647 -1.4647 -0.4080  0.1248
  164SAPE   H3X18477   3.864   0.144   6.562 -2.1569 -1.7853 -0.4554
  164SAPE   H3Y18478   3.847   0.100   6.733 -4.1424 -0.3478  1.9913
  164SAPE   C3418479   3.752   0.289   6.687  0.4700 -0.1634 -0.0528
  164SAPE   H4X18480   3.686   0.280   6.776 -0.9744  0.2122 -1.0595
  164SAPE   H4Y18481   3.694   0.337   6.606 -2.3937 -0.4104  1.7379
  164SAPE   C3518482   3.868   0.387   6.706 -0.7602 -0.4186  0.1033
  164SAPE   H5X18483   3.836   0.492   6.686  1.7558  0.2476 -0.9032
  164SAPE   H5Y18484   3.938   0.369   6.622 -1.3878  0.0152 -0.5287
  164SAPE   C3618485   3.942   0.388   6.843  1.0572 -0.5729 -0.1489
  164SAPE   H6X18486   4.019   0.468   6.838 -0.0672  0.5476 -0.1336
  164SAPE   H6Y18487   3.990   0.291   6.867  1.2401 -0.6431 -0.7829
  164SAPE   C3718488   3.859   0.426   6.972  0.0542 -0.0262  0.4667
  164SAPE   H7X18489   3.762   0.373   6.975 -1.2171  2.0087 -1.9270
  164SAPE   H7Y18490   3.819   0.529   6.965  0.6862  0.2764  1.0769
  164SAPE   C3818491   3.944   0.421   7.099  0.0025  0.7365 -0.1177
  164SAPE   H8X18492   4.036   0.476   7.069  0.2498  1.4550  1.8093
  164SAPE   H8Y18493   3.970   0.313   7.111 -1.5110 -0.0115 -2.8651
  164SAPE   C3918494   3.872   0.479   7.221  0.1133  0.3131  0.4898
  164SAPE   H9X18495   3.774   0.427   7.226  0.0124 -0.5266 -4.7066
  164SAPE   H9Y18496   3.840   0.583   7.199  0.7163  0.8646  2.0540
  164SAPE  C31018497   3.946   0.485   7.352 -0.1282 -0.5777 -0.8247
  164SAPE  H10X18498   4.047   0.529   7.340 -0.0813 -0.0899  1.0609
  164SAPE  H10Y18499   3.958   0.378   7.382 -0.8652 -0.9023 -1.6422
  164SAPE  C31118500   3.871   0.562   7.463 -0.5534  0.6758 -0.6876
  164SAPE  H11X18501   3.798   0.488   7.503  1.2876  0.3115  2.3646
  164SAPE  H11Y18502   3.811   0.643   7.416 -1.6890  0.5545  0.4972
  164SAPE  C31218503   3.965   0.623   7.568  0.3721  0.0721  0.1689
  164SAPE  H12X18504   3.901   0.683   7.637 -2.2231 -0.6384 -1.4863
  164SAPE  H12Y18505   4.031   0.696   7.516 -1.0852  1.9561  0.8442
  164SAPE  C31318506   4.055   0.524   7.653  0.7769 -0.5723  0.6167
  164SAPE  H13X18507   4.139   0.478   7.597  0.5388  1.4453 -1.5103
  164SAPE  H13Y18508   3.991   0.450   7.706 -0.0288  1.0480  2.0265
  164SAPE  C31418509   4.140   0.606   7.755 -0.1499 -0.2679 -0.6184
  164SAPE  H14X18510   4.081   0.692   7.792  1.0937  0.2702  0.1587
  164SAPE  H14Y18511   4.239   0.627   7.709 -0.6021 -1.9411 -2.4816
  164SAPE  C31518512   4.180   0.526   7.885 -0.3147 -0.2272 -0.3981
  164SAPE  H15X18513   4.088   0.493   7.938  0.1928 -3.5857 -1.3899
  164SAPE  H15Y18514   4.225   0.594   7.961  0.4949 -1.1933  0.0067
  164SAPE  C31618515   4.277   0.414   7.852 -0.3492 -0.1582  0.2615
  164SAPE  H16X18516   4.380   0.450   7.831  0.1581  0.2614  3.1013
  164SAPE  H16Y18517   4.245   0.376   7.753 -3.7499  2.0264  0.3345
  164SAPE  C31718518   4.291   0.304   7.953  0.1150 -0.2215  0.0841
  164SAPE  H17X18519   4.279   0.357   8.050  1.0690 -0.1563  0.1753
  164SAPE  H17Y18520   4.393   0.261   7.946  1.5579  2.9772 -0.7907
  164SAPE  C31818521   4.182   0.203   7.937 -0.1855  0.0751 -0.0848
  164SAPE  H18X18522   4.087   0.260   7.942 -0.2016  0.0336  0.0943
  164SAPE  H18Y18523   4.186   0.140   8.029 -0.5274 -0.5258 -0.4751
  164SAPE  H18Z18524   4.195   0.135   7.850  1.8432  1.0890 -0.6290
  165SAPE     N18525   3.490   4.076   6.011  0.3139 -0.6825  0.0901
  165SAPE   HN118526   3.474   4.090   5.909  0.3767 -0.9798  0.0403
  165SAPE   HN218527   3.474   4.153   6.079  1.1745 -0.1748 -0.2619
  165SAPE   HN318528   3.590   4.050   6.026  0.1990 -0.9633  0.3758
  165SAPE   C1218529   3.402   3.968   6.063  0.0155  0.2622  0.8668
  165SAPE  H12A18530   3.403   3.900   5.975 -1.9479 -2.7745  2.9962
  165SAPE  H12B18531   3.302   4.015   6.073  1.0356  2.1584  3.2375
  165SAPE   C1118532   3.457   3.883   6.180 -0.1786 -0.4399  0.0738
  165SAPE  H11A18533   3.371   3.816   6.204 -1.8766  1.6775  0.1646
  165SAPE  H11B18534   3.460   3.952   6.266 -1.9505 -2.2189  1.6613
  165SAPE     P18535   3.698   3.831   6.225 -0.5330  0.1937  0.1629
  165SAPE   O1318536   3.782   3.709   6.220 -0.2419  0.2276  0.0105
  165SAPE   O1418537   3.761   3.956   6.181 -0.9022 -0.1806 -0.0671
  165SAPE   O1218538   3.569   3.807   6.137 -0.5860 -0.3639 -0.0628
  165SAPE   O1118539   3.636   3.847   6.369 -0.6606  0.0631 -0.0101
  165SAPE    C118540   3.582   3.741   6.452 -0.4566 -0.2067 -0.0990
  165SAPE    HA18541   3.474   3.767   6.461 -0.0800  2.0562 -1.3309
  165SAPE    HB18542   3.579   3.645   6.397 -1.6204  0.0188 -0.4624
  165SAPE    C218543   3.675   3.726   6.580  0.1559 -0.2711  0.9421
  165SAPE    HS18544   3.673   3.827   6.626  2.3765 -0.8533  2.4318
  165SAPE   O2118545   3.808   3.683   6.541 -0.5433  0.0738 -0.0992
  165SAPE   C2118546   3.908   3.739   6.598  0.3672  0.2422 -0.0198
  165SAPE   O2218547   3.899   3.826   6.685 -0.5024  0.6978  0.5232
  165SAPE   C2218548   4.035   3.675   6.553  1.0136  0.2363 -0.0074
  165SAPE   H2R18549   4.010   3.579   6.504  0.4724 -0.5160  1.6792
  165SAPE   H2S18550   4.076   3.740   6.473 -0.0654  0.6947 -0.2063
  165SAPE    C318551   3.619   3.619   6.672  0.1123  0.0577  0.5640
  165SAPE    HX18552   3.692   3.596   6.752  0.0162  1.0280  0.9370
  165SAPE    HY18553   3.607   3.529   6.608  2.1535 -0.3823  0.7361
  165SAPE   O3118554   3.492   3.649   6.737  0.4497 -0.0381  0.0352
  165SAPE   C3118555   3.438   3.547   6.793  0.0631 -0.5039 -0.4166
  165SAPE   O3218556   3.489   3.431   6.795 -0.2890 -0.9632  0.1617
  165SAPE   C3218557   3.302   3.596   6.846 -0.5591 -0.0090  0.4664
  165SAPE   H2X18558   3.232   3.533   6.788  0.4638 -1.1632  0.4382
  165SAPE   H2Y18559   3.287   3.701   6.812  1.9581  0.5365  0.7674
  165SAPE   C2318560   4.146   3.659   6.657  0.0295  0.4733 -0.1126
  165SAPE   H3R18561   4.168   3.757   6.706 -1.3393  0.8806 -0.2592
  165SAPE   H3S18562   4.239   3.632   6.603  0.4388  1.5799  0.0105
  165SAPE   C2418563   4.120   3.545   6.753 -0.6218  0.3319 -0.5224
  165SAPE   H4R18564   4.087   3.457   6.693  0.6486 -0.0488 -0.6933
  165SAPE   H4S18565   4.039   3.567   6.826 -0.2029 -0.0004  0.0522
  165SAPE   C2518566   4.248   3.521   6.828  0.0653  0.8165  0.4349
  165SAPE   H5R18567   4.278   3.615   6.877  0.6751  0.6922  0.3012
  165SAPE   C2618568   4.324   3.413   6.822  0.5514 -0.9188  0.5485
  165SAPE   H6R18569   4.421   3.410   6.874  1.5130  1.1920 -0.9412
  165SAPE   C2718570   4.291   3.287   6.743 -0.3304 -0.6587 -0.1297
  165SAPE   H7R18571   4.387   3.251   6.699 -0.0684 -1.4061  1.0244
  165SAPE   H7S18572   4.226   3.300   6.653 -0.0185  1.1309 -0.1334
  165SAPE   C2818573   4.233   3.189   6.851 -0.2582 -0.0567  0.8606
  165SAPE   H8R18574   4.125   3.207   6.844  0.1336  2.2353 -3.4965
  165SAPE   C2918575   4.304   3.114   6.940  0.5557  0.4850  0.3291
  165SAPE   H9R18576   4.251   3.065   7.024  1.5851  2.1482  2.0327
  165SAPE  C21018577   4.455   3.098   6.957 -0.1314 -0.2278  0.5032
  165SAPE  H10R18578   4.507   3.139   6.868  1.1059  0.2300  1.4114
  165SAPE  H10S18579   4.493   2.994   6.955  1.5467  0.3020 -2.4782
  165SAPE  C21118580   4.509   3.172   7.074 -0.1214 -0.3908  0.0786
  165SAPE  H11R18581   4.525   3.279   7.057 -0.9258 -0.1530  0.7122
  165SAPE  C21218582   4.550   3.119   7.190  1.1737 -0.3249 -0.4348
  165SAPE  H12R18583   4.580   3.194   7.265  0.2134 -0.3233 -0.0344
  165SAPE  C21318584   4.548   2.970   7.226  0.6204 -0.0733 -0.2380
  165SAPE  H13R18585   4.595   2.956   7.326  0.3338 -1.3927 -0.2679
  165SAPE  H13S18586   4.611   2.903   7.164  1.6883  0.5038  0.2060
  165SAPE  C21418587   4.413   2.903   7.229 -0.9903  0.1544 -0.2512
  165SAPE  H14R18588   4.368   2.897   7.128  2.6746  0.2911 -2.0790
  165SAPE  C21518589   4.345   2.866   7.336 -0.0898  0.6763  0.2457
  165SAPE  H15R18590   4.245   2.821   7.326 -0.0655  0.8912 -1.1423
  165SAPE  C21618591   4.393   2.882   7.479 -0.4465  0.8787 -0.0105
  165SAPE  H16R18592   4.326   2.945   7.541 -0.8223 -1.0118  1.5750
  165SAPE  H16S18593   4.489   2.938   7.490 -1.1700  1.8551  1.5904
  165SAPE  C21718594   4.398   2.746   7.559 -0.2727 -0.7892  0.0160
  165SAPE  H17R18595   4.493   2.698   7.528 -0.2049 -1.0180  0.5720
  165SAPE  H17S18596   4.307   2.687   7.538 -0.5270 -0.1525 -0.7298
  165SAPE  C21818597   4.406   2.775   7.712  0.6661  0.7330  0.4933
  165SAPE  H18R18598   4.414   2.670   7.749 -2.1701 -0.6136 -2.2128
  165SAPE  H18S18599   4.312   2.816   7.754  0.1533 -0.1117  0.1982
  165SAPE  C21918600   4.534   2.852   7.755  0.3643  0.8256 -0.5584
  165SAPE  H19R18601   4.527   2.886   7.860  0.1777 -0.2331 -0.2129
  165SAPE  H19S18602   4.544   2.943   7.692 -0.3359 -0.8227 -3.2058
  165SAPE  C22018603   4.670   2.783   7.741  0.4553 -0.4687  0.1273
  165SAPE  H20R18604   4.752   2.843   7.786 -0.6473 -0.2328  1.9343
  165SAPE  H20S18605   4.698   2.759   7.636 -2.4730 -3.1324 -0.1869
  165SAPE  H20T18606   4.674   2.687   7.796  1.2429 -0.1049  0.7281
  165SAPE   C3318607   3.287   3.574   7.001  0.5838 -0.2364  0.1668
  165SAPE   H3X18608   3.284   3.464   7.018 -2.7295 -0.0084  2.0093
  165SAPE   H3Y18609   3.187   3.606   7.037  1.3238 -0.0585  2.1533
  165SAPE   C3418610   3.398   3.637   7.085  0.2018 -0.1323  0.0330
  165SAPE   H4X18611   3.402   3.746   7.064 -1.2748  0.3392  1.9154
  165SAPE   H4Y18612   3.494   3.593   7.050 -0.2326 -0.7107 -0.4376
  165SAPE   C3518613   3.374   3.623   7.230 -0.3956  0.0657  0.1350
  165SAPE   H5X18614   3.314   3.533   7.256 -1.8118  0.0473 -2.7743
  165SAPE   H5Y18615   3.314   3.712   7.260  0.1727  0.6641 -0.4800
  165SAPE   C3618616   3.502   3.624   7.315  0.0025  0.0467 -0.1184
  165SAPE   H6X18617   3.480   3.664   7.417  1.0890 -2.0786  1.0237
  165SAPE   H6Y18618   3.571   3.698   7.270 -1.3114  1.0766 -0.4960
  165SAPE   C3718619   3.565   3.488   7.346  0.4443  0.8845  0.0117
  165SAPE   H7X18620   3.676   3.494   7.343  0.4958 -0.1360 -0.4314
  165SAPE   H7Y18621   3.526   3.430   7.259  0.1176 -1.8445  1.8645
  165SAPE   C3818622   3.513   3.431   7.482  0.7543 -0.0345  0.6715
  165SAPE   H8X18623   3.529   3.322   7.467 -3.1941 -0.6169 -0.4860
  165SAPE   H8Y18624   3.405   3.457   7.488  1.0477  0.9398  1.9008
  165SAPE   C3918625   3.574   3.485   7.608  0.1642 -0.0717  0.4596
  165SAPE   H9X18626   3.530   3.443   7.701  0.3844  0.2779  0.7289
  165SAPE   H9Y18627   3.544   3.592   7.611 -1.9005 -0.5956 -0.0967
  165SAPE  C31018628   3.726   3.466   7.606 -0.5724  0.7132 -0.4594
  165SAPE  H10X18629   3.773   3.531   7.528  1.4338  0.8349  0.7696
  165SAPE  H10Y18630   3.750   3.361   7.578  0.9365  0.9578 -0.1940
  165SAPE  C31118631   3.805   3.475   7.739 -0.2351 -0.2155 -0.0055
  165SAPE  H11X18632   3.783   3.569   7.794 -0.3042 -0.4463  0.3607
  165SAPE  H11Y18633   3.916   3.471   7.732 -0.2897 -2.0845 -0.3056
  165SAPE  C31218634   3.766   3.370   7.842 -0.5088  0.7017 -0.0971
  165SAPE  H12X18635   3.759   3.268   7.797 -3.1488 -0.2830  2.2518
  165SAPE  H12Y18636   3.666   3.380   7.887 -0.2606 -2.5809  1.5339
  165SAPE  C31318637   3.862   3.339   7.958  0.3208 -0.9039 -0.0246
  165SAPE  H13X18638   3.893   3.438   7.997 -0.5011  0.0753 -1.7314
  165SAPE  H13Y18639   3.953   3.285   7.925 -0.7921 -2.0684 -1.3550
  165SAPE  C31418640   3.788   3.271   8.068  0.8522 -0.2722  0.0141
  165SAPE  H14X18641   3.763   3.166   8.043  1.5444 -0.3869 -0.2204
  165SAPE  H14Y18642   3.692   3.323   8.087  0.9294 -0.0686 -0.1492
  165SAPE  C31518643   3.863   3.280   8.200 -0.4414 -0.1667  0.5005
  165SAPE  H15X18644   3.898   3.384   8.220 -0.5636  0.1632 -0.8890
  165SAPE  H15Y18645   3.957   3.221   8.199 -0.9191 -0.9281  0.1364
  165SAPE  C31618646   3.791   3.229   8.320 -0.5127  0.4500 -0.3572
  165SAPE  H16X18647   3.857   3.236   8.409 -0.3332 -0.3671 -0.4169
  165SAPE  H16Y18648   3.767   3.121   8.306 -2.1983  0.9259 -1.4460
  165SAPE  C31718649   3.668   3.310   8.376  0.0834 -0.1313 -0.0972
  165SAPE  H17X18650   3.580   3.327   8.310 -0.6035 -0.6952  0.6593
  165SAPE  H17Y18651   3.716   3.409   8.395  1.0151 -0.5425 -0.2209
  165SAPE  C31818652   3.606   3.257   8.506  0.0660  0.2805 -0.0984
  165SAPE  H18X18653   3.535   3.327   8.554  0.8258  0.4658  0.7950
  165SAPE  H18Y18654   3.681   3.255   8.588 -1.6116  1.0727  1.5112
  165SAPE  H18Z18655   3.553   3.161   8.487 -0.5702  0.2395  1.7202
  166SAPE     N18656   4.186   5.051   6.142 -0.6679 -0.8509 -0.5427
  166SAPE   HN118657   4.149   4.954   6.144  0.5302 -1.3634 -1.4670
  166SAPE   HN218658   4.280   5.049   6.096  0.7244  1.5240  1.8641
  166SAPE   HN318659   4.191   5.081   6.241  1.5710  1.5808 -1.2419
  166SAPE   C1218660   4.085   5.130   6.069 -0.7776 -0.1168  0.8257
  166SAPE  H12A18661   3.990   5.123   6.126 -0.7803  0.4598  0.9011
  166SAPE  H12B18662   4.070   5.081   5.971 -0.4042 -1.4003  1.3862
  166SAPE   C1118663   4.131   5.280   6.056 -0.2793  0.2089  0.4560
  166SAPE  H11A18664   4.241   5.275   6.049 -0.2916  0.4510  0.0854
  166SAPE  H11B18665   4.104   5.336   6.149 -1.4085 -2.0932  1.5905
  166SAPE     P18666   3.933   5.417   5.936  0.3733 -0.3061 -0.3905
  166SAPE   O1318667   3.949   5.565   5.950  0.3817 -0.0762  0.0392
  166SAPE   O1418668   3.862   5.372   5.817  0.2795 -0.0519 -0.0161
  166SAPE   O1218669   4.078   5.351   5.939 -0.7457  0.5388 -0.5327
  166SAPE   O1118670   3.853   5.356   6.057 -0.5077  0.4748 -0.0271
  166SAPE    C118671   3.743   5.432   6.112  0.4211  0.6017  0.5191
  166SAPE    HA18672   3.756   5.542   6.106  2.1470  0.3649 -0.7062
  166SAPE    HB18673   3.648   5.409   6.059  0.7466 -2.2205  0.9906
  166SAPE    C218674   3.711   5.396   6.268 -0.2525 -0.7658  0.4119
  166SAPE    HS18675   3.609   5.439   6.279  0.9702  2.2889  0.8412
  166SAPE   O2118676   3.811   5.455   6.354  0.0901 -0.5856 -0.3184
  166SAPE   C2118677   3.815   5.586   6.363 -0.5675 -0.2616 -0.9747
  166SAPE   O2218678   3.724   5.667   6.332  0.0394  0.1835 -0.3735
  166SAPE   C2218679   3.954   5.631   6.421 -0.6303  0.1589  0.0654
  166SAPE   H2R18680   3.976   5.551   6.495 -3.8975 -3.0189 -2.0961
  166SAPE   H2S18681   4.012   5.645   6.327 -0.9567  1.2730  0.0165
  166SAPE    C318682   3.695   5.246   6.292 -0.5247 -0.4284  0.0126
  166SAPE    HX18683   3.801   5.213   6.297 -0.5767 -0.5125  0.6140
  166SAPE    HY18684   3.648   5.203   6.200 -0.9068 -0.5410  0.2574
  166SAPE   O3118685   3.631   5.201   6.414 -0.4320 -0.5048 -0.0039
  166SAPE   C3118686   3.499   5.205   6.406  0.0907  0.1962  0.6856
  166SAPE   O3218687   3.438   5.238   6.306  0.3443  0.0976 -0.4439
  166SAPE   C3218688   3.431   5.159   6.535  0.3204  0.4261  0.3393
  166SAPE   H2X18689   3.414   5.050   6.521 -2.2747  0.4026  2.7444
  166SAPE   H2Y18690   3.329   5.205   6.532  0.6791  1.1822 -1.4742
  166SAPE   C2318691   3.939   5.763   6.491 -0.2231 -0.4361  0.2223
  166SAPE   H3R18692   3.849   5.757   6.556 -1.4113 -0.5102 -1.3535
  166SAPE   H3S18693   3.915   5.846   6.421 -0.9988  3.1724  4.3161
  166SAPE   C2418694   4.058   5.805   6.574  0.5749 -0.3682  0.7647
  166SAPE   H4R18695   4.140   5.805   6.500 -2.1455  1.3521 -2.5100
  166SAPE   H4S18696   4.059   5.722   6.648 -2.5223 -0.0787  1.2998
  166SAPE   C2518697   4.031   5.940   6.633 -0.1333 -0.1597  0.5997
  166SAPE   H5R18698   4.030   6.016   6.554 -2.3391 -1.4803 -0.7203
  166SAPE   C2618699   4.005   5.965   6.763  0.1238 -0.8827 -0.6891
  166SAPE   H6R18700   3.998   6.068   6.801 -0.6968 -1.5466  1.1278
  166SAPE   C2718701   3.992   5.865   6.873 -1.0532 -0.5642  0.1534
  166SAPE   H7R18702   4.064   5.902   6.949  1.6970 -0.6161 -2.2463
  166SAPE   H7S18703   4.037   5.769   6.839  2.0054  0.5482  0.7393
  166SAPE   C2818704   3.847   5.852   6.911 -0.1321  0.4968 -0.5489
  166SAPE   H8R18705   3.783   5.826   6.825 -0.8894  2.9288 -0.8071
  166SAPE   C2918706   3.789   5.854   7.035 -0.7106 -0.6684 -0.3863
  166SAPE   H9R18707   3.680   5.846   7.043 -1.0282  1.6735 -1.5386
  166SAPE  C21018708   3.868   5.880   7.161  0.4628 -0.0470 -0.4696
  166SAPE  H10R18709   3.967   5.922   7.133 -0.2173  0.5273 -2.1050
  166SAPE  H10S18710   3.881   5.784   7.215 -2.0630  0.2891  0.9333
  166SAPE  C21118711   3.792   5.977   7.255 -0.1787  0.2223 -0.5400
  166SAPE  H11R18712   3.797   6.079   7.212  0.4869  0.5479  0.3047
  166SAPE  C21218713   3.738   5.958   7.374  0.8287 -0.2948 -0.0307
  166SAPE  H12R18714   3.703   6.046   7.429 -0.9668  0.1626 -1.7939
  166SAPE  C21318715   3.733   5.829   7.461 -0.4156  0.2768 -0.1170
  166SAPE  H13R18716   3.700   5.743   7.399 -1.0907  1.3185 -1.2510
  166SAPE  H13S18717   3.656   5.837   7.540  0.5301 -3.5093  1.4035
  166SAPE  C21418718   3.867   5.804   7.533  0.0598 -0.4538  0.0240
  166SAPE  H14R18719   3.943   5.750   7.475  2.0632  1.2475  0.9713
  166SAPE  C21518720   3.882   5.812   7.669 -0.1819  0.0305  0.0025
  166SAPE  H15R18721   3.973   5.770   7.713 -1.0294 -1.7285  0.1589
  166SAPE  C21618722   3.784   5.859   7.773  0.7955 -0.3041 -0.3940
  166SAPE  H16R18723   3.810   5.812   7.871 -1.1407  0.1453  0.3778
  166SAPE  H16S18724   3.678   5.840   7.748  0.5392 -1.0427  1.1272
  166SAPE  C21718725   3.792   6.014   7.798 -0.4481 -0.1309 -0.2357
  166SAPE  H17R18726   3.704   6.057   7.850 -0.4685  1.6853 -1.6661
  166SAPE  H17S18727   3.795   6.069   7.702 -0.0600 -0.1324 -0.2279
  166SAPE  C21818728   3.907   6.054   7.883  0.6076  0.3871 -0.3624
  166SAPE  H18R18729   4.003   6.029   7.832  0.6918 -0.1157  0.0315
  166SAPE  H18S18730   3.903   5.988   7.972 -1.7533  0.6170 -0.2418
  166SAPE  C21918731   3.916   6.198   7.929 -0.6963  0.1060 -0.0229
  166SAPE  H19R18732   3.832   6.228   7.994 -1.5939  0.7828 -1.4569
  166SAPE  H19S18733   3.917   6.256   7.835 -1.5971  0.2841  0.0721
  166SAPE  C22018734   4.059   6.220   7.991  0.1634  0.3048 -0.8172
  166SAPE  H20R18735   4.141   6.198   7.919 -0.7673  0.8420 -2.0743
  166SAPE  H20S18736   4.061   6.164   8.087  1.8165  1.5710 -0.0579
  166SAPE  H20T18737   4.069   6.323   8.032  3.0421 -0.0545 -0.3661
  166SAPE   C3318738   3.509   5.181   6.664  0.2987  0.0716 -0.3907
  166SAPE   H3X18739   3.553   5.282   6.680  0.5516 -0.2237  0.8535
  166SAPE   H3Y18740   3.594   5.113   6.645  0.0318  0.5670 -3.9619
  166SAPE   C3418741   3.440   5.152   6.802  0.6311  0.3704  0.6922
  166SAPE   H4X18742   3.425   5.042   6.803  0.2113  0.4265  1.6895
  166SAPE   H4Y18743   3.349   5.215   6.815 -1.5869 -2.2992 -0.7926
  166SAPE   C3518744   3.543   5.169   6.903 -0.1781 -0.4865 -0.5735
  166SAPE   H5X18745   3.581   5.273   6.910  0.7543 -0.9254  1.4340
  166SAPE   H5Y18746   3.630   5.106   6.876  0.7929 -0.2084  1.7317
  166SAPE   C3618747   3.470   5.135   7.037 -0.2883  0.6540 -0.1588
  166SAPE   H6X18748   3.400   5.050   7.024 -0.8051  0.8564  1.1715
  166SAPE   H6Y18749   3.401   5.219   7.064 -1.0418  0.5167 -1.5296
  166SAPE   C3718750   3.572   5.114   7.144  0.4949 -0.4493  0.0839
  166SAPE   H7X18751   3.648   5.195   7.146  1.8405 -1.6694 -0.3527
  166SAPE   H7Y18752   3.620   5.017   7.121 -1.6894 -1.6023  0.1397
  166SAPE   C3818753   3.513   5.110   7.283  0.4302 -0.4630 -0.2742
  166SAPE   H8X18754   3.431   5.035   7.291  1.1854 -1.1240  2.0334
  166SAPE   H8Y18755   3.468   5.211   7.297  0.5693  0.0233 -2.9256
  166SAPE   C3918756   3.619   5.063   7.384  0.1223 -0.1218 -0.2666
  166SAPE   H9X18757   3.723   5.098   7.370  0.8068 -1.7509  0.5985
  166SAPE   H9Y18758   3.614   4.953   7.367  3.8080 -0.2231 -1.5376
  166SAPE  C31018759   3.585   5.081   7.541 -0.7258 -0.2777  0.2281
  166SAPE  H10X18760   3.491   5.025   7.557 -0.2795 -1.6095 -1.5028
  166SAPE  H10Y18761   3.582   5.191   7.558  0.4134 -0.2960  0.6476
  166SAPE  C31118762   3.689   5.023   7.639 -0.5738  0.6647 -0.3012
  166SAPE  H11X18763   3.789   5.067   7.621 -0.6955  1.8181  1.5774
  166SAPE  H11Y18764   3.685   4.915   7.616  2.3225  0.5095 -0.4363
  166SAPE  C31218765   3.652   5.046   7.784 -0.3802  0.1242  0.3572
  166SAPE  H12X18766   3.616   5.151   7.793  2.6586  1.3902 -0.7726
  166SAPE  H12Y18767   3.744   5.031   7.844 -1.1676  0.5460  1.7031
  166SAPE  C31318768   3.531   4.955   7.818 -0.5407 -0.0021  0.1403
  166SAPE  H13X18769   3.568   4.852   7.796  0.8757  0.4099  0.4697
  166SAPE  H13Y18770   3.440   4.986   7.763 -0.3213  0.7674  0.2006
  166SAPE  C31418771   3.493   4.950   7.967  0.0522  0.0491  0.2429
  166SAPE  H14X18772   3.583   4.933   8.031 -0.0574  0.1455  0.4240
  166SAPE  H14Y18773   3.423   4.865   7.981  1.5338 -0.9073  2.3011
  166SAPE  C31518774   3.423   5.072   8.014  0.7488  0.3675 -0.7620
  166SAPE  H15X18775   3.353   5.100   7.932  0.3551  0.9851 -0.2188
  166SAPE  H15Y18776   3.493   5.158   8.024 -1.4895  2.3636 -1.4820
  166SAPE  C31618777   3.339   5.048   8.144 -0.1950  0.2511 -0.0315
  166SAPE  H16X18778   3.267   4.963   8.146  0.4969 -0.3312  1.8580
  166SAPE  H16Y18779   3.278   5.140   8.160 -1.8211 -0.7753 -0.1310
  166SAPE  C31718780   3.433   5.024   8.261  0.0236 -0.0963 -0.2270
  166SAPE  H17X18781   3.509   5.106   8.264 -0.4594  0.3262  1.6443
  166SAPE  H17Y18782   3.485   4.926   8.251  0.6068  0.3833 -2.7673
  166SAPE  C31818783   3.371   5.041   8.401  0.4780 -0.0869  0.0148
  166SAPE  H18X18784   3.298   5.125   8.397 -1.1626 -1.4810 -0.6056
  166SAPE  H18Y18785   3.451   5.057   8.475  0.3839 -0.8226  0.2878
  166SAPE  H18Z18786   3.314   4.949   8.429 -1.1271  1.0571  0.6659
  167SAPE     N18787   4.794   0.748   6.099 -0.2727 -0.1576  0.0389
  167SAPE   HN118788   4.769   0.720   6.002  1.1949  2.8076 -1.3428
  167SAPE   HN218789   4.790   0.852   6.099  0.8806 -0.1008  0.2454
  167SAPE   HN318790   4.890   0.713   6.119 -0.1160  0.5272  0.5501
  167SAPE   C1218791   4.699   0.685   6.192  0.1476  0.3535 -0.3572
  167SAPE  H12A18792   4.598   0.732   6.184 -0.8495 -1.7014 -0.3378
  167SAPE  H12B18793   4.737   0.702   6.295 -0.2360  1.3909 -0.3742
  167SAPE   C1118794   4.704   0.525   6.181  0.6128 -0.0977 -0.6448
  167SAPE  H11A18795   4.666   0.494   6.081  0.4974 -2.3342  0.0490
  167SAPE  H11B18796   4.634   0.488   6.259  2.8214 -1.9612  0.5641
  167SAPE     P18797   4.888   0.334   6.183  0.1391  0.3768 -0.5213
  167SAPE   O1318798   4.833   0.282   6.058 -0.0313  0.1843 -0.3368
  167SAPE   O1418799   5.035   0.336   6.208  0.3629 -0.2786 -0.0738
  167SAPE   O1218800   4.836   0.481   6.200 -0.2457 -0.0579 -0.6024
  167SAPE   O1118801   4.824   0.256   6.313  0.3313 -0.1304 -0.3598
  167SAPE    C118802   4.814   0.115   6.304 -0.0747 -0.0716 -0.8989
  167SAPE    HA18803   4.712   0.085   6.270 -0.8702  0.7159  0.6877
  167SAPE    HB18804   4.883   0.065   6.232  1.1848  1.1936 -0.6205
  167SAPE    C218805   4.810   0.048   6.444 -0.4583  0.7876 -0.8076
  167SAPE    HS18806   4.893  -0.026   6.453 -1.8123 -0.7408 -0.5764
  167SAPE   O2118807   4.683  -0.023   6.468 -0.5168 -0.3801 -0.1978
  167SAPE   C2118808   4.675  -0.136   6.407  0.1267  0.5079  0.4995
  167SAPE   O2218809   4.758  -0.200   6.344 -0.4846  0.8249 -0.0488
  167SAPE   C2218810   4.537  -0.189   6.437  0.8919 -0.4700  0.3449
  167SAPE   H2R18811   4.494  -0.167   6.537 -0.2801 -3.0905  0.5088
  167SAPE   H2S18812   4.484  -0.139   6.353  0.9607 -0.0726  0.5361
  167SAPE    C318813   4.849   0.149   6.557 -0.6807 -0.7401 -0.3521
  167SAPE    HX18814   4.768   0.223   6.542 -0.3351 -0.0046  1.2507
  167SAPE    HY18815   4.943   0.200   6.528  0.9430 -2.4491  1.5659
  167SAPE   O3118816   4.844   0.104   6.697  0.6002  0.3751  0.1321
  167SAPE   C3118817   4.960   0.047   6.730  1.0360 -0.0817  0.1072
  167SAPE   O3218818   5.053   0.025   6.655  0.5568 -0.2959 -0.2393
  167SAPE   C3218819   4.974   0.024   6.875 -0.0541  0.1142 -0.9738
  167SAPE   H2X18820   5.082   0.002   6.890 -0.6594 -2.6041  0.0573
  167SAPE   H2Y18821   4.914  -0.067   6.899 -0.4259  0.6475  0.1642
  167SAPE   C2318822   4.535  -0.343   6.436 -0.0516 -0.0531  0.4944
  167SAPE   H3R18823   4.569  -0.391   6.342 -1.4425 -2.6000  1.2016
  167SAPE   H3S18824   4.432  -0.385   6.438  1.0343 -2.9894 -0.0276
  167SAPE   C2418825   4.621  -0.410   6.542  0.4456 -0.2023 -0.3566
  167SAPE   H4R18826   4.723  -0.368   6.551  1.0173 -1.0963 -2.1145
  167SAPE   H4S18827   4.642  -0.512   6.502 -0.6067  0.3305 -2.3948
  167SAPE   C2518828   4.537  -0.412   6.668 -0.0786 -0.1132  0.1814
  167SAPE   H5R18829   4.448  -0.476   6.673 -0.5228  0.5541  1.1908
  167SAPE   C2618830   4.544  -0.329   6.771 -0.1809  1.1292 -1.0694
  167SAPE   H6R18831   4.481  -0.347   6.859  0.4233 -2.0458 -1.1615
  167SAPE   C2718832   4.640  -0.210   6.790 -0.6854 -0.0945 -0.1552
  167SAPE   H7R18833   4.656  -0.162   6.691  0.6017 -1.8070 -0.8337
  167SAPE   H7S18834   4.738  -0.246   6.829 -0.4421  1.0197  0.2853
  167SAPE   C2818835   4.596  -0.105   6.888 -0.0432  0.5979 -0.2366
  167SAPE   H8R18836   4.516  -0.033   6.863 -3.0929 -2.6703 -0.8069
  167SAPE   C2918837   4.621  -0.110   7.022  0.4805 -0.3796  0.5305
  167SAPE   H9R18838   4.591  -0.022   7.081 -0.5670  0.8020 -1.6416
  167SAPE  C21018839   4.701  -0.217   7.088 -0.4046  0.1190  0.2608
  167SAPE  H10R18840   4.743  -0.175   7.182  0.1689 -0.4260  0.2539
  167SAPE  H10S18841   4.789  -0.238   7.024 -0.0801 -2.2586  1.3884
  167SAPE  C21118842   4.606  -0.335   7.120 -0.2666 -0.1078 -0.2048
  167SAPE  H11R18843   4.510  -0.316   7.169 -1.8856 -0.7154 -2.9382
  167SAPE  C21218844   4.627  -0.465   7.085  0.1209  0.5594 -0.5450
  167SAPE  H12R18845   4.547  -0.537   7.108  0.8893 -0.9576 -2.3731
  167SAPE  C21318846   4.736  -0.534   7.006 -0.3854  0.8507 -0.4890
  167SAPE  H13R18847   4.811  -0.467   6.959  0.6096 -0.8349 -1.4333
  167SAPE  H13S18848   4.695  -0.587   6.917 -0.3899  1.2047 -0.7006
  167SAPE  C21418849   4.805  -0.637   7.094 -0.1701  0.1558  0.3616
  167SAPE  H14R18850   4.764  -0.738   7.075 -1.4099  0.7690 -0.3668
  167SAPE  C21518851   4.913  -0.623   7.174 -0.2071  0.0557 -0.0101
  167SAPE  H15R18852   4.959  -0.713   7.218  0.3721 -0.3037 -1.2873
  167SAPE  C21618853   4.982  -0.498   7.217 -0.2234 -0.1295  0.0238
  167SAPE  H16R18854   4.940  -0.404   7.175 -0.5026 -0.0210  0.5410
  167SAPE  H16S18855   5.086  -0.504   7.176  0.0768  0.0506  0.7528
  167SAPE  C21718856   4.982  -0.485   7.371  0.5636 -0.0987 -0.3951
  167SAPE  H17R18857   5.069  -0.421   7.397  1.3815 -0.9361 -1.0063
  167SAPE  H17S18858   4.989  -0.587   7.414 -0.4784 -0.1999 -0.4465
  167SAPE  C21818859   4.849  -0.418   7.425 -0.7682  0.1502  0.2329
  167SAPE  H18R18860   4.800  -0.363   7.342 -3.1210 -0.5451  1.0978
  167SAPE  H18S18861   4.879  -0.340   7.499  0.8649  0.9460 -1.1991
  167SAPE  C21918862   4.742  -0.510   7.488  0.7230  0.4263  0.1891
  167SAPE  H19R18863   4.775  -0.579   7.568  0.9378 -1.9764 -1.8705
  167SAPE  H19S18864   4.697  -0.569   7.406  0.1713  0.1830  0.6622
  167SAPE  C22018865   4.630  -0.422   7.534 -0.5745 -1.0790  0.4384
  167SAPE  H20R18866   4.578  -0.477   7.615 -3.4365  2.5305  1.3426
  167SAPE  H20S18867   4.563  -0.398   7.449 -0.1158 -1.6949 -0.1013
  167SAPE  H20T18868   4.677  -0.328   7.571 -1.7760 -0.5832  0.7597
  167SAPE   C3318869   4.933   0.147   6.964 -0.0353  0.2750  0.5875
  167SAPE   H3X18870   4.835   0.113   7.005 -0.5122  0.5106 -0.3429
  167SAPE   H3Y18871   4.921   0.240   6.904 -1.7451 -0.3227 -0.0594
  167SAPE   C3418872   5.027   0.170   7.080 -0.2379  0.0682 -0.3726
  167SAPE   H4X18873   5.132   0.171   7.045  0.1173 -0.5196  0.6276
  167SAPE   H4Y18874   5.017   0.086   7.153  1.4627 -1.1611 -1.5049
  167SAPE   C3518875   4.988   0.296   7.153 -0.3913 -0.4592  0.0636
  167SAPE   H5X18876   4.879   0.291   7.174 -0.6822  0.4008 -1.1196
  167SAPE   H5Y18877   5.000   0.380   7.081  1.0837 -0.3576  0.3948
  167SAPE   C3618878   5.045   0.308   7.291  0.4175 -0.1720  0.3972
  167SAPE   H6X18879   5.151   0.340   7.290 -0.1563  2.0711  2.3443
  167SAPE   H6Y18880   5.029   0.204   7.327  0.4239 -0.2792  0.0916
  167SAPE   C3718881   4.962   0.384   7.399 -0.7953 -0.5517 -0.3882
  167SAPE   H7X18882   4.865   0.329   7.405  0.0927 -2.2805 -1.0803
  167SAPE   H7Y18883   4.943   0.485   7.359  0.1055  0.0887  0.7415
  167SAPE   C3818884   5.022   0.386   7.541  0.0663 -0.0232  0.3903
  167SAPE   H8X18885   4.996   0.283   7.574 -2.8056  0.1352 -1.1085
  167SAPE   H8Y18886   4.973   0.463   7.604 -0.3387 -0.3721  0.5055
  167SAPE   C3918887   5.178   0.406   7.550 -0.6464 -0.1404 -0.4171
  167SAPE   H9X18888   5.209   0.484   7.478 -0.4294  1.6138  1.4683
  167SAPE   H9Y18889   5.228   0.308   7.532  0.7132  0.1816  1.3200
  167SAPE  C31018890   5.217   0.463   7.685 -0.5112  0.2768 -0.3553
  167SAPE  H10X18891   5.319   0.430   7.716  0.2683  2.2286 -0.7105
  167SAPE  H10Y18892   5.150   0.421   7.763  1.2668 -0.5564  0.8023
  167SAPE  C31118893   5.212   0.616   7.692  0.3025 -0.7961 -0.4649
  167SAPE  H11X18894   5.111   0.643   7.655  0.5941 -2.1034 -2.4090
  167SAPE  H11Y18895   5.281   0.665   7.621  0.8488 -2.0348 -0.8266
  167SAPE  C31218896   5.227   0.653   7.840 -1.2550 -0.2308 -0.0531
  167SAPE  H12X18897   5.328   0.617   7.870 -0.3734  2.4801  0.5203
  167SAPE  H12Y18898   5.141   0.603   7.890 -0.8656  0.5224  1.4437
  167SAPE  C31318899   5.217   0.802   7.865  0.5336 -0.2166 -0.3410
  167SAPE  H13X18900   5.108   0.821   7.853  0.8022  1.4091 -0.4876
  167SAPE  H13Y18901   5.260   0.855   7.777 -0.3701 -0.6429 -1.0507
  167SAPE  C31418902   5.286   0.858   7.993  0.6174  0.0233  0.6733
  167SAPE  H14X18903   5.260   0.966   7.998 -1.0481 -0.3807  1.4097
  167SAPE  H14Y18904   5.397   0.849   7.994  0.7929  1.2513 -1.3213
  167SAPE  C31518905   5.242   0.782   8.116  0.5118 -0.0037 -0.5172
  167SAPE  H15X18906   5.283   0.679   8.107  0.9821  0.2753 -1.6604
  167SAPE  H15Y18907   5.133   0.769   8.098  0.7826 -0.1261 -2.2430
  167SAPE  C31618908   5.265   0.843   8.249 -0.8610 -0.5972  0.4351
  167SAPE  H16X18909   5.191   0.926   8.257 -2.6763 -2.1382  0.6114
  167SAPE  H16Y18910   5.365   0.890   8.261 -1.0934 -0.3226  1.4985
  167SAPE  C31718911   5.246   0.751   8.372  0.5242 -0.7656  0.0529
  167SAPE  H17X18912   5.253   0.827   8.452 -1.4836  0.0153 -0.4538
  167SAPE  H17Y18913   5.326   0.674   8.378  1.1912 -0.0887 -0.0174
  167SAPE  C31818914   5.108   0.673   8.382 -0.2124 -1.0234  0.7651
  167SAPE  H18X18915   5.111   0.625   8.482 -0.1640  2.0970  2.4004
  167SAPE  H18Y18916   5.099   0.605   8.295  0.7587  0.1270 -0.2750
  167SAPE  H18Z18917   5.025   0.747   8.380 -0.0594 -0.8742 -0.1750
  168SAPE     N18918   6.233   0.571   5.831 -0.1785  0.3613 -0.4963
  168SAPE   HN118919   6.256   0.579   5.729 -1.6848 -2.0466 -1.1003
  168SAPE   HN218920   6.170   0.488   5.831  1.3241 -0.8084 -1.0773
  168SAPE   HN318921   6.174   0.651   5.862 -3.3325 -1.8377 -0.2913
  168SAPE   C1218922   6.353   0.548   5.912 -0.1328 -0.3799  0.0183
  168SAPE  H12A18923   6.398   0.647   5.936 -2.1978  1.0501 -1.6824
  168SAPE  H12B18924   6.424   0.497   5.843 -0.2734  0.4341 -0.7500
  168SAPE   C1118925   6.322   0.456   6.027 -0.4834 -0.4324 -0.1311
  168SAPE  H11A18926   6.408   0.430   6.093 -0.5164 -1.0474 -0.3213
  168SAPE  H11B18927   6.288   0.361   5.980 -2.8066 -0.9264  2.3403
  168SAPE     P18928   6.245   0.618   6.219 -0.0107  0.2154 -0.0479
  168SAPE   O1318929   6.356   0.702   6.176 -0.8221 -0.0061  0.3065
  168SAPE   O1418930   6.118   0.689   6.250  0.1468  0.0551 -0.1399
  168SAPE   O1218931   6.208   0.514   6.098  0.2533  0.3107  0.5018
  168SAPE   O1118932   6.289   0.529   6.339  0.0167  1.1170 -0.4517
  168SAPE    C118933   6.356   0.595   6.441  0.5184 -0.2336 -0.3379
  168SAPE    HA18934   6.463   0.608   6.418  0.3334  1.5498 -0.2872
  168SAPE    HB18935   6.297   0.684   6.472 -1.4795 -1.5952  0.0118
  168SAPE    C218936   6.349   0.516   6.581  0.4703 -0.4223  0.3998
  168SAPE    HS18937   6.319   0.592   6.656  1.7624 -0.8090  1.3437
  168SAPE   O2118938   6.484   0.458   6.608  0.3848 -0.5289 -0.1664
  168SAPE   C2118939   6.523   0.466   6.733  1.0777 -0.0515  0.5625
  168SAPE   O2218940   6.471   0.524   6.829  0.3722  0.3525 -0.1239
  168SAPE   C2218941   6.654   0.406   6.752 -0.4292  0.6184 -0.6167
  168SAPE   H2R18942   6.699   0.351   6.666 -0.4117 -1.7301  0.8140
  168SAPE   H2S18943   6.729   0.486   6.771 -0.4893  0.3666  0.7762
  168SAPE    C318944   6.241   0.407   6.589 -0.2144  0.0147  0.0063
  168SAPE    HX18945   6.252   0.315   6.527 -3.3999 -1.5179  1.5194
  168SAPE    HY18946   6.147   0.450   6.547  0.3829  0.5245 -0.8580
  168SAPE   O3118947   6.226   0.358   6.722  0.3129  0.3127  0.3400
  168SAPE   C3118948   6.163   0.428   6.812 -0.5854 -0.0698  0.1630
  168SAPE   O3218949   6.119   0.542   6.793 -0.8135  0.3932 -0.0586
  168SAPE   C3218950   6.171   0.351   6.953 -0.4376  0.4131  0.4133
  168SAPE   H2X18951   6.260   0.384   7.010 -0.3398 -1.1181  1.2051
  168SAPE   H2Y18952   6.185   0.243   6.935 -1.8830  0.4049 -0.8892
  168SAPE   C2318953   6.667   0.317   6.880 -0.1863 -0.0939  0.1500
  168SAPE   H3R18954   6.622   0.362   6.971  0.3809 -1.0016  0.9035
  168SAPE   H3S18955   6.775   0.310   6.905 -0.2694 -0.3801  0.4385
  168SAPE   C2418956   6.606   0.178   6.876  0.1074 -0.4035  0.0469
  168SAPE   H4R18957   6.611   0.140   6.772 -1.3146  4.5922 -2.1153
  168SAPE   H4S18958   6.497   0.188   6.895  0.4733  2.5541  1.0982
  168SAPE   C2518959   6.673   0.092   6.979 -0.4302  0.0912 -0.0383
  168SAPE   H5R18960   6.767   0.050   6.942  0.6660  1.0201  1.5515
  168SAPE   C2618961   6.638   0.072   7.108 -0.4834 -0.3591 -0.4314
  168SAPE   H6R18962   6.716   0.028   7.172  0.4624  0.4068 -1.0234
  168SAPE   C2718963   6.525   0.127   7.191 -0.3907 -0.7221  0.2056
  168SAPE   H7R18964   6.436   0.147   7.128  1.6343  1.3880 -2.2411
  168SAPE   H7S18965   6.556   0.221   7.243 -0.0647 -0.4731 -0.4294
  168SAPE   C2818966   6.484   0.027   7.294 -0.0230 -0.3793 -0.1458
  168SAPE   H8R18967   6.439  -0.063   7.249  0.0653  0.8757 -2.9558
  168SAPE   C2918968   6.524   0.038   7.424  0.9843 -0.3609  0.3966
  168SAPE   H9R18969   6.481  -0.030   7.499  0.4616  0.3418  0.7453
  168SAPE  C21018970   6.593   0.155   7.488  0.4675 -0.8010  0.6557
  168SAPE  H10R18971   6.695   0.169   7.445 -1.0898 -1.8188 -3.9574
  168SAPE  H10S18972   6.621   0.113   7.587  0.2322 -2.0360  0.2139
  168SAPE  C21118973   6.511   0.283   7.506 -0.5337 -0.3566 -0.5354
  168SAPE  H11R18974   6.418   0.266   7.563 -0.0277  0.8615  0.7043
  168SAPE  C21218975   6.541   0.416   7.484  0.5497  0.8124 -0.4035
  168SAPE  H12R18976   6.469   0.495   7.514  2.2025  2.6557 -1.0717
  168SAPE  C21318977   6.672   0.471   7.435 -0.3535 -0.3695  0.0485
  168SAPE  H13R18978   6.686   0.495   7.327 -1.4476 -0.3574 -0.0999
  168SAPE  H13S18979   6.750   0.398   7.465  1.2086  0.7691 -1.0553
  168SAPE  C21418980   6.686   0.603   7.501 -0.9249 -0.0347 -0.1872
  168SAPE  H14R18981   6.602   0.671   7.478  0.1036  0.4236 -2.9960
  168SAPE  C21518982   6.800   0.664   7.547  0.2490  0.6418  0.4692
  168SAPE  H15R18983   6.791   0.760   7.601 -1.0368  2.4793 -2.7800
  168SAPE  C21618984   6.938   0.600   7.553  0.5283 -0.2918 -0.5093
  168SAPE  H16R18985   7.009   0.678   7.518  0.1651  0.9442  1.3261
  168SAPE  H16S18986   6.938   0.505   7.496 -4.7272  0.5885 -2.5407
  168SAPE  C21718987   6.970   0.542   7.693 -0.1280 -0.3776  0.1543
  168SAPE  H17R18988   7.058   0.474   7.691 -0.4714 -0.9444  2.1235
  168SAPE  H17S18989   6.886   0.473   7.717 -0.8492  0.4427  0.0536
  168SAPE  C21818990   6.977   0.645   7.806  0.2239 -0.3074 -0.3059
  168SAPE  H18R18991   6.973   0.604   7.909 -1.5414 -0.7676 -0.5209
  168SAPE  H18S18992   6.886   0.710   7.801  1.3173  1.2524 -0.8542
  168SAPE  C21918993   7.098   0.729   7.799 -0.4173 -0.8776 -0.0160
  168SAPE  H19R18994   7.109   0.782   7.702  0.2810 -1.2022 -0.1236
  168SAPE  H19S18995   7.186   0.661   7.809  1.1561  0.9640 -0.7279
  168SAPE  C22018996   7.111   0.831   7.915 -0.1038 -0.2664  0.2731
  168SAPE  H20R18997   7.133   0.780   8.011 -0.0268 -1.8033 -0.5325
  168SAPE  H20S18998   7.018   0.889   7.936 -0.2975 -1.0525  1.7142
  168SAPE  H20T18999   7.192   0.905   7.899  0.0298 -0.3385  0.6233
  168SAPE   C3319000   6.054   0.370   7.046  0.1215 -0.5564  0.2344
  168SAPE   H3X19001   5.963   0.320   7.007 -0.1830  0.7466 -0.8174
  168SAPE   H3Y19002   6.027   0.478   7.041 -1.8426 -0.9387  1.3784
  168SAPE   C3419003   6.075   0.336   7.198  0.1629  0.1270  0.3916
  168SAPE   H4X19004   6.181   0.307   7.216  0.0168 -2.6481 -2.3881
  168SAPE   H4Y19005   6.015   0.245   7.219 -0.0949  0.5099  1.3774
  168SAPE   C3519006   6.048   0.449   7.299  0.0802 -0.3511  0.8222
  168SAPE   H5X19007   5.944   0.481   7.277  0.2490 -0.7353 -0.6270
  168SAPE   H5Y19008   6.114   0.536   7.281  1.6059 -1.5277  0.5761
  168SAPE   C3619009   6.066   0.412   7.452 -0.3104  1.2450  0.2260
  168SAPE   H6X19010   6.166   0.368   7.472 -0.7511 -0.1866 -0.5436
  168SAPE   H6Y19011   5.998   0.324   7.464  3.1595 -1.2941  3.4937
  168SAPE   C3719012   6.040   0.518   7.558  0.1274 -0.2278  0.4075
  168SAPE   H7X19013   5.930   0.532   7.556 -0.1426 -2.0921 -1.3966
  168SAPE   H7Y19014   6.095   0.604   7.517  0.8383 -1.6610 -1.8168
  168SAPE   C3819015   6.070   0.473   7.700 -0.4564  0.2269  0.2332
  168SAPE   H8X19016   6.043   0.365   7.700 -0.1599  0.1508  0.5408
  168SAPE   H8Y19017   5.997   0.511   7.774 -0.5158 -1.5811  1.1705
  168SAPE   C3919018   6.221   0.482   7.739 -0.4847 -0.5829 -0.1034
  168SAPE   H9X19019   6.278   0.435   7.656  1.4065 -3.3035  2.4878
  168SAPE   H9Y19020   6.244   0.425   7.832  0.9749 -2.3098 -1.4528
  168SAPE  C31019021   6.270   0.627   7.764 -0.3914 -0.1457 -0.1838
  168SAPE  H10X19022   6.204   0.652   7.850 -1.1580 -2.1868 -0.1219
  168SAPE  H10Y19023   6.240   0.698   7.684 -0.0395  0.3660  0.1243
  168SAPE  C31119024   6.422   0.644   7.811 -0.1402 -0.3101 -0.1706
  168SAPE  H11X19025   6.439   0.749   7.842 -0.2192  0.9996 -3.9555
  168SAPE  H11Y19026   6.486   0.637   7.720  1.3428  1.3128  0.6980
  168SAPE  C31219027   6.476   0.540   7.913  1.1384 -0.0600  0.7456
  168SAPE  H12X19028   6.484   0.440   7.866 -1.8581 -0.1859  0.2646
  168SAPE  H12Y19029   6.403   0.525   7.996  3.3418 -0.3039  2.7294
  168SAPE  C31319030   6.605   0.593   7.973 -0.2200  0.3853 -0.2002
  168SAPE  H13X19031   6.571   0.668   8.047  0.3640  0.1283  0.3292
  168SAPE  H13Y19032   6.672   0.648   7.904  0.5262 -2.6273 -2.0735
  168SAPE  C31419033   6.681   0.482   8.049 -0.5183 -0.3269  0.0447
  168SAPE  H14X19034   6.722   0.416   7.969  2.4738  0.1431  1.0767
  168SAPE  H14Y19035   6.610   0.423   8.109  0.1358 -0.6568  0.4978
  168SAPE  C31519036   6.799   0.528   8.134 -0.0467  0.1409  0.0306
  168SAPE  H15X19037   6.749   0.564   8.227 -2.0257 -1.4792 -0.3436
  168SAPE  H15Y19038   6.857   0.602   8.075  0.5811 -2.1319 -2.3898
  168SAPE  C31619039   6.891   0.411   8.167 -0.2768  0.2883  0.5053
  168SAPE  H16X19040   6.938   0.380   8.070  4.4018  2.9834  1.6053
  168SAPE  H16Y19041   6.843   0.319   8.206  0.4609 -1.1914 -1.8477
  168SAPE  C31719042   7.003   0.437   8.268  0.8479 -0.1415  0.0226
  168SAPE  H17X19043   7.049   0.340   8.297  1.0077  0.8012  3.2890
  168SAPE  H17Y19044   6.957   0.468   8.364 -1.7109 -3.6038  0.1340
  168SAPE  C31819045   7.106   0.536   8.218  0.0832 -0.1095  0.4742
  168SAPE  H18X19046   7.202   0.522   8.271  0.9343  0.2929 -0.9250
  168SAPE  H18Y19047   7.071   0.641   8.223  2.2307  0.6958 -0.2994
  168SAPE  H18Z19048   7.127   0.517   8.111 -0.5290 -0.2331  0.3703
  169SAPE     N19049   5.895   3.891   6.176 -0.5054  0.5812  0.4699
  169SAPE   HN119050   5.986   3.914   6.222 -0.2645 -0.4598  0.5312
  169SAPE   HN219051   5.895   3.793   6.143 -0.8746  1.4538 -2.4261
  169SAPE   HN319052   5.895   3.952   6.092  0.8360 -0.8796 -0.6463
  169SAPE   C1219053   5.785   3.918   6.282  0.0354  0.1811  0.8806
  169SAPE  H12A19054   5.688   3.933   6.230  1.2002 -0.5967 -1.6631
  169SAPE  H12B19055   5.804   4.019   6.324 -0.1225  1.0513 -1.0051
  169SAPE   C1119056   5.774   3.810   6.395  0.4445 -0.5584  0.4382
  169SAPE  H11A19057   5.685   3.832   6.457  0.9787  1.2152  0.6570
  169SAPE  H11B19058   5.863   3.823   6.460  0.9719 -2.5122  0.1649
  169SAPE     P19059   5.648   3.618   6.266  0.4103 -0.0669  0.0408
  169SAPE   O1319060   5.583   3.703   6.168  0.2096 -0.1102 -0.0499
  169SAPE   O1419061   5.672   3.479   6.222  0.2203 -0.1783 -0.4311
  169SAPE   O1219062   5.772   3.685   6.330 -0.1481  0.8351  0.5095
  169SAPE   O1119063   5.551   3.621   6.399 -0.9860 -0.1032  0.5421
  169SAPE    C119064   5.605   3.559   6.518 -0.1365  0.2456  0.3834
  169SAPE    HA19065   5.707   3.517   6.503  1.2814  2.8103  2.1760
  169SAPE    HB19066   5.616   3.637   6.596  0.9028  0.8735 -0.3515
  169SAPE    C219067   5.516   3.461   6.583 -0.3872 -0.7728  0.5909
  169SAPE    HS19068   5.487   3.382   6.510  0.2561 -0.7446  0.3013
  169SAPE   O2119069   5.407   3.546   6.622  0.0106 -0.0519  0.2087
  169SAPE   C2119070   5.287   3.505   6.608 -0.1093  0.2488  0.4805
  169SAPE   O2219071   5.254   3.388   6.590 -0.0174 -0.3399 -0.3290
  169SAPE   C2219072   5.196   3.617   6.643  0.1433 -0.2119 -0.7083
  169SAPE   H2R19073   5.203   3.709   6.580 -0.0670  0.0852 -0.3047
  169SAPE   H2S19074   5.097   3.571   6.622 -0.1925  0.4431 -0.6099
  169SAPE    C319075   5.562   3.400   6.719  0.2697 -0.3402  0.7270
  169SAPE    HX19076   5.625   3.309   6.710 -1.4196 -1.5960  0.9787
  169SAPE    HY19077   5.468   3.360   6.763 -0.9860  0.7478 -0.8559
  169SAPE   O3119078   5.617   3.503   6.812 -0.0031 -0.6069  0.3625
  169SAPE   C3119079   5.756   3.498   6.828 -0.2965 -0.1501 -0.5327
  169SAPE   O3219080   5.831   3.437   6.756  0.2602 -0.0071 -0.3055
  169SAPE   C3219081   5.807   3.572   6.951 -0.3063 -0.0137  0.3528
  169SAPE   H2X19082   5.757   3.671   6.943  0.2849  0.2097 -0.9044
  169SAPE   H2Y19083   5.915   3.587   6.928  0.0917 -0.7809  1.6101
  169SAPE   C2319084   5.191   3.646   6.797 -0.3744  0.2880 -0.5735
  169SAPE   H3R19085   5.297   3.668   6.821 -0.2562  0.0506 -0.8746
  169SAPE   H3S19086   5.167   3.549   6.845 -1.0066 -0.4696 -2.3346
  169SAPE   C2419087   5.110   3.766   6.842 -0.2264  0.3272  0.1147
  169SAPE   H4R19088   5.122   3.838   6.758  1.0847  2.1681  1.8125
  169SAPE   H4S19089   5.162   3.820   6.923 -0.0812  3.0651 -1.6478
  169SAPE   C2519090   4.970   3.738   6.882 -0.6802 -0.3470  0.5243
  169SAPE   H5R19091   4.898   3.717   6.801  0.5314 -0.3284 -0.5918
  169SAPE   C2619092   4.914   3.745   7.009 -0.4112 -0.2000  0.1953
  169SAPE   H6R19093   4.807   3.722   7.018 -0.6963 -0.2051 -2.4902
  169SAPE   C2719094   4.992   3.791   7.128  0.4517 -0.4233  0.2669
  169SAPE   H7R19095   4.934   3.866   7.186  1.6712  1.8986 -1.3181
  169SAPE   H7S19096   5.086   3.850   7.119 -0.5286  1.3705  1.2120
  169SAPE   C2819097   5.019   3.672   7.214 -0.7576 -0.4037  0.4072
  169SAPE   H8R19098   5.064   3.584   7.166  0.3176  1.0719 -1.3860
  169SAPE   C2919099   5.000   3.662   7.346 -0.0362 -0.8529  0.3713
  169SAPE   H9R19100   5.009   3.559   7.386 -0.7947 -0.5045  1.4937
  169SAPE  C21019101   4.936   3.767   7.436 -0.0619  0.1766  0.5561
  169SAPE  H10R19102   4.914   3.708   7.527 -2.4795  1.2994  0.7825
  169SAPE  H10S19103   4.833   3.800   7.409 -0.6466 -1.9107  0.0763
  169SAPE  C21119104   5.025   3.881   7.472 -0.1841 -0.4073 -0.1435
  169SAPE  H11R19105   5.033   3.953   7.389 -1.2212 -0.6751 -0.4870
  169SAPE  C21219106   5.092   3.907   7.581  0.7320  0.7484 -0.7943
  169SAPE  H12R19107   5.157   3.996   7.584  0.8192  0.7047 -1.3975
  169SAPE  C21319108   5.095   3.818   7.703 -0.2240 -0.1724  0.4446
  169SAPE  H13R19109   5.181   3.844   7.769 -0.6098  0.3337  0.7535
  169SAPE  H13S19110   5.101   3.714   7.664 -1.9439  0.4031 -1.5618
  169SAPE  C21419111   4.966   3.816   7.782 -0.4511  0.2513 -0.5398
  169SAPE  H14R19112   4.907   3.906   7.759  0.9979  1.4339  0.1444
  169SAPE  C21519113   4.928   3.727   7.886 -1.0443 -0.5549  0.9000
  169SAPE  H15R19114   4.836   3.761   7.935 -2.8654 -1.5743 -1.6254
  169SAPE  C21619115   5.018   3.615   7.936  0.4381 -0.1770  0.1394
  169SAPE  H16R19116   5.127   3.624   7.919  0.9612  1.1517  3.5679
  169SAPE  H16S19117   4.989   3.527   7.873  0.1671 -0.7308  1.0226
  169SAPE  C21719118   4.984   3.578   8.078  0.1032  0.2330  0.2832
  169SAPE  H17R19119   5.052   3.500   8.119  1.4427  1.2955  0.1643
  169SAPE  H17S19120   4.879   3.543   8.084 -0.8068  1.6859 -3.6755
  169SAPE  C21819121   4.993   3.692   8.173  0.5737 -1.0659  0.2129
  169SAPE  H18R19122   4.894   3.743   8.171  0.7651 -0.5138  2.4009
  169SAPE  H18S19123   5.071   3.760   8.133 -0.0422 -0.0836  0.6233
  169SAPE  C21919124   5.031   3.669   8.314 -1.0024  0.1926 -0.8453
  169SAPE  H19R19125   5.125   3.610   8.315  0.4263  2.3337 -0.6904
  169SAPE  H19S19126   4.951   3.606   8.358  0.5344 -1.5966 -0.5162
  169SAPE  C22019127   5.045   3.796   8.405 -0.0865  0.5320  0.1193
  169SAPE  H20R19128   5.057   3.771   8.513 -4.0571  1.7628  1.0210
  169SAPE  H20S19129   4.958   3.864   8.392  0.6448  1.7228  1.0800
  169SAPE  H20T19130   5.136   3.857   8.385 -0.0348  0.7853  1.0729
  169SAPE   C3319131   5.790   3.515   7.090  0.4709 -0.2568  0.2380
  169SAPE   H3X19132   5.864   3.436   7.115 -0.9502 -1.0107  2.3158
  169SAPE   H3Y19133   5.690   3.467   7.097 -0.5811  1.7648 -0.2854
  169SAPE   C3419134   5.808   3.620   7.196  0.2173 -0.4140 -0.1190
  169SAPE   H4X19135   5.750   3.713   7.178  1.7227  0.5326 -0.1662
  169SAPE   H4Y19136   5.912   3.657   7.196 -0.3072  1.1257  0.4196
  169SAPE   C3519137   5.782   3.561   7.339 -0.6084 -0.2104 -0.0243
  169SAPE   H5X19138   5.859   3.481   7.347  2.1535  2.2002 -0.8975
  169SAPE   H5Y19139   5.685   3.508   7.351  0.6561 -2.1660  2.7916
  169SAPE   C3619140   5.810   3.657   7.456 -0.0671 -0.4797  0.0415
  169SAPE   H6X19141   5.770   3.758   7.436 -0.1770 -0.2669  1.2832
  169SAPE   H6Y19142   5.918   3.677   7.471  0.3423 -1.6137 -1.1802
  169SAPE   C3719143   5.756   3.609   7.590  0.4579  0.5377  0.9860
  169SAPE   H7X19144   5.803   3.510   7.611  0.4159  0.9311  3.2320
  169SAPE   H7Y19145   5.651   3.582   7.568  0.5427  0.6691  0.4032
  169SAPE   C3819146   5.761   3.701   7.708 -0.3112 -0.2150 -0.1676
  169SAPE   H8X19147   5.714   3.795   7.672 -0.2683 -0.7588 -1.7009
  169SAPE   H8Y19148   5.865   3.726   7.738  0.1828 -1.8940 -0.4142
  169SAPE   C3919149   5.685   3.650   7.830 -0.4521  0.0851  0.1899
  169SAPE   H9X19150   5.595   3.595   7.795  0.3706 -1.6955  0.7880
  169SAPE   H9Y19151   5.648   3.740   7.884 -0.0319  1.7856 -2.1750
  169SAPE  C31019152   5.764   3.550   7.919 -0.1103  0.2950  0.9312
  169SAPE  H10X19153   5.854   3.604   7.955  0.6150  0.0873 -0.5010
  169SAPE  H10Y19154   5.785   3.456   7.862 -2.9422  0.8027 -1.1896
  169SAPE  C31119155   5.687   3.500   8.042 -0.4849 -0.6923  0.0354
  169SAPE  H11X19156   5.590   3.452   8.016 -0.9545 -0.8703  1.9110
  169SAPE  H11Y19157   5.668   3.594   8.098  0.6287  1.4736 -2.9845
  169SAPE  C31219158   5.761   3.395   8.122 -0.3422  0.3686 -0.3463
  169SAPE  H12X19159   5.717   3.360   8.218  0.7562 -0.7801 -0.2325
  169SAPE  H12Y19160   5.851   3.448   8.159  1.6370 -0.4989 -3.5352
  169SAPE  C31319161   5.817   3.266   8.054 -0.1906 -1.1376 -0.3168
  169SAPE  H13X19162   5.864   3.298   7.959 -0.4527  0.2797  0.0100
  169SAPE  H13Y19163   5.731   3.203   8.024  0.3026 -1.7898 -0.3733
  169SAPE  C31419164   5.903   3.176   8.134 -0.4250  0.4515 -0.9125
  169SAPE  H14X19165   5.980   3.249   8.168 -1.6192  2.5568 -2.5020
  169SAPE  H14Y19166   5.948   3.100   8.068 -0.4410 -1.9333  1.6460
  169SAPE  C31519167   5.829   3.108   8.246  0.2774 -0.5237  0.3802
  169SAPE  H15X19168   5.749   3.046   8.201 -1.2515  1.4126  0.2929
  169SAPE  H15Y19169   5.784   3.188   8.309  1.6161 -0.0813  0.8035
  169SAPE  C31619170   5.916   3.029   8.340 -0.4699 -0.7686 -0.1243
  169SAPE  H16X19171   6.005   3.093   8.356 -0.9178  0.1897 -1.2560
  169SAPE  H16Y19172   5.948   2.937   8.287  1.1746  0.7405 -1.9354
  169SAPE  C31719173   5.852   2.993   8.474  0.1685  0.6999 -0.4549
  169SAPE  H17X19174   5.838   3.083   8.537 -0.2153  1.0762 -1.0671
  169SAPE  H17Y19175   5.922   2.921   8.522 -1.2177 -3.0644 -3.5085
  169SAPE  C31819176   5.705   2.939   8.463 -0.2481 -0.1355  0.6483
  169SAPE  H18X19177   5.684   2.905   8.567 -1.8771  3.1697  1.5787
  169SAPE  H18Y19178   5.707   2.860   8.386 -3.2929  0.8866 -0.6644
  169SAPE  H18Z19179   5.631   3.020   8.440  0.0699 -0.4269 -1.5697
  170SAPE     N19180   6.142   0.101   5.843 -0.2752 -0.0666 -0.2351
  170SAPE   HN119181   6.244   0.089   5.861  0.2213  2.7479 -0.8430
  170SAPE   HN219182   6.120   0.068   5.747 -0.4153 -1.9750  0.4063
  170SAPE   HN319183   6.129   0.203   5.856  0.1055 -0.2353  1.7834
  170SAPE   C1219184   6.051   0.026   5.938 -0.1914  0.5805 -0.1124
  170SAPE  H12A19185   5.949   0.028   5.893  0.8967  1.5659 -2.7088
  170SAPE  H12B19186   6.057   0.090   6.028 -1.2116 -0.3817  0.6732
  170SAPE   C1119187   6.089  -0.119   5.961 -0.2523 -0.2971 -0.3401
  170SAPE  H11A19188   6.052  -0.179   5.875 -0.7220  0.6570 -0.8221
  170SAPE  H11B19189   6.032  -0.136   6.054  0.6312  0.7839  0.4213
  170SAPE     P19190   6.286  -0.271   6.047  0.2137 -0.1526  0.1703
  170SAPE   O1319191   6.216  -0.392   6.007 -0.6360  0.5081 -0.3196
  170SAPE   O1419192   6.434  -0.267   6.051  0.6329 -0.2140  0.4205
  170SAPE   O1219193   6.232  -0.142   5.966  0.2064  0.6209  0.3727
  170SAPE   O1119194   6.234  -0.238   6.191  0.2530  0.0122  0.1929
  170SAPE    C119195   6.277  -0.126   6.265 -0.6640 -0.6852  0.4845
  170SAPE    HA19196   6.301  -0.035   6.207 -3.0174 -0.6254 -0.5124
  170SAPE    HB19197   6.187  -0.106   6.328  1.0304  0.4861  2.6661
  170SAPE    C219198   6.392  -0.143   6.362 -0.3866  0.7644 -0.7768
  170SAPE    HS19199   6.472  -0.185   6.297  1.8258  2.1584  0.8958
  170SAPE   O2119200   6.345  -0.227   6.472  0.6436 -0.4972 -0.4020
  170SAPE   C2119201   6.432  -0.305   6.528 -0.0114  0.4840  0.7727
  170SAPE   O2219202   6.551  -0.321   6.484  0.2830  0.1103 -0.3348
  170SAPE   C2219203   6.368  -0.382   6.649  0.1832 -0.0272  0.0755
  170SAPE   H2R19204   6.257  -0.374   6.654 -0.1115 -1.7458 -2.0720
  170SAPE   H2S19205   6.390  -0.487   6.621 -1.1501 -0.6088  1.1226
  170SAPE    C319206   6.436  -0.008   6.418 -1.5412  0.2199 -0.1926
  170SAPE    HX19207   6.342   0.023   6.467 -1.6604 -1.1278  0.4728
  170SAPE    HY19208   6.464   0.062   6.336  1.6923 -0.1176  0.4666
  170SAPE   O3119209   6.535  -0.025   6.525  0.4618 -0.4696  0.5227
  170SAPE   C3119210   6.669  -0.032   6.488 -0.3397  0.6622  0.0622
  170SAPE   O3219211   6.710  -0.007   6.377  0.5322 -0.1638  0.4372
  170SAPE   C3219212   6.755  -0.076   6.606  0.1662  0.3065  0.7915
  170SAPE   H2X19213   6.757  -0.186   6.594 -0.5578  0.5454 -2.5133
  170SAPE   H2Y19214   6.710  -0.034   6.699 -1.3076  1.2614 -0.3063
  170SAPE   C2319215   6.431  -0.346   6.784  0.3981  0.1580 -0.4935
  170SAPE   H3R19216   6.412  -0.240   6.812 -0.1564  0.1315 -0.7506
  170SAPE   H3S19217   6.540  -0.339   6.762  0.1140  2.1418 -1.5118
  170SAPE   C2419218   6.387  -0.443   6.899 -0.3998 -0.3910  0.1610
  170SAPE   H4R19219   6.303  -0.500   6.855 -0.2165  0.7922 -1.8573
  170SAPE   H4S19220   6.352  -0.379   6.982 -2.4144 -2.4027  0.9480
  170SAPE   C2519221   6.480  -0.547   6.945 -0.2280 -0.0252 -0.3477
  170SAPE   H5R19222   6.530  -0.594   6.859 -2.6171 -1.1371 -1.2311
  170SAPE   C2619223   6.502  -0.595   7.069 -0.5220  0.3360  0.1997
  170SAPE   H6R19224   6.565  -0.685   7.073  3.6663  3.0291  0.8058
  170SAPE   C2719225   6.435  -0.554   7.202 -0.2769  0.9331 -0.1127
  170SAPE   H7R19226   6.475  -0.612   7.288 -0.0003  1.9436  0.4641
  170SAPE   H7S19227   6.334  -0.600   7.192 -0.1983  1.0802 -1.8672
  170SAPE   C2819228   6.439  -0.411   7.249 -0.0215 -0.1740  0.5519
  170SAPE   H8R19229   6.481  -0.338   7.178  1.0882 -1.3764 -0.0754
  170SAPE   C2919230   6.407  -0.362   7.370  0.5194 -0.1397 -0.5207
  170SAPE   H9R19231   6.414  -0.257   7.404 -0.2319 -0.7920  1.8052
  170SAPE  C21019232   6.360  -0.451   7.485 -0.1278  0.3082  0.2749
  170SAPE  H10R19233   6.301  -0.533   7.438  2.4030 -0.7264 -1.3070
  170SAPE  H10S19234   6.282  -0.395   7.541  0.1282  1.0155 -0.0674
  170SAPE  C21119235   6.461  -0.521   7.570  0.7370  0.1021 -0.4203
  170SAPE  H11R19236   6.498  -0.616   7.529  0.5282 -1.1997  2.2231
  170SAPE  C21219237   6.523  -0.466   7.676 -0.3922  0.4042  0.6438
  170SAPE  H12R19238   6.603  -0.520   7.729  1.2668  2.2600  0.1463
  170SAPE  C21319239   6.501  -0.325   7.732  0.1313  0.2065  0.2082
  170SAPE  H13R19240   6.503  -0.259   7.643  3.5326  0.3876  0.2636
  170SAPE  H13S19241   6.598  -0.296   7.779  0.5245 -1.0905  0.2583
  170SAPE  C21419242   6.382  -0.301   7.820 -0.6445  0.3822 -0.5383
  170SAPE  H14R19243   6.299  -0.253   7.766  1.6168  2.2708 -2.5883
  170SAPE  C21519244   6.362  -0.336   7.943  0.0574 -0.1257  0.7065
  170SAPE  H15R19245   6.267  -0.309   7.993  0.2200  1.7252  0.0818
  170SAPE  C21619246   6.468  -0.407   8.023 -0.1068 -0.1532 -0.2413
  170SAPE  H16R19247   6.553  -0.445   7.963  0.9702  0.2261  1.0167
  170SAPE  H16S19248   6.427  -0.504   8.058  0.0454 -0.6952 -1.5013
  170SAPE  C21719249   6.521  -0.334   8.154  0.5418  0.6059 -0.1059
  170SAPE  H17R19250   6.512  -0.224   8.143 -0.6855  0.6249  0.7732
  170SAPE  H17S19251   6.626  -0.356   8.180  0.6063 -1.1938 -1.7090
  170SAPE  C21819252   6.436  -0.379   8.278 -0.7064 -0.0249 -0.1892
  170SAPE  H18R19253   6.442  -0.489   8.294  0.6400 -0.1094 -1.1112
  170SAPE  H18S19254   6.332  -0.358   8.246 -0.6396  0.7768  0.0953
  170SAPE  C21919255   6.466  -0.301   8.405  0.5092 -0.1806 -0.5118
  170SAPE  H19R19256   6.435  -0.349   8.500  1.5167  0.0670 -0.0433
  170SAPE  H19S19257   6.412  -0.204   8.403  1.5827  0.5943  2.6579
  170SAPE  C22019258   6.614  -0.256   8.412  0.1696 -0.3480 -0.3337
  170SAPE  H20R19259   6.654  -0.178   8.344  0.5665 -1.5988 -1.5784
  170SAPE  H20S19260   6.679  -0.344   8.393  0.1548 -0.7062  1.1465
  170SAPE  H20T19261   6.649  -0.209   8.506  1.6174  0.6849 -1.3458
  170SAPE   C3319262   6.901  -0.024   6.605 -0.1217 -0.3932 -0.2640
  170SAPE   H3X19263   6.951  -0.064   6.514  1.5664 -3.3831  1.7750
  170SAPE   H3Y19264   6.973  -0.072   6.675  1.1030  0.3718 -0.9704
  170SAPE   C3419265   6.898   0.130   6.601 -0.3566 -0.2372  0.1417
  170SAPE   H4X19266   6.820   0.157   6.675 -0.9827 -0.1154 -0.5462
  170SAPE   H4Y19267   6.857   0.161   6.502  0.7397 -1.2401 -0.6479
  170SAPE   C3519268   7.039   0.202   6.610  0.0984  0.3655 -0.0502
  170SAPE   H5X19269   7.054   0.267   6.521 -0.2109  1.3511  0.5954
  170SAPE   H5Y19270   7.120   0.126   6.603  0.9516  1.3869 -2.1347
  170SAPE   C3619271   7.066   0.281   6.736 -0.2156 -0.0965 -0.4039
  170SAPE   H6X19272   6.999   0.369   6.730  0.3354  0.3079 -0.6807
  170SAPE   H6Y19273   7.166   0.328   6.744 -0.5774  0.3698  2.8311
  170SAPE   C3719274   7.055   0.202   6.867 -0.0610 -0.2612  0.2988
  170SAPE   H7X19275   7.135   0.127   6.887 -2.2650 -2.5203  1.2054
  170SAPE   H7Y19276   6.954   0.157   6.883  0.0014 -0.1927  0.9088
  170SAPE   C3819277   7.069   0.293   6.988  0.1838 -0.2756 -0.4202
  170SAPE   H8X19278   6.991   0.371   6.978 -1.9986 -2.2848  0.0946
  170SAPE   H8Y19279   7.172   0.336   6.994  0.3141 -0.7505  1.4098
  170SAPE   C3919280   7.039   0.214   7.113 -0.8576  0.2571 -0.2563
  170SAPE   H9X19281   7.088   0.115   7.100 -0.2507  0.5738 -0.4183
  170SAPE   H9Y19282   6.936   0.175   7.096 -0.3679 -0.8929 -0.6919
  170SAPE  C31019283   7.074   0.282   7.239 -0.5548  0.5428 -0.6477
  170SAPE  H10X19284   7.032   0.385   7.231 -0.4834  0.4531 -2.6189
  170SAPE  H10Y19285   7.185   0.289   7.242 -0.3797  0.1410 -3.4338
  170SAPE  C31119286   7.045   0.198   7.363  0.3569 -0.4346 -0.2749
  170SAPE  H11X19287   7.045   0.089   7.338 -0.2574 -0.3969 -0.4410
  170SAPE  H11Y19288   6.945   0.232   7.395  1.4973  1.5749  1.3990
  170SAPE  C31219289   7.139   0.215   7.479 -0.0628 -0.7074 -0.4806
  170SAPE  H12X19290   7.149   0.321   7.511 -0.1658 -1.2487  1.5200
  170SAPE  H12Y19291   7.243   0.185   7.458  0.4094  0.0796  0.6397
  170SAPE  C31319292   7.103   0.126   7.596  0.4805  0.2010  0.2108
  170SAPE  H13X19293   7.168   0.140   7.686  0.3215 -1.8826  0.7166
  170SAPE  H13Y19294   7.112   0.022   7.557  1.2418  0.7516 -1.1477
  170SAPE  C31419295   6.955   0.131   7.646 -0.0650 -1.2118 -0.2860
  170SAPE  H14X19296   6.879   0.118   7.566  0.9449  1.3976 -1.7919
  170SAPE  H14Y19297   6.944   0.231   7.694 -2.0561 -1.1593 -0.7870
  170SAPE  C31519298   6.932   0.028   7.759 -0.3914 -0.8769  0.0267
  170SAPE  H15X19299   7.004   0.037   7.843  0.7476  2.0710 -1.1214
  170SAPE  H15Y19300   6.943  -0.069   7.706  0.6972  0.1230 -1.6650
  170SAPE  C31619301   6.788   0.038   7.820 -0.3700  0.4302 -0.7919
  170SAPE  H16X19302   6.723   0.050   7.730 -1.0128 -0.2647 -0.4328
  170SAPE  H16Y19303   6.788   0.129   7.885 -0.2646  0.5094 -0.9021
  170SAPE  C31719304   6.740  -0.073   7.912 -0.3988 -0.4405 -0.7534
  170SAPE  H17X19305   6.782  -0.165   7.867  0.1253  0.0182 -1.2177
  170SAPE  H17Y19306   6.629  -0.065   7.905 -0.7167 -1.4253  2.2027
  170SAPE  C31819307   6.783  -0.074   8.064  0.6364  0.4249 -0.6398
  170SAPE  H18X19308   6.749   0.019   8.116 -0.9819  0.3723 -1.5353
  170SAPE  H18Y19309   6.892  -0.095   8.069  0.4450 -0.5054 -0.1653
  170SAPE  H18Z19310   6.734  -0.168   8.096 -0.6416  0.6304 -1.8954
  171SAPE     N19311   0.430   0.830   6.105  0.1404  0.0750 -0.2032
  171SAPE   HN119312   0.491   0.799   6.026  2.1322 -1.0108  1.6475
  171SAPE   HN219313   0.329   0.833   6.080 -0.1810  0.4372  1.0774
  171SAPE   HN319314   0.455   0.926   6.137 -1.9999  1.0221 -1.1691
  171SAPE   C1219315   0.447   0.731   6.217  0.0728 -0.1264 -0.5677
  171SAPE  H12A19316   0.543   0.676   6.201  2.4756  3.2748  0.9048
  171SAPE  H12B19317   0.355   0.669   6.227 -0.7343  1.2971  1.5933
  171SAPE   C1119318   0.471   0.798   6.354 -0.1056  0.5741 -0.4415
  171SAPE  H11A19319   0.458   0.719   6.431 -2.7593  1.6596  0.3649
  171SAPE  H11B19320   0.390   0.870   6.381  0.2594  0.4188  1.1066
  171SAPE     P19321   0.622   1.003   6.337 -0.1767  0.0681 -0.2038
  171SAPE   O1319322   0.766   1.038   6.353 -0.0136 -0.4842 -0.3412
  171SAPE   O1419323   0.544   1.036   6.213 -0.3370 -0.7296 -0.1853
  171SAPE   O1219324   0.603   0.851   6.363 -0.3044 -0.2130 -0.1841
  171SAPE   O1119325   0.529   1.061   6.450  0.2870  0.1617 -0.0338
  171SAPE    C119326   0.569   1.034   6.586  0.0686 -0.2037  0.5946
  171SAPE    HA19327   0.483   0.980   6.630  0.5892 -2.6994 -1.2514
  171SAPE    HB19328   0.656   0.965   6.588 -0.1338 -0.4295  1.9068
  171SAPE    C219329   0.573   1.172   6.656 -0.0091 -0.1028  0.7033
  171SAPE    HS19330   0.669   1.221   6.628 -0.1246 -0.1256  0.2637
  171SAPE   O2119331   0.557   1.155   6.800 -0.6635  0.2125 -0.0725
  171SAPE   C2119332   0.659   1.086   6.848 -0.0352  0.0366 -0.2864
  171SAPE   O2219333   0.761   1.052   6.798 -0.5623 -0.0666  0.5470
  171SAPE   C2219334   0.601   1.027   6.985 -0.2693  0.0434  0.0851
  171SAPE   H2R19335   0.511   1.088   7.009  1.1445  2.2759  0.0159
  171SAPE   H2S19336   0.571   0.921   6.977  0.4938 -0.1398 -0.4534
  171SAPE    C319337   0.456   1.269   6.611  0.2399  0.3060 -0.0706
  171SAPE    HX19338   0.364   1.207   6.607 -0.3876  1.1802  0.5274
  171SAPE    HY19339   0.483   1.298   6.507 -0.5484  0.8822 -0.1213
  171SAPE   O3119340   0.450   1.376   6.705  0.5135  0.6345  0.3854
  171SAPE   C3119341   0.360   1.370   6.803 -0.1081  0.1890 -0.1669
  171SAPE   O3219342   0.271   1.287   6.820  0.1248  0.1325  0.2136
  171SAPE   C3219343   0.388   1.490   6.890  0.0795 -0.1000 -0.2011
  171SAPE   H2X19344   0.295   1.543   6.917  0.8338  1.7072 -0.9677
  171SAPE   H2Y19345   0.443   1.567   6.832 -0.0413  0.0155 -0.1619
  171SAPE   C2319346   0.710   1.054   7.093 -0.1696 -0.2804 -0.6215
  171SAPE   H3R19347   0.754   1.156   7.083 -0.6445 -0.0190 -0.1025
  171SAPE   H3S19348   0.798   0.988   7.079  0.7253  0.5687  0.6758
  171SAPE   C2419349   0.663   1.027   7.234  0.1108  0.4301  1.1057
  171SAPE   H4R19350   0.652   0.918   7.256  0.7554  0.6329  2.5691
  171SAPE   H4S19351   0.573   1.088   7.258  0.5049  0.4253  2.7590
  171SAPE   C2519352   0.753   1.076   7.343  0.0579  0.0135 -0.4820
  171SAPE   H5R19353   0.813   1.165   7.319 -0.6296  1.3737  2.3486
  171SAPE   C2619354   0.760   1.034   7.472  0.1892 -0.3803  0.4166
  171SAPE   H6R19355   0.818   1.104   7.534 -3.4855  3.3031  0.1592
  171SAPE   C2719356   0.685   0.921   7.549 -0.1415 -0.5670  0.3077
  171SAPE   H7R19357   0.754   0.835   7.547  0.0616 -0.4622  1.7061
  171SAPE   H7S19358   0.597   0.885   7.491  0.3692 -0.5761 -0.4746
  171SAPE   C2819359   0.635   0.971   7.683 -0.2988  0.2351  0.0645
  171SAPE   H8R19360   0.527   0.990   7.675 -0.0762  2.0086  0.7521
  171SAPE   C2919361   0.695   0.967   7.806  0.6987 -0.0397 -0.0104
  171SAPE   H9R19362   0.640   1.003   7.894 -2.1637  2.6642 -2.6450
  171SAPE  C21019363   0.837   0.911   7.841 -0.3311  0.4256 -0.6058
  171SAPE  H10R19364   0.873   0.992   7.908  1.2636  0.1087 -1.0594
  171SAPE  H10S19365   0.902   0.902   7.752  1.7389 -0.6360  0.9213
  171SAPE  C21119366   0.858   0.779   7.904 -0.4261 -0.4024  0.5162
  171SAPE  H11R19367   0.902   0.704   7.837  0.2199 -1.0898  1.6762
  171SAPE  C21219368   0.810   0.735   8.024  0.2709 -0.4073  0.3838
  171SAPE  H12R19369   0.827   0.630   8.054 -1.6502 -1.1031 -0.7543
  171SAPE  C21319370   0.745   0.814   8.141  0.0688 -0.2039 -0.1530
  171SAPE  H13R19371   0.634   0.802   8.137 -0.2831  1.7127  1.7474
  171SAPE  H13S19372   0.772   0.922   8.142 -0.0545 -0.1705  0.6916
  171SAPE  C21419373   0.810   0.772   8.277 -0.8573  0.3655  0.6335
  171SAPE  H14R19374   0.885   0.842   8.316  1.8252 -1.7574 -0.3747
  171SAPE  C21519375   0.800   0.654   8.339  0.0454 -0.0193 -0.5849
  171SAPE  H15R19376   0.867   0.637   8.424  0.3926  1.3370 -0.5606
  171SAPE  C21619377   0.717   0.535   8.305 -0.9165  0.0397 -0.4725
  171SAPE  H16R19378   0.787   0.455   8.273  1.6172  1.8645  0.2341
  171SAPE  H16S19379   0.652   0.548   8.216 -0.5336 -0.2546 -0.7968
  171SAPE  C21719380   0.625   0.489   8.430  0.3484  0.0015  0.6428
  171SAPE  H17R19381   0.568   0.399   8.399  0.2241  0.7668 -1.4933
  171SAPE  H17S19382   0.555   0.570   8.461  1.4174  0.5898  1.5985
  171SAPE  C21819383   0.700   0.461   8.561 -0.3945  0.4401 -0.6636
  171SAPE  H18R19384   0.745   0.560   8.585  0.7346  0.0089 -0.9795
  171SAPE  H18S19385   0.781   0.386   8.557 -1.1702 -0.5265  0.9901
  171SAPE  C21919386   0.607   0.420   8.675  0.1462 -0.5544  0.3007
  171SAPE  H19R19387   0.676   0.428   8.762  0.1710  1.4002  0.1669
  171SAPE  H19S19388   0.591   0.314   8.648 -0.8459  0.1882 -2.4830
  171SAPE  C22019389   0.473   0.495   8.699 -0.4474 -0.5626  0.2119
  171SAPE  H20R19390   0.423   0.464   8.793 -1.8287  0.5516 -0.1278
  171SAPE  H20S19391   0.405   0.491   8.611  0.2773 -0.2932 -0.3758
  171SAPE  H20T19392   0.497   0.603   8.704  0.3380 -0.4761 -3.0720
  171SAPE   C3319393   0.475   1.444   7.017 -0.3395  0.2202  0.2387
  171SAPE   H3X19394   0.518   1.530   7.074  0.7468 -0.3271  0.2564
  171SAPE   H3Y19395   0.559   1.376   6.993 -1.3380 -0.9515 -0.0414
  171SAPE   C3419396   0.387   1.370   7.118 -0.2984  0.3687  0.3773
  171SAPE   H4X19397   0.353   1.269   7.086  0.8763  0.0846 -0.0186
  171SAPE   H4Y19398   0.298   1.433   7.138 -0.6942  0.3039 -1.0462
  171SAPE   C3519399   0.479   1.346   7.233 -0.0515  0.6406 -0.9148
  171SAPE   H5X19400   0.583   1.314   7.210  0.1432  0.3132  0.3405
  171SAPE   H5Y19401   0.430   1.265   7.290  0.9481 -0.0206 -0.9834
  171SAPE   C3619402   0.488   1.464   7.330  0.4203  0.7800  0.4004
  171SAPE   H6X19403   0.540   1.547   7.278 -2.2357  2.3958  0.1146
  171SAPE   H6Y19404   0.556   1.438   7.414 -1.1359  1.4430  1.9342
  171SAPE   C3719405   0.361   1.524   7.392 -0.3116 -0.4636  0.2189
  171SAPE   H7X19406   0.295   1.570   7.315  1.3354 -1.5239 -1.9563
  171SAPE   H7Y19407   0.384   1.612   7.456  0.5399  0.1709 -0.9254
  171SAPE   C3819408   0.294   1.430   7.497 -0.5693  0.0806 -0.6734
  171SAPE   H8X19409   0.279   1.335   7.442  0.4719  1.0256 -2.7139
  171SAPE   H8Y19410   0.202   1.479   7.537 -0.0144 -0.2088  1.0135
  171SAPE   C3919411   0.386   1.401   7.612 -0.0025 -0.1455 -0.0919
  171SAPE   H9X19412   0.455   1.488   7.626 -1.0485  0.5768  0.7107
  171SAPE   H9Y19413   0.444   1.307   7.601  0.2173  0.1920 -2.1564
  171SAPE  C31019414   0.315   1.388   7.745  0.3701 -0.3882  0.3478
  171SAPE  H10X19415   0.248   1.303   7.721  0.7250 -1.3722  2.5714
  171SAPE  H10Y19416   0.250   1.476   7.767 -0.0575 -0.7365  0.4910
  171SAPE  C31119417   0.401   1.358   7.866 -0.1518 -0.5387 -0.1249
  171SAPE  H11X19418   0.460   1.443   7.907  1.4422 -2.2981  1.4204
  171SAPE  H11Y19419   0.473   1.282   7.831  0.9373 -0.4753  1.8203
  171SAPE  C31219420   0.321   1.301   7.991  0.1158  0.3736  0.0258
  171SAPE  H12X19421   0.249   1.236   7.937  0.5326  0.9287 -1.2330
  171SAPE  H12Y19422   0.269   1.385   8.042 -0.9248  0.3308 -0.9343
  171SAPE  C31319423   0.412   1.226   8.078 -0.8052  0.0262 -0.1104
  171SAPE  H13X19424   0.482   1.298   8.127  1.1613 -1.9691  0.1756
  171SAPE  H13Y19425   0.489   1.162   8.031  0.7338  0.7546  1.2953
  171SAPE  C31419426   0.347   1.133   8.181  0.1304  0.1448 -0.5404
  171SAPE  H14X19427   0.279   1.069   8.120  0.9221 -0.6216 -0.6349
  171SAPE  H14Y19428   0.287   1.197   8.248 -0.0897  0.7795 -1.3259
  171SAPE  C31519429   0.446   1.044   8.253 -0.3391  0.1169 -0.0420
  171SAPE  H15X19430   0.521   1.018   8.176 -1.2725  1.0834 -1.3124
  171SAPE  H15Y19431   0.396   0.951   8.291  1.1922 -0.8240 -0.2599
  171SAPE  C31619432   0.508   1.107   8.378 -0.6004 -0.4542 -0.6750
  171SAPE  H16X19433   0.420   1.121   8.445  1.6449  2.1240  1.9933
  171SAPE  H16Y19434   0.536   1.213   8.360 -2.3571 -0.1372 -1.8596
  171SAPE  C31719435   0.603   1.023   8.460  0.6596  0.2255  0.2113
  171SAPE  H17X19436   0.639   1.087   8.543  1.9538 -0.6010  0.3158
  171SAPE  H17Y19437   0.691   0.993   8.399  0.2596  0.7380 -0.6541
  171SAPE  C31819438   0.536   0.904   8.529  0.4691 -0.5352  0.0836
  171SAPE  H18X19439   0.487   0.837   8.455  0.1731  0.5893 -0.7750
  171SAPE  H18Y19440   0.463   0.941   8.604  2.4902  0.3355  1.7185
  171SAPE  H18Z19441   0.615   0.851   8.587  0.9820 -0.4718 -0.5408
  172SAPE     N19442   1.053   6.637   5.859 -0.4840  0.0241 -0.5695
  172SAPE   HN119443   1.062   6.724   5.802 -0.7674  1.1153  0.9876
  172SAPE   HN219444   1.148   6.602   5.882 -1.1392 -0.9885  0.7386
  172SAPE   HN319445   1.007   6.562   5.804  0.7346 -0.0186 -1.5911
  172SAPE   C1219446   0.982   6.655   5.990 -0.1595  0.4862 -0.4386
  172SAPE  H12A19447   1.036   6.729   6.053 -2.0297  1.8017 -0.3004
  172SAPE  H12B19448   0.984   6.553   6.034 -3.5896 -0.1514 -1.5014
  172SAPE   C1119449   0.841   6.703   5.965  0.3820 -0.1841  0.4288
  172SAPE  H11A19450   0.797   6.676   5.866  0.4416 -1.4733  0.7348
  172SAPE  H11B19451   0.851   6.813   5.962  0.8602 -0.1656  1.9495
  172SAPE     P19452   0.638   6.728   6.129  0.0391 -0.2016  0.5815
  172SAPE   O1319453   0.563   6.791   6.015 -0.1567 -0.3615  0.3243
  172SAPE   O1419454   0.556   6.643   6.214 -0.1033 -0.6153 -0.6182
  172SAPE   O1219455   0.759   6.655   6.071 -0.0223  0.1998  0.2754
  172SAPE   O1119456   0.699   6.844   6.218  0.4829  0.3849 -0.2727
  172SAPE    C119457   0.836   6.880   6.233  0.2406 -0.8395 -0.4531
  172SAPE    HA19458   0.898   6.788   6.240  2.7898  0.8699  1.1268
  172SAPE    HB19459   0.868   6.949   6.152  0.9755 -0.5689  0.0565
  172SAPE    C219460   0.854   6.949   6.369 -0.1725 -0.0352 -0.3501
  172SAPE    HS19461   0.959   6.961   6.403 -0.5340  1.9735  0.2004
  172SAPE   O2119462   0.775   6.886   6.468  0.8945 -0.4829  0.7258
  172SAPE   C2119463   0.812   6.761   6.503  0.3410  0.2891 -0.3258
  172SAPE   O2219464   0.920   6.713   6.482 -0.4490 -0.5552 -0.5321
  172SAPE   C2219465   0.711   6.685   6.592 -1.0752 -0.0325  0.3719
  172SAPE   H2R19466   0.662   6.610   6.527  0.4205  0.6288 -1.6205
  172SAPE   H2S19467   0.770   6.646   6.677  0.3552  1.1532 -0.0398
  172SAPE    C319468   0.798   7.090   6.355  0.0222  0.2885  0.5441
  172SAPE    HX19469   0.696   7.085   6.311  0.6187  2.2237 -1.2316
  172SAPE    HY19470   0.862   7.142   6.280  2.5252 -0.7740  1.8146
  172SAPE   O3119471   0.805   7.165   6.474  0.6546 -0.3824 -0.2615
  172SAPE   C3119472   0.689   7.192   6.527  0.2970  0.0547  0.3134
  172SAPE   O3219473   0.580   7.154   6.484 -0.4065  0.4323 -0.0870
  172SAPE   C3219474   0.707   7.293   6.640  0.1336  0.4495 -0.3889
  172SAPE   H2X19475   0.776   7.371   6.601  0.8008 -0.3008 -0.7455
  172SAPE   H2Y19476   0.747   7.251   6.735 -1.6733 -0.4068  0.0329
  172SAPE   C2319477   0.603   6.783   6.649 -0.0981  0.2105  1.0752
  172SAPE   H3R19478   0.543   6.817   6.562 -1.1641 -0.3867  1.5600
  172SAPE   H3S19479   0.646   6.873   6.697  0.5911 -0.3237  1.4645
  172SAPE   C2419480   0.492   6.711   6.732  0.6526 -0.4110  1.2411
  172SAPE   H4R19481   0.452   6.624   6.676 -0.0292  0.7748 -0.1665
  172SAPE   H4S19482   0.412   6.787   6.743 -0.1266 -1.4477  3.4372
  172SAPE   C2519483   0.541   6.692   6.870  0.2425 -0.2590 -0.1974
  172SAPE   H5R19484   0.584   6.781   6.918  0.5434 -0.0879 -0.7837
  172SAPE   C2619485   0.548   6.576   6.938  0.2733  0.2326  0.1807
  172SAPE   H6R19486   0.591   6.573   7.039 -0.6016  2.5338  0.6870
  172SAPE   C2719487   0.500   6.440   6.889  0.1725 -0.1547  0.3645
  172SAPE   H7R19488   0.588   6.373   6.881 -0.3563 -0.9669  1.2369
  172SAPE   H7S19489   0.470   6.447   6.782  0.6042  0.5685  0.2821
  172SAPE   C2819490   0.400   6.363   6.973 -0.5910  0.6759 -0.8726
  172SAPE   H8R19491   0.443   6.276   7.025 -1.6091 -1.5912 -3.5583
  172SAPE   C2919492   0.269   6.376   6.954  0.5361 -0.1403 -0.5998
  172SAPE   H9R19493   0.199   6.331   7.026  0.6573 -0.5632 -0.7412
  172SAPE  C21019494   0.199   6.472   6.861  0.3810  0.3048  0.4905
  172SAPE  H10R19495   0.224   6.444   6.757 -0.2540 -0.7805  0.6163
  172SAPE  H10S19496   0.254   6.567   6.880  2.1978 -0.4817 -0.5740
  172SAPE  C21119497   0.048   6.495   6.879 -0.3906 -0.1685  0.7205
  172SAPE  H11R19498  -0.022   6.478   6.795 -1.5614 -0.5020  1.7478
  172SAPE  C21219499  -0.014   6.543   6.990  0.4091  0.3836  0.4876
  172SAPE  H12R19500  -0.123   6.557   6.981  0.4326  0.7305  0.7439
  172SAPE  C21319501   0.049   6.573   7.126 -0.1688 -0.0079  0.6703
  172SAPE  H13R19502   0.060   6.682   7.142 -2.0912  0.2885  0.1987
  172SAPE  H13S19503   0.154   6.537   7.135  0.2254  1.2051  1.1592
  172SAPE  C21419504  -0.029   6.513   7.237  0.0133  0.5134 -0.0172
  172SAPE  H14R19505  -0.106   6.439   7.211  0.8725  0.0462 -1.3328
  172SAPE  C21519506  -0.003   6.535   7.371  0.3067  0.4697 -0.1956
  172SAPE  H15R19507  -0.086   6.499   7.434 -1.0904  0.3496 -2.0288
  172SAPE  C21619508   0.104   6.629   7.419 -0.3988 -0.6503  0.1584
  172SAPE  H16R19509   0.053   6.689   7.497  0.5648 -0.8448  0.9508
  172SAPE  H16S19510   0.141   6.698   7.341  0.9070 -1.2964  0.1756
  172SAPE  C21719511   0.228   6.557   7.478  0.0259 -0.1427  0.4452
  172SAPE  H17R19512   0.211   6.519   7.581 -0.5524  2.5484  1.4237
  172SAPE  H17S19513   0.295   6.645   7.493 -1.1311  0.9731 -0.7482
  172SAPE  C21819514   0.296   6.452   7.386  0.1863  0.0513 -0.0867
  172SAPE  H18R19515   0.327   6.495   7.288 -1.1117 -0.7452 -0.8703
  172SAPE  H18S19516   0.226   6.369   7.366  0.3515 -0.1791  0.2850
  172SAPE  C21919517   0.418   6.393   7.455  0.5117 -0.8043 -1.1053
  172SAPE  H19R19518   0.387   6.346   7.551  0.5171  0.3234 -0.5347
  172SAPE  H19S19519   0.482   6.483   7.467 -1.1835  0.2473  0.6961
  172SAPE  C22019520   0.499   6.289   7.372  0.1250 -0.2393 -0.7525
  172SAPE  H20R19521   0.593   6.332   7.333 -0.1156 -0.2131 -1.3065
  172SAPE  H20S19522   0.443   6.265   7.279  0.8163 -2.4712 -0.6485
  172SAPE  H20T19523   0.509   6.190   7.422  1.7543  0.8957  1.3317
  172SAPE   C3319524   0.580   7.380   6.670  0.1974  0.3277 -0.2834
  172SAPE   H3X19525   0.480   7.332   6.668  0.6908 -0.7354  0.0974
  172SAPE   H3Y19526   0.578   7.458   6.590  0.0012  1.3819  0.7164
  172SAPE   C3419527   0.586   7.453   6.808 -0.1967  0.1427  0.2975
  172SAPE   H4X19528   0.512   7.535   6.819  0.2528  0.4053  1.5043
  172SAPE   H4Y19529   0.688   7.487   6.837  0.7295  0.3964 -2.8647
  172SAPE   C3519530   0.550   7.367   6.932  0.0014  0.4959  1.1565
  172SAPE   H5X19531   0.616   7.278   6.924  0.6081  0.9301  1.2744
  172SAPE   H5Y19532   0.443   7.337   6.936  0.2556 -0.5114  0.7349
  172SAPE   C3619533   0.571   7.444   7.063 -0.1951  0.1734 -0.6235
  172SAPE   H6X19534   0.488   7.516   7.073 -0.0173  0.2085  0.9324
  172SAPE   H6Y19535   0.675   7.484   7.067 -0.2020  0.1329  0.2390
  172SAPE   C3719536   0.543   7.354   7.183  0.0570 -0.1685 -0.0634
  172SAPE   H7X19537   0.618   7.272   7.191 -0.8122 -1.1222 -1.4209
  172SAPE   H7Y19538   0.450   7.295   7.174 -0.3847  0.6298 -0.7982
  172SAPE   C3819539   0.543   7.422   7.323 -0.1063  0.3628  0.1888
  172SAPE   H8X19540   0.472   7.506   7.338 -1.5374 -0.7887  0.1217
  172SAPE   H8Y19541   0.645   7.462   7.344 -0.7832  1.8088  0.8507
  172SAPE   C3919542   0.522   7.328   7.440 -0.0336 -0.1897  0.4377
  172SAPE   H9X19543   0.548   7.228   7.400  1.0540  0.6028 -0.9365
  172SAPE   H9Y19544   0.414   7.337   7.465 -0.3689 -0.4576 -0.8762
  172SAPE  C31019545   0.605   7.350   7.567 -0.3895  0.1940 -0.0186
  172SAPE  H10X19546   0.596   7.456   7.601  0.5468 -0.2646  1.7567
  172SAPE  H10Y19547   0.711   7.344   7.534 -0.3581  1.5229 -0.2049
  172SAPE  C31119548   0.578   7.244   7.678 -0.0955 -0.2106  0.1687
  172SAPE  H11X19549   0.617   7.146   7.642  2.8176  1.4950 -1.7442
  172SAPE  H11Y19550   0.469   7.237   7.698  0.3252 -1.4509  2.4087
  172SAPE  C31219551   0.648   7.279   7.814  0.1673 -0.0397  0.7282
  172SAPE  H12X19552   0.597   7.360   7.869  2.2057  2.0121 -0.2453
  172SAPE  H12Y19553   0.753   7.300   7.783 -0.3001 -1.3897 -2.2206
  172SAPE  C31319554   0.658   7.149   7.899  0.0852  0.3218  0.4954
  172SAPE  H13X19555   0.736   7.173   7.974  0.0877 -0.4770  0.7637
  172SAPE  H13Y19556   0.695   7.072   7.827 -1.6245 -0.7441  0.7051
  172SAPE  C31419557   0.524   7.100   7.953  0.5544  0.2559  0.1115
  172SAPE  H14X19558   0.451   7.089   7.870  0.3362  1.3580  0.1399
  172SAPE  H14Y19559   0.499   7.200   7.995  0.5782  0.4068 -0.2257
  172SAPE  C31519560   0.505   6.981   8.033  0.7873 -0.0891  0.0526
  172SAPE  H15X19561   0.538   6.895   7.971 -1.9181 -0.4577 -1.0227
  172SAPE  H15Y19562   0.396   6.965   8.050  0.2052  0.6825 -2.4450
  172SAPE  C31619563   0.577   6.985   8.166  0.6030  0.6830  0.0096
  172SAPE  H16X19564   0.530   7.076   8.209 -1.6862 -0.8267  0.8762
  172SAPE  H16Y19565   0.687   6.990   8.150  0.4543 -1.0688 -1.9049
  172SAPE  C31719566   0.541   6.871   8.269  0.6347  0.4233  0.1446
  172SAPE  H17X19567   0.608   6.788   8.236 -2.3628 -1.5767 -1.2939
  172SAPE  H17Y19568   0.440   6.832   8.244  0.5169  1.6862 -1.5326
  172SAPE  C31819569   0.558   6.915   8.411 -0.4992 -0.3754  0.0449
  172SAPE  H18X19570   0.532   6.841   8.490  1.7180 -1.0041  0.2554
  172SAPE  H18Y19571   0.489   7.002   8.421  1.6302  1.6566 -1.7682
  172SAPE  H18Z19572   0.661   6.955   8.406 -0.7567  0.0931 -2.8711
  173SOPE     N19573   3.717   4.772  10.965 -0.3418 -0.0949  0.5125
  173SOPE   HN119574   3.687   4.870  10.983  0.6682  0.3113  0.0717
  173SOPE   HN219575   3.679   4.710  11.039  0.5631 -1.0864  0.1799
  173SOPE   HN319576   3.819   4.755  10.974 -0.2173  0.1666 -0.2926
  173SOPE   C1219577   3.663   4.736  10.829  0.0460  0.7651  0.1595
  173SOPE  H12A19578   3.683   4.629  10.806  0.2732  0.3147  2.3042
  173SOPE  H12B19579   3.720   4.797  10.756 -0.1403  0.4220 -0.2766
  173SOPE   C1119580   3.508   4.750  10.819 -0.2239 -0.5192  0.2316
  173SOPE  H11A19581   3.474   4.721  10.718 -0.3986 -2.3059  0.7666
  173SOPE  H11B19582   3.493   4.860  10.815  0.2781 -0.4890 -1.3831
  173SOPE     P19583   3.314   4.592  10.909  0.5294 -0.3440  0.1150
  173SOPE   O1319584   3.254   4.545  11.034  0.3644  0.1202 -0.2973
  173SOPE   O1419585   3.357   4.487  10.819  0.0346  0.3098  1.2632
  173SOPE   O1219586   3.440   4.693  10.930  0.4108  0.6760  0.1014
  173SOPE   O1119587   3.203   4.680  10.843  0.5602 -0.4324 -0.0612
  173SOPE    C119588   3.084   4.647  10.770 -0.1172 -0.5187 -0.7490
  173SOPE    HA19589   2.999   4.663  10.840  2.6152  2.2581  2.2821
  173SOPE    HB19590   3.089   4.538  10.748  0.8491 -0.5677 -0.3373
  173SOPE    C219591   3.071   4.723  10.631  0.0360  0.4021 -0.6625
  173SOPE    HS19592   2.985   4.682  10.574 -0.4718 -0.9911  1.0438
  173SOPE   O2119593   3.191   4.718  10.548 -0.2361 -0.0426  0.5392
  173SOPE   C2119594   3.234   4.598  10.502  0.6411 -0.5596  0.0026
  173SOPE   O2219595   3.165   4.498  10.507  0.2292  0.4596 -0.1787
  173SOPE   C2219596   3.362   4.608  10.416 -0.0673  0.7265 -0.4961
  173SOPE   H2R19597   3.402   4.505  10.402  0.5172  1.0381 -1.2216
  173SOPE   H2S19598   3.435   4.671  10.470  1.2934 -1.5469  0.4634
  173SOPE    C319599   3.044   4.876  10.665  0.1441 -0.2181  0.5662
  173SOPE    HX19600   3.139   4.927  10.692  0.7129  0.4872 -2.4324
  173SOPE    HY19601   2.979   4.888  10.755  0.2883  2.7348  0.3692
  173SOPE   O3119602   2.978   4.940  10.553 -0.1426 -0.6185 -0.0909
  173SOPE   C3119603   3.052   5.018  10.480  0.4462 -0.0731 -0.4528
  173SOPE   O3219604   3.173   5.031  10.483  0.2873  0.4062 -0.2640
  173SOPE   C3219605   2.959   5.092  10.377 -0.0222  0.4276  0.1854
  173SOPE   H2X19606   3.025   5.175  10.345 -0.7175  0.4205 -1.3390
  173SOPE   H2Y19607   2.863   5.125  10.422 -0.4994 -1.2483  0.4573
  173SOPE   C2319608   3.333   4.675  10.280  0.4017 -0.6524  0.0678
  173SOPE   H3R19609   3.324   4.784  10.301  0.2645 -1.1073  2.7541
  173SOPE   H3S19610   3.243   4.640  10.226 -0.5879  1.0524  0.5197
  173SOPE   C2419611   3.460   4.674  10.189  0.3482  0.0057 -0.0404
  173SOPE   H4R19612   3.449   4.738  10.098  0.8225 -0.2139 -0.2501
  173SOPE   H4S19613   3.545   4.704  10.253 -0.2190  0.7864  0.3706
  173SOPE   C2519614   3.486   4.529  10.135 -0.0401  0.8966 -0.0544
  173SOPE   H5R19615   3.508   4.465  10.223 -0.5568  1.7031  0.6672
  173SOPE   H5S19616   3.393   4.483  10.095 -0.6795  1.2183  1.0473
  173SOPE   C2619617   3.598   4.515  10.026 -0.2669 -0.1674  0.2336
  173SOPE   H6R19618   3.592   4.600   9.956  0.6851 -0.7435 -0.5723
  173SOPE   H6S19619   3.696   4.525  10.077  0.3036  0.1262 -0.8970
  173SOPE   C2719620   3.590   4.373   9.958  0.2619 -0.2544  0.1712
  173SOPE   H7R19621   3.606   4.294  10.034 -0.4848  0.3696  1.0018
  173SOPE   H7S19622   3.488   4.354   9.918  1.0676 -2.0173 -1.1579
  173SOPE   C2819623   3.679   4.356   9.835 -0.5441  0.7327 -0.5038
  173SOPE   H8R19624   3.654   4.428   9.754  1.6974  2.0241 -0.1299
  173SOPE   H8S19625   3.776   4.390   9.877 -0.7317 -0.8495  1.3347
  173SOPE   C2919626   3.695   4.216   9.771  0.4752 -0.0645 -0.3614
  173SOPE   H9119627   3.718   4.140   9.848 -0.4705  0.5952  0.6050
  173SOPE  C21019628   3.664   4.185   9.645  0.0999  0.3752 -0.3060
  173SOPE  H10119629   3.675   4.076   9.631  0.2980  0.4322 -0.5937
  173SOPE  C21119630   3.610   4.263   9.530  0.4274 -0.4085  0.1158
  173SOPE  H11R19631   3.676   4.345   9.495  0.7449 -1.4084 -1.7847
  173SOPE  H11S19632   3.519   4.319   9.558  0.5057  0.3499 -1.0653
  173SOPE  C21219633   3.576   4.170   9.414  0.0993 -0.0197  0.7987
  173SOPE  H12R19634   3.503   4.089   9.435 -0.9919  0.9082  0.6356
  173SOPE  H12S19635   3.671   4.122   9.382 -1.0925 -1.6882 -0.4032
  173SOPE  C21319636   3.532   4.234   9.275  0.3174  0.3582 -0.1754
  173SOPE  H13R19637   3.618   4.293   9.237  0.4860  1.4517  1.7806
  173SOPE  H13S19638   3.447   4.301   9.297  1.2534  1.1387  1.2738
  173SOPE  C21419639   3.479   4.129   9.175  0.3134  0.1201  0.2080
  173SOPE  H14R19640   3.382   4.094   9.217  0.8610  2.3297  3.7635
  173SOPE  H14S19641   3.549   4.043   9.167  0.9264  0.7894 -2.5849
  173SOPE  C21519642   3.455   4.187   9.037  0.0657 -0.0488  1.2205
  173SOPE  H15R19643   3.390   4.277   9.044  0.4994  0.7505 -2.8229
  173SOPE  H15S19644   3.398   4.117   8.973  1.1260  0.0919  0.0976
  173SOPE  C21619645   3.587   4.207   8.950 -0.5228  0.5094  0.6724
  173SOPE  H16R19646   3.653   4.118   8.958  0.4521  1.0780 -0.6034
  173SOPE  H16S19647   3.632   4.303   8.984  0.0319  0.0937  1.1393
  173SOPE  C21719648   3.553   4.215   8.798 -0.7604 -0.1372  0.7190
  173SOPE  H17R19649   3.511   4.317   8.784  1.3291  0.4036 -2.5564
  173SOPE  H17S19650   3.473   4.147   8.762 -0.3851 -0.0679 -0.2907
  173SOPE  C21819651   3.683   4.202   8.718  0.2921  0.2963  0.3233
  173SOPE  H18R19652   3.695   4.099   8.680 -1.1900  0.0131  0.5617
  173SOPE  H18S19653   3.768   4.230   8.783  0.7014 -0.9831  0.3646
  173SOPE  H18T19654   3.677   4.278   8.637  1.0663  2.0588  1.8329
  173SOPE   C3319655   2.939   4.994  10.249  0.0853  0.0096 -0.1008
  173SOPE   H3X19656   2.913   5.058  10.162 -0.7215  0.2513  0.3009
  173SOPE   H3Y19657   2.855   4.923  10.266 -0.1043  0.4150  0.7213
  173SOPE   C3419658   3.063   4.919  10.200 -0.6500  0.4955 -0.1216
  173SOPE   H4X19659   3.093   4.854  10.285 -1.9631  0.8467  0.6304
  173SOPE   H4Y19660   3.146   4.990  10.176 -2.2021  1.7775 -1.9976
  173SOPE   C3519661   3.033   4.831  10.079 -0.2733 -1.0127 -0.0641
  173SOPE   H5X19662   2.953   4.877  10.017  0.4330  1.7803  0.9676
  173SOPE   H5Y19663   3.003   4.734  10.124  1.0049 -1.0444  0.7741
  173SOPE   C3619664   3.159   4.817   9.993 -0.0476 -0.4881  0.7060
  173SOPE   H6X19665   3.235   4.759  10.050  0.1935  1.4657  2.5054
  173SOPE   H6Y19666   3.194   4.916   9.958 -1.0828  0.9002  3.2936
  173SOPE   C3719667   3.150   4.736   9.857  0.4200  0.4481 -0.1684
  173SOPE   H7X19668   3.091   4.796   9.784  0.8684  3.1647  1.5562
  173SOPE   H7Y19669   3.102   4.636   9.857  0.8235  0.2420 -1.0493
  173SOPE   C3819670   3.288   4.715   9.790  0.3030 -0.1342 -0.2515
  173SOPE   H8X19671   3.317   4.612   9.822  0.1923 -0.4422 -1.1341
  173SOPE   H8Y19672   3.360   4.777   9.848 -0.4425  1.5579 -1.0884
  173SOPE   C3919673   3.298   4.725   9.641 -0.4082  0.3121  0.1582
  173SOPE   H9X19674   3.284   4.831   9.613 -0.7505  0.5314  1.1257
  173SOPE   H9Y19675   3.212   4.662   9.607 -0.5457  0.1913  0.7183
  173SOPE  C31019676   3.427   4.669   9.581  0.9405 -0.3180  0.1987
  173SOPE  H10X19677   3.434   4.559   9.596 -2.8515 -0.9982 -1.7849
  173SOPE  H10Y19678   3.507   4.736   9.620 -0.4261  2.5137 -1.5176
  173SOPE  C31119679   3.441   4.680   9.425 -0.2567  0.4917 -0.8237
  173SOPE  H11X19680   3.537   4.631   9.398 -0.9812 -1.5702  0.0678
  173SOPE  H11Y19681   3.445   4.788   9.400  2.7156  0.3733 -1.1789
  173SOPE  C31219682   3.345   4.613   9.338 -0.5816 -0.4850  0.0693
  173SOPE  H12X19683   3.250   4.669   9.334 -0.0816  0.4835  1.3057
  173SOPE  H12Y19684   3.315   4.517   9.384 -0.3756 -0.0799  1.0620
  173SOPE  C31319685   3.394   4.605   9.186 -0.2596 -0.6397 -0.2923
  173SOPE  H13X19686   3.490   4.550   9.181 -0.0234 -0.2399 -5.1328
  173SOPE  H13Y19687   3.426   4.702   9.143  0.7086 -0.4970  0.7227
  173SOPE  C31419688   3.289   4.546   9.088  1.0268  0.3157 -0.0272
  173SOPE  H14X19689   3.198   4.610   9.092 -0.0436 -1.1167 -0.5680
  173SOPE  H14Y19690   3.262   4.448   9.131 -1.2421  1.0726  0.4041
  173SOPE  C31519691   3.333   4.527   8.942 -0.2845  0.6708 -0.4639
  173SOPE  H15X19692   3.429   4.471   8.946  0.3206  1.6947 -0.0599
  173SOPE  H15Y19693   3.351   4.625   8.892  0.0786  0.4275 -0.8123
  173SOPE  C31619694   3.240   4.456   8.848  0.4399 -0.6825 -0.5493
  173SOPE  H16X19695   3.222   4.348   8.867  1.5986 -0.5327  1.7943
  173SOPE  H16Y19696   3.292   4.459   8.750  2.1074 -1.9403  0.2449
  173SOPE  C31719697   3.101   4.516   8.831 -0.3414 -0.3547  0.3596
  173SOPE  H17X19698   3.104   4.623   8.804 -0.4873 -0.1407  1.1659
  173SOPE  H17Y19699   3.039   4.512   8.923  2.6389 -1.0310  2.4604
  173SOPE  C31819700   3.025   4.452   8.709 -0.1822  0.3319 -0.1799
  173SOPE  H18X19701   3.085   4.451   8.616 -1.0771 -1.7872 -0.7786
  173SOPE  H18Y19702   2.925   4.499   8.699 -1.9574 -2.6531  2.0872
  173SOPE  H18Z19703   3.005   4.346   8.734  2.3335 -0.5298 -1.5161
  174SOPE     N19704   3.552   4.015  10.548 -0.2418 -0.8528  0.8594
  174SOPE   HN119705   3.525   3.934  10.489  2.4721  0.6104 -2.7386
  174SOPE   HN219706   3.550   4.097  10.484 -0.4105 -2.4450 -1.2610
  174SOPE   HN319707   3.653   3.995  10.560 -0.0155 -0.0510  0.3829
  174SOPE   C1219708   3.484   4.024  10.672 -0.1457  0.3535  0.2181
  174SOPE  H12A19709   3.379   3.996  10.653  0.1321 -1.2403  0.8556
  174SOPE  H12B19710   3.481   4.128  10.713  2.2229 -0.0739  1.6744
  174SOPE   C1119711   3.549   3.935  10.781 -0.3874  0.0069  0.1906
  174SOPE  H11A19712   3.472   3.933  10.861 -1.3810  2.6844 -0.5922
  174SOPE  H11B19713   3.634   3.989  10.828 -1.8705  1.6585  1.1098
  174SOPE     P19714   3.494   3.687  10.730  0.0256  0.1636 -0.1905
  174SOPE   O1319715   3.352   3.734  10.721  0.0969 -0.3621 -0.2243
  174SOPE   O1419716   3.519   3.599  10.849  0.1155 -0.4425  0.1413
  174SOPE   O1219717   3.593   3.809  10.731 -0.3563 -0.0109  0.0740
  174SOPE   O1119718   3.522   3.598  10.603 -0.3936 -0.0221 -0.1893
  174SOPE    C119719   3.653   3.550  10.567  0.8585 -0.0886 -0.0597
  174SOPE    HA19720   3.643   3.444  10.534  2.6505 -0.9440  1.8995
  174SOPE    HB19721   3.727   3.542  10.650  2.5340  2.3875 -1.1888
  174SOPE    C219722   3.703   3.621  10.437 -0.6370 -0.2989  0.4068
  174SOPE    HS19723   3.723   3.729  10.455  3.3209 -1.1614  2.2314
  174SOPE   O2119724   3.605   3.608  10.329  0.1977  0.2545 -0.2189
  174SOPE   C2119725   3.501   3.689  10.326  0.0050  0.4690  0.9007
  174SOPE   O2219726   3.503   3.793  10.383  0.6668  0.1981 -0.0095
  174SOPE   C2219727   3.393   3.634  10.232 -0.1718  0.3243  0.2185
  174SOPE   H2R19728   3.393   3.524  10.245 -3.4911  0.3880  1.7881
  174SOPE   H2S19729   3.415   3.647  10.124 -1.8267 -1.9831 -0.4666
  174SOPE    C319730   3.841   3.554  10.402  0.3067 -0.6751  0.4859
  174SOPE    HX19731   3.832   3.443  10.398 -0.1354 -0.6968  1.5959
  174SOPE    HY19732   3.905   3.581  10.489  0.6449  0.7661 -0.1828
  174SOPE   O3119733   3.902   3.593  10.276 -0.1901 -0.1318 -0.1757
  174SOPE   C3119734   4.035   3.619  10.278  0.4782  0.7087 -0.0057
  174SOPE   O3219735   4.116   3.603  10.370  0.5474  0.6230  0.0324
  174SOPE   C3219736   4.077   3.670  10.140  0.0850  0.6486  0.8439
  174SOPE   H2X19737   4.187   3.671  10.128  0.1912  0.5400  1.7569
  174SOPE   H2Y19738   4.054   3.778  10.149  1.0745  1.1511 -1.8055
  174SOPE   C2319739   3.256   3.698  10.270 -0.2329  0.0216 -1.0890
  174SOPE   H3R19740   3.270   3.808  10.267  0.6481 -0.0636 -0.3671
  174SOPE   H3S19741   3.236   3.672  10.376 -2.3657  0.0825 -1.4231
  174SOPE   C2419742   3.140   3.650  10.180 -0.3423 -0.1730  0.2592
  174SOPE   H4R19743   3.127   3.540  10.189 -0.5909 -0.2702 -1.0626
  174SOPE   H4S19744   3.044   3.695  10.214 -0.5930 -0.3692 -0.1876
  174SOPE   C2519745   3.158   3.689  10.031  0.6735  0.5738 -0.0465
  174SOPE   H5R19746   3.195   3.793  10.018  0.5550  0.6241  0.0091
  174SOPE   H5S19747   3.234   3.623   9.986  0.2360  0.5374 -0.7361
  174SOPE   C2619748   3.023   3.680   9.956 -0.1575 -0.3067  0.4541
  174SOPE   H6R19749   2.984   3.576   9.951 -1.3882  0.1485 -4.3588
  174SOPE   H6S19750   2.948   3.742  10.009 -0.6564 -1.3616  1.0020
  174SOPE   C2719751   3.029   3.740   9.815  0.1543 -0.0681  0.0317
  174SOPE   H7R19752   3.055   3.847   9.832  0.5442 -0.2410  0.5558
  174SOPE   H7S19753   3.114   3.690   9.764  1.3705  0.0862  1.8028
  174SOPE   C2819754   2.897   3.727   9.723 -0.7307 -0.3724 -0.0928
  174SOPE   H8R19755   2.865   3.621   9.726  0.6559 -0.8075  0.2567
  174SOPE   H8S19756   2.818   3.785   9.775 -1.6528 -0.1190 -1.7005
  174SOPE   C2919757   2.918   3.770   9.583  0.4235  0.2558  0.5831
  174SOPE   H9119758   3.006   3.725   9.535 -1.9004 -0.5305 -3.5071
  174SOPE  C21019759   2.836   3.852   9.512  0.5185 -0.8118 -0.5691
  174SOPE  H10119760   2.866   3.878   9.409 -1.2465 -1.6933 -1.3543
  174SOPE  C21119761   2.698   3.913   9.546  0.2628 -0.0400 -0.1723
  174SOPE  H11R19762   2.701   4.020   9.576 -0.9943 -0.0074 -0.1012
  174SOPE  H11S19763   2.658   3.851   9.629 -0.2115 -0.0376 -0.3947
  174SOPE  C21219764   2.607   3.889   9.423 -0.2706 -0.3918 -0.0932
  174SOPE  H12R19765   2.504   3.866   9.458 -1.0319  1.5035 -0.9779
  174SOPE  H12S19766   2.642   3.803   9.362 -0.8190 -0.3388 -0.4929
  174SOPE  C21319767   2.587   4.017   9.342 -0.2282  0.0578  0.2299
  174SOPE  H13R19768   2.681   4.071   9.316 -0.4526  0.2609 -0.1574
  174SOPE  H13S19769   2.532   4.087   9.408  1.9892  0.4111  1.8175
  174SOPE  C21419770   2.507   4.004   9.210 -0.0715  0.4550  1.0389
  174SOPE  H14R19771   2.401   3.979   9.235  0.3170  0.7414  3.2035
  174SOPE  H14S19772   2.550   3.924   9.145  0.4184  1.7791 -0.3198
  174SOPE  C21519773   2.500   4.149   9.155 -0.8781 -0.1442 -0.0574
  174SOPE  H15R19774   2.603   4.186   9.172 -0.4739 -1.4151  0.3453
  174SOPE  H15S19775   2.434   4.220   9.210 -1.2980 -1.5046  1.2509
  174SOPE  C21619776   2.462   4.155   9.006  0.4295 -0.1784  0.2823
  174SOPE  H16R19777   2.355   4.141   8.981  0.7493  0.7067 -1.7015
  174SOPE  H16S19778   2.513   4.075   8.948 -0.8227 -1.4254  0.8285
  174SOPE  C21719779   2.506   4.279   8.931  0.2510  1.0074  0.0454
  174SOPE  H17R19780   2.605   4.321   8.960  1.6248 -0.1276 -2.6306
  174SOPE  H17S19781   2.436   4.364   8.949 -0.5875  0.3014  0.1945
  174SOPE  C21819782   2.500   4.250   8.780 -0.0573  0.2368  0.6601
  174SOPE  H18R19783   2.402   4.210   8.745  0.3652  0.0364 -0.3251
  174SOPE  H18S19784   2.587   4.185   8.755 -1.6580 -1.0171 -2.1876
  174SOPE  H18T19785   2.532   4.340   8.723  0.7537 -0.8349 -0.6528
  174SOPE   C3319786   4.005   3.608  10.017  0.2166 -0.3364  0.6852
  174SOPE   H3X19787   3.897   3.612  10.039 -0.0144  0.2785 -0.4613
  174SOPE   H3Y19788   4.014   3.498  10.003  0.0235 -0.5698  2.2468
  174SOPE   C3419789   4.039   3.688   9.896  0.3985 -0.0270  0.0632
  174SOPE   H4X19790   4.148   3.683   9.874  0.1526 -0.6415 -1.1238
  174SOPE   H4Y19791   4.024   3.797   9.908  2.0657  0.0176  2.4997
  174SOPE   C3519792   3.957   3.641   9.767 -0.2031  0.6887  0.0435
  174SOPE   H5X19793   3.857   3.689   9.766 -0.4628  0.1728  0.5417
  174SOPE   H5Y19794   3.962   3.530   9.767  1.2385  0.7034 -1.9107
  174SOPE   C3619795   4.018   3.679   9.629  0.4065 -0.5588 -0.1767
  174SOPE   H6X19796   4.109   3.619   9.606 -1.3999 -2.6455 -2.3045
  174SOPE   H6Y19797   4.042   3.788   9.623 -1.0016 -0.0804  1.8876
  174SOPE   C3719798   3.914   3.654   9.516  0.8799 -0.2976  0.0477
  174SOPE   H7X19799   3.841   3.737   9.511  1.9305  0.6583  0.2095
  174SOPE   H7Y19800   3.854   3.563   9.541  0.1070  0.4662  1.0370
  174SOPE   C3819801   3.974   3.628   9.380  0.0485  0.4818  0.1180
  174SOPE   H8X19802   4.033   3.535   9.395 -1.2951 -0.2034  1.3819
  174SOPE   H8Y19803   4.042   3.708   9.344  3.4519 -1.5278  1.6306
  174SOPE   C3919804   3.870   3.601   9.269  0.3002 -0.5083 -0.7526
  174SOPE   H9X19805   3.823   3.701   9.256  1.7716  0.2683 -0.2804
  174SOPE   H9Y19806   3.797   3.529   9.311 -0.6206  0.9121  0.1636
  174SOPE  C31019807   3.927   3.551   9.134 -0.3977  0.0562 -0.5906
  174SOPE  H10X19808   3.967   3.448   9.147 -1.6016 -0.6567 -2.0900
  174SOPE  H10Y19809   3.997   3.634   9.116 -0.4524  0.4093  0.7602
  174SOPE  C31119810   3.819   3.545   9.023 -0.6494 -0.3602  0.4115
  174SOPE  H11X19811   3.745   3.626   9.042 -1.7459 -0.9086 -1.2841
  174SOPE  H11Y19812   3.772   3.447   9.046 -1.6423  0.1314  0.5630
  174SOPE  C31219813   3.875   3.549   8.882 -0.2873 -0.2623  0.1912
  174SOPE  H12X19814   3.922   3.452   8.855  1.7066  0.5479  0.5497
  174SOPE  H12Y19815   3.955   3.624   8.865 -0.8469  0.5031  0.8263
  174SOPE  C31319816   3.776   3.597   8.768 -0.8064  0.7640  0.2681
  174SOPE  H13X19817   3.751   3.705   8.777 -0.7591  1.0602 -2.4186
  174SOPE  H13Y19818   3.682   3.538   8.766 -0.6818  0.3454  3.0944
  174SOPE  C31419819   3.831   3.589   8.626 -0.3043 -0.4143  0.5885
  174SOPE  H14X19820   3.860   3.488   8.592 -1.1574 -0.2094 -0.8270
  174SOPE  H14Y19821   3.928   3.643   8.626  1.3934 -3.2479  1.5190
  174SOPE  C31519822   3.729   3.646   8.523 -0.0545 -0.7030  0.8101
  174SOPE  H15X19823   3.711   3.751   8.552 -1.3640 -0.7659  0.2683
  174SOPE  H15Y19824   3.637   3.584   8.519 -1.1645  0.9696 -1.2974
  174SOPE  C31619825   3.799   3.671   8.385 -0.0020  0.4732 -0.1368
  174SOPE  H16X19826   3.830   3.574   8.342 -1.0191 -0.0502  0.2596
  174SOPE  H16Y19827   3.889   3.733   8.402  1.2538 -1.1215 -0.8093
  174SOPE  C31719828   3.711   3.738   8.277  0.1055 -0.4547  0.2475
  174SOPE  H17X19829   3.730   3.847   8.293  0.4829 -0.7138  1.6426
  174SOPE  H17Y19830   3.606   3.710   8.300 -0.1312  0.0528 -0.1875
  174SOPE  C31819831   3.744   3.691   8.132 -0.3325 -0.4681  0.3293
  174SOPE  H18X19832   3.685   3.738   8.050  1.0929  1.0727  0.1445
  174SOPE  H18Y19833   3.718   3.583   8.124  0.8442 -0.7580  0.3324
  174SOPE  H18Z19834   3.853   3.706   8.120 -0.1110 -1.3518  1.0931
  175SOPE     N19835   3.945   3.836  10.852 -0.3111  0.4100  0.1529
  175SOPE   HN119836   4.039   3.853  10.894  0.0501 -0.5635 -0.2181
  175SOPE   HN219837   3.901   3.930  10.844 -1.9958 -0.4909 -3.5436
  175SOPE   HN319838   3.885   3.781  10.916 -1.1025  1.1394  0.0558
  175SOPE   C1219839   3.978   3.776  10.719  0.2640  0.0100 -0.2491
  175SOPE  H12A19840   3.885   3.766  10.659 -0.3193  0.5730  0.5416
  175SOPE  H12B19841   4.013   3.672  10.736  2.1651  1.1302  3.8025
  175SOPE   C1119842   4.086   3.853  10.643 -0.5527 -0.3532 -0.2572
  175SOPE  H11A19843   4.103   3.809  10.542  0.1375 -2.8809  0.8721
  175SOPE  H11B19844   4.183   3.838  10.694 -0.9870 -0.1508  0.6540
  175SOPE     P19845   3.943   4.036  10.533 -0.0053 -0.0800 -0.0744
  175SOPE   O1319846   3.937   4.186  10.528 -0.2057 -0.2579 -0.1597
  175SOPE   O1419847   3.816   3.963  10.555 -0.4679 -0.0032  0.0942
  175SOPE   O1219848   4.052   3.991  10.642 -0.2628  0.4265 -0.1627
  175SOPE   O1119849   4.003   3.979  10.397  0.1965 -0.7853 -0.2558
  175SOPE    C119850   4.023   4.049  10.278  0.1161  0.1298 -0.7907
  175SOPE    HA19851   4.102   3.998  10.218  0.3639 -2.0722  1.2415
  175SOPE    HB19852   4.066   4.147  10.307  0.6914 -0.0819 -0.9205
  175SOPE    C219853   3.885   4.061  10.210  0.9204 -0.0137 -0.2334
  175SOPE    HS19854   3.814   4.099  10.286  1.0380 -0.0682 -0.0963
  175SOPE   O2119855   3.843   3.935  10.141  0.1544  0.4944  0.2137
  175SOPE   C2119856   3.718   3.944  10.091 -0.2797  0.2244  0.1369
  175SOPE   O2219857   3.644   4.036  10.112  0.1078  0.1663 -0.9790
  175SOPE   C2219858   3.676   3.831  10.004  0.5240  0.7231 -0.1948
  175SOPE   H2R19859   3.635   3.751  10.069 -0.0977  1.4611  0.3436
  175SOPE   H2S19860   3.769   3.800   9.952  0.0091 -1.0821 -0.0917
  175SOPE    C319861   3.895   4.181  10.106 -0.0810 -0.4564 -0.4004
  175SOPE    HX19862   3.795   4.196  10.060 -1.1838 -0.5366  1.7948
  175SOPE    HY19863   3.961   4.144  10.025  1.6412  1.2071  0.1922
  175SOPE   O3119864   3.933   4.305  10.177 -0.2991  0.4020  0.0027
  175SOPE   C3119865   4.051   4.354  10.132  0.1925 -0.3677 -0.1073
  175SOPE   O3219866   4.120   4.305  10.051  0.1737 -0.3853  0.0377
  175SOPE   C3219867   4.094   4.470  10.211 -0.3370 -0.0455  0.1123
  175SOPE   H2X19868   4.205   4.466  10.204 -0.3732  0.2575 -0.7142
  175SOPE   H2Y19869   4.054   4.445  10.312 -0.1515  0.3651  0.2873
  175SOPE   C2319870   3.569   3.875   9.889  0.1054 -0.1322  0.1471
  175SOPE   H3R19871   3.600   3.970   9.841 -0.0923 -0.7218 -1.1818
  175SOPE   H3S19872   3.469   3.884   9.936  0.5952  1.7293  0.8911
  175SOPE   C2419873   3.545   3.775   9.780 -0.8754 -0.1455 -0.4360
  175SOPE   H4R19874   3.630   3.747   9.715 -1.5529  2.0360 -2.4008
  175SOPE   H4S19875   3.506   3.678   9.817  0.6840  0.2408  2.5451
  175SOPE   C2519876   3.435   3.827   9.682 -0.1095 -0.8360 -0.2064
  175SOPE   H5R19877   3.350   3.857   9.747  0.2195 -2.2478  0.9207
  175SOPE   H5S19878   3.473   3.920   9.633 -2.1665  0.2839  0.2087
  175SOPE   C2619879   3.390   3.729   9.571  0.0380 -0.5510 -0.6492
  175SOPE   H6R19880   3.470   3.679   9.512 -1.1757  0.3754 -3.2153
  175SOPE   H6S19881   3.329   3.652   9.623  0.4507 -0.0997  0.5515
  175SOPE   C2719882   3.288   3.796   9.484  0.2136 -0.4786 -0.1819
  175SOPE   H7R19883   3.209   3.824   9.557  1.0790 -0.4952  0.7783
  175SOPE   H7S19884   3.336   3.885   9.436 -1.1398  0.4273  0.0837
  175SOPE   C2819885   3.231   3.701   9.379 -0.6721  0.4246 -0.2095
  175SOPE   H8R19886   3.186   3.615   9.434 -0.8490  0.0937 -0.8590
  175SOPE   H8S19887   3.149   3.767   9.343 -0.8023 -1.0167 -2.8158
  175SOPE   C2919888   3.324   3.650   9.273 -0.3832 -0.7464  0.1500
  175SOPE   H9119889   3.339   3.717   9.187  1.2986 -1.9521 -0.5640
  175SOPE  C21019890   3.389   3.531   9.259  0.5489 -0.2689  0.2966
  175SOPE  H10119891   3.451   3.510   9.170 -1.4677  0.8380 -1.4761
  175SOPE  C21119892   3.393   3.406   9.346  0.4141  0.6238 -0.6300
  175SOPE  H11R19893   3.385   3.312   9.288 -0.8785  0.4184 -0.1555
  175SOPE  H11S19894   3.301   3.397   9.407 -0.1429  1.3900 -1.3227
  175SOPE  C21219895   3.507   3.400   9.437 -0.0824  0.4885 -0.0066
  175SOPE  H12R19896   3.495   3.470   9.522  0.4478  0.7089 -0.1078
  175SOPE  H12S19897   3.598   3.436   9.383 -0.5435  1.9511  0.1445
  175SOPE  C21319898   3.546   3.254   9.478  0.2429  0.2274 -0.5430
  175SOPE  H13R19899   3.557   3.193   9.386 -0.2957 -2.0907  0.8486
  175SOPE  H13S19900   3.475   3.198   9.544  1.1284 -0.5009 -0.1793
  175SOPE  C21419901   3.687   3.258   9.541 -0.2271 -0.6112 -0.2769
  175SOPE  H14R19902   3.757   3.308   9.471  0.4727 -2.1425 -0.7125
  175SOPE  H14S19903   3.714   3.152   9.561 -2.1837 -0.7777  1.9096
  175SOPE  C21519904   3.710   3.323   9.677 -0.1902 -0.0305 -0.5216
  175SOPE  H15R19905   3.686   3.432   9.687  0.0206 -0.1929  2.6700
  175SOPE  H15S19906   3.819   3.318   9.699 -0.0309  5.0447  1.2594
  175SOPE  C21619907   3.653   3.242   9.798 -0.1098  0.2527 -0.3715
  175SOPE  H16R19908   3.703   3.143   9.807  2.7773  1.5154 -1.1548
  175SOPE  H16S19909   3.546   3.227   9.776 -0.3983  2.2680 -0.5045
  175SOPE  C21719910   3.665   3.298   9.941 -0.0424 -0.2732  0.3458
  175SOPE  H17R19911   3.770   3.294   9.975  0.0397  0.5522  0.2066
  175SOPE  H17S19912   3.611   3.227  10.008 -1.7831  0.8765  0.2314
  175SOPE  C21819913   3.608   3.441   9.967  0.4966 -0.2799  0.7415
  175SOPE  H18R19914   3.498   3.436   9.952  0.6547 -0.0159 -0.6505
  175SOPE  H18S19915   3.631   3.518   9.890 -0.5881  1.0346  1.6844
  175SOPE  H18T19916   3.649   3.480  10.062 -0.3753  1.1071  0.5821
  175SOPE   C3319917   4.039   4.615  10.179 -0.1244  0.1964 -0.2383
  175SOPE   H3X19918   4.076   4.686  10.256 -1.2632  0.7252 -0.1576
  175SOPE   H3Y19919   3.928   4.603  10.181 -0.2845  0.8289 -2.4685
  175SOPE   C3419920   4.080   4.659  10.039 -0.3073 -0.1948 -1.1613
  175SOPE   H4X19921   4.175   4.607  10.012  0.7249  1.1019 -0.1763
  175SOPE   H4Y19922   4.105   4.766  10.030  0.1163 -0.3318 -1.7030
  175SOPE   C3519923   3.981   4.616   9.928 -0.0844  0.0994  0.4408
  175SOPE   H5X19924   3.883   4.654   9.966  0.2214 -0.6958  2.1202
  175SOPE   H5Y19925   3.971   4.505   9.934  0.6285  0.0445  0.6263
  175SOPE   C3619926   4.025   4.652   9.782  0.5761  0.0174 -0.4205
  175SOPE   H6X19927   4.114   4.596   9.748  1.0126  0.9534 -0.8565
  175SOPE   H6Y19928   4.036   4.762   9.773 -0.4971  0.1273 -0.5140
  175SOPE   C3719929   3.914   4.610   9.683 -0.0299 -0.4693 -0.1285
  175SOPE   H7X19930   3.816   4.660   9.696  0.0223 -0.4099  0.0374
  175SOPE   H7Y19931   3.880   4.506   9.699 -1.8343  0.3208  1.6145
  175SOPE   C3819932   3.959   4.628   9.535 -1.0110  0.6165 -0.4774
  175SOPE   H8X19933   4.046   4.562   9.517  0.1812  2.1979 -0.6831
  175SOPE   H8Y19934   3.991   4.731   9.510 -0.4991  0.7254  0.5806
  175SOPE   C3919935   3.852   4.583   9.428  0.2566  0.0168  0.6027
  175SOPE   H9X19936   3.759   4.643   9.418  0.6410  0.2779 -3.5120
  175SOPE   H9Y19937   3.835   4.480   9.464  0.3081 -0.0161  0.5314
  175SOPE  C31019938   3.920   4.584   9.285  0.4329 -0.4274  0.4838
  175SOPE  H10X19939   3.967   4.485   9.268  0.5391 -0.4248  0.7568
  175SOPE  H10Y19940   3.996   4.663   9.274 -2.4591  2.2914 -1.5754
  175SOPE  C31119941   3.816   4.598   9.175  0.4046 -0.0385 -0.5108
  175SOPE  H11X19942   3.756   4.691   9.190 -2.1707 -1.7997  0.8617
  175SOPE  H11Y19943   3.748   4.511   9.171  1.6131 -1.2291  2.1818
  175SOPE  C31219944   3.882   4.603   9.031  1.0270 -0.8716 -0.0236
  175SOPE  H12X19945   3.947   4.514   9.021 -0.2235 -1.7104 -0.8895
  175SOPE  H12Y19946   3.949   4.692   9.031 -0.9566  0.7238  0.9241
  175SOPE  C31319947   3.777   4.606   8.925  0.5785 -0.2169 -0.0902
  175SOPE  H13X19948   3.720   4.701   8.928 -0.6056 -0.9340  2.0706
  175SOPE  H13Y19949   3.698   4.528   8.936  0.6165 -0.2174  0.1843
  175SOPE  C31419950   3.831   4.592   8.780  0.1430  0.0046  0.8558
  175SOPE  H14X19951   3.871   4.489   8.767  0.2918  0.0176  1.2084
  175SOPE  H14Y19952   3.913   4.661   8.753 -1.8433  1.8007 -0.9665
  175SOPE  C31519953   3.712   4.597   8.683  0.0569 -0.0945  0.0869
  175SOPE  H15X19954   3.624   4.551   8.733 -0.3097 -0.7929 -1.1481
  175SOPE  H15Y19955   3.743   4.540   8.593  4.2461  0.0603  1.2537
  175SOPE  C31619956   3.671   4.742   8.632  0.1644  0.3832 -0.4162
  175SOPE  H16X19957   3.624   4.786   8.722 -1.6807  1.0359 -1.6291
  175SOPE  H16Y19958   3.593   4.737   8.553  0.2935  1.8377 -0.6519
  175SOPE  C31719959   3.784   4.835   8.588  0.3122 -0.3067 -0.5121
  175SOPE  H17X19960   3.835   4.771   8.513 -0.9105 -0.4558 -1.2469
  175SOPE  H17Y19961   3.859   4.862   8.666  0.3018 -2.0705  0.1664
  175SOPE  C31819962   3.728   4.966   8.526  0.1655  0.0218 -0.1415
  175SOPE  H18X19963   3.805   5.005   8.456 -2.1839  1.2922 -2.1550
  175SOPE  H18Y19964   3.715   5.035   8.613 -0.6008 -0.9467  0.5319
  175SOPE  H18Z19965   3.634   4.940   8.473 -0.2904  2.5589 -0.7503
  176SOPE     N19966   4.369   3.575  10.825 -0.3900  0.5682 -0.3289
  176SOPE   HN119967   4.301   3.547  10.898  0.7355 -0.4413  0.3723
  176SOPE   HN219968   4.461   3.540  10.858 -0.4596 -0.5712 -1.2708
  176SOPE   HN319969   4.383   3.677  10.811 -0.2051  0.7203  0.8825
  176SOPE   C1219970   4.336   3.509  10.698 -0.3815 -0.0954 -0.1497
  176SOPE  H12A19971   4.426   3.516  10.633  0.4007 -0.2986  0.8960
  176SOPE  H12B19972   4.244   3.554  10.655 -1.6461 -1.3508  1.1495
  176SOPE   C1119973   4.299   3.362  10.718  0.4385 -0.7709  0.0490
  176SOPE  H11A19974   4.278   3.313  10.620  1.1815  1.0232 -1.0642
  176SOPE  H11B19975   4.207   3.348  10.779  0.7913 -1.8961  0.3536
  176SOPE     P19976   4.388   3.174  10.887 -0.1097  0.0910  0.2493
  176SOPE   O1319977   4.287   3.218  10.985 -0.5825 -0.4186 -0.4411
  176SOPE   O1419978   4.517   3.134  10.942 -0.1990 -0.5884  0.5834
  176SOPE   O1219979   4.401   3.294  10.793 -0.3212  0.1489 -0.0349
  176SOPE   O1119980   4.322   3.067  10.791  0.4608 -0.0809  0.2012
  176SOPE    C119981   4.396   2.973  10.703 -0.5211  0.2141  0.3796
  176SOPE    HA19982   4.324   2.898  10.664  1.1162 -1.0539 -0.3345
  176SOPE    HB19983   4.464   2.908  10.762 -0.8840 -0.0270  0.5355
  176SOPE    C219984   4.468   3.050  10.587 -0.0573  1.0435  0.0126
  176SOPE    HS19985   4.530   3.128  10.634 -1.9692  1.0474  2.7341
  176SOPE   O2119986   4.370   3.104  10.492  0.0380 -0.5888  0.2825
  176SOPE   C2119987   4.425   3.207  10.419 -0.5405  0.2635  0.4543
  176SOPE   O2219988   4.536   3.255  10.449  0.2960 -0.5204 -0.2216
  176SOPE   C2219989   4.341   3.251  10.305  0.4166  0.9761  0.6759
  176SOPE   H2R19990   4.233   3.262  10.328 -1.1114 -2.8181 -3.1310
  176SOPE   H2S19991   4.326   3.160  10.243  1.3101  0.1081  1.6940
  176SOPE    C319992   4.560   2.952  10.508  0.8864 -0.0279  0.4276
  176SOPE    HX19993   4.616   2.897  10.587 -3.8219 -3.5923  1.6920
  176SOPE    HY19994   4.622   2.994  10.426 -1.6132  1.0043 -1.0391
  176SOPE   O3119995   4.480   2.847  10.448  0.2625  0.0808  0.4015
  176SOPE   C3119996   4.448   2.855  10.325 -0.6289 -0.0297 -0.2243
  176SOPE   O3219997   4.498   2.938  10.242  0.3815 -0.2675 -0.3088
  176SOPE   C3219998   4.323   2.774  10.284 -0.0860 -0.3061 -0.2665
  176SOPE   H2X19999   4.244   2.818  10.348 -0.9758  1.7888 -2.6198
  176SOPE   H2Y20000   4.327   2.666  10.311 -0.9142  0.2651  2.4127
  176SOPE   C2320001   4.381   3.368  10.221  0.5750  0.1580  0.5359
  176SOPE   H3R20002   4.393   3.457  10.286 -0.3456 -0.1920  1.2007
  176SOPE   H3S20003   4.303   3.397  10.147  1.8347 -1.0188 -1.3386
  176SOPE   C2420004   4.507   3.344  10.132 -0.6342 -0.3214  0.2231
  176SOPE   H4R20005   4.600   3.340  10.193 -1.0032  1.0708  0.9148
  176SOPE   H4S20006   4.495   3.250  10.075 -0.1937  0.4791 -1.2380
  176SOPE   C2520007   4.518   3.470  10.041  0.0936  0.5804 -0.0529
  176SOPE   H5R20008   4.467   3.562  10.077 -0.3413 -0.0918  1.0846
  176SOPE   H5S20009   4.622   3.506  10.023  0.1844 -0.2593 -1.3553
  176SOPE   C2620010   4.458   3.447   9.900 -0.3432 -0.5309  0.0548
  176SOPE   H6R20011   4.514   3.366   9.849  0.0322  0.3660 -0.9953
  176SOPE   H6S20012   4.350   3.421   9.893 -0.9205  2.1472 -2.7518
  176SOPE   C2720013   4.475   3.570   9.823 -0.3860 -0.1939  0.0327
  176SOPE   H7R20014   4.417   3.648   9.877 -0.0061 -1.4221  2.3124
  176SOPE   H7S20015   4.582   3.601   9.826 -0.3715 -0.2917  0.6441
  176SOPE   C2820016   4.434   3.561   9.678  0.1422  0.3054 -0.5408
  176SOPE   H8R20017   4.495   3.490   9.619  1.1360  1.2928 -0.7323
  176SOPE   H8S20018   4.333   3.516   9.684  0.8062 -1.3342 -1.2694
  176SOPE   C2920019   4.427   3.694   9.612  0.3807  0.8913 -0.2097
  176SOPE   H9120020   4.382   3.764   9.684  1.6327  0.8278  0.6600
  176SOPE  C21020021   4.460   3.735   9.490  0.7502 -0.7429 -0.5527
  176SOPE  H10120022   4.434   3.838   9.461 -1.2206 -0.9643  0.2642
  176SOPE  C21120023   4.514   3.646   9.383  0.0970 -0.8755 -0.3754
  176SOPE  H11R20024   4.546   3.550   9.429  0.4734  0.1538  1.6310
  176SOPE  H11S20025   4.597   3.693   9.326 -1.0070 -0.2109 -1.4907
  176SOPE  C21220026   4.412   3.619   9.281  0.2517  0.4512  0.4812
  176SOPE  H12R20027   4.374   3.717   9.244  0.5103 -0.3413 -2.0816
  176SOPE  H12S20028   4.330   3.561   9.330  0.7393 -1.0225 -0.3701
  176SOPE  C21320029   4.467   3.535   9.165  0.4596 -0.3548 -0.1063
  176SOPE  H13R20030   4.468   3.431   9.205  0.6656 -0.6219 -0.7905
  176SOPE  H13S20031   4.567   3.560   9.124 -0.5511  1.9670 -1.3423
  176SOPE  C21420032   4.373   3.534   9.042 -0.2368  0.7363  0.0565
  176SOPE  H14R20033   4.391   3.620   8.973 -4.2357  1.5439 -0.2586
  176SOPE  H14S20034   4.264   3.543   9.062  0.0993  2.1120  1.4505
  176SOPE  C21520035   4.405   3.397   8.961 -0.1512 -0.3159 -0.0113
  176SOPE  H15R20036   4.364   3.313   9.021  1.6529 -2.9888 -2.2395
  176SOPE  H15S20037   4.516   3.390   8.959 -0.1160 -0.9834  2.0343
  176SOPE  C21620038   4.343   3.389   8.822  0.2784 -0.3749 -0.1281
  176SOPE  H16R20039   4.373   3.480   8.766 -0.1721 -0.1145  0.0469
  176SOPE  H16S20040   4.234   3.401   8.838  0.1455  0.5019 -1.5073
  176SOPE  C21720041   4.377   3.266   8.751  0.6469  0.3639 -0.0851
  176SOPE  H17R20042   4.388   3.179   8.819  2.5077  0.9687  0.4497
  176SOPE  H17S20043   4.473   3.273   8.695  1.5548  0.2729  1.4142
  176SOPE  C21820044   4.262   3.225   8.658  0.2079  0.4122  0.3006
  176SOPE  H18R20045   4.171   3.209   8.719 -1.4860 -0.0596 -2.2048
  176SOPE  H18S20046   4.285   3.128   8.610  2.5365  2.0786 -2.2222
  176SOPE  H18T20047   4.242   3.300   8.578 -0.0730  0.0090 -0.0059
  176SOPE   C3320048   4.273   2.806  10.137  0.2110  0.0909  0.0076
  176SOPE   H3X20049   4.279   2.914  10.111  1.3079  0.0209 -0.0950
  176SOPE   H3Y20050   4.164   2.791  10.122  0.5108 -2.0195 -0.2957
  176SOPE   C3420051   4.355   2.732  10.027  0.0038 -0.8417  0.2779
  176SOPE   H4X20052   4.352   2.622  10.042 -0.7701 -1.1522 -1.8488
  176SOPE   H4Y20053   4.461   2.762  10.016 -0.5033  1.0027 -0.0969
  176SOPE   C3520054   4.287   2.768   9.896 -0.7037 -0.8193 -0.0237
  176SOPE   H5X20055   4.295   2.878   9.880 -1.3564 -0.8795 -0.8280
  176SOPE   H5Y20056   4.184   2.731   9.911 -1.5994  2.3700  3.2060
  176SOPE   C3620057   4.356   2.703   9.777  0.2445  0.5549  0.3757
  176SOPE   H6X20058   4.366   2.596   9.804 -3.1427 -0.0817 -0.4235
  176SOPE   H6Y20059   4.453   2.756   9.764  0.0461  0.5879 -1.1256
  176SOPE   C3720060   4.267   2.729   9.653 -0.0408  0.0590 -0.7303
  176SOPE   H7X20061   4.232   2.834   9.654  0.5050  0.2440 -0.8282
  176SOPE   H7Y20062   4.175   2.666   9.659  0.5767 -0.8698 -0.6807
  176SOPE   C3820063   4.338   2.684   9.521 -0.2935 -0.2269 -0.2720
  176SOPE   H8X20064   4.351   2.574   9.515  1.3667 -0.1256  0.7295
  176SOPE   H8Y20065   4.441   2.725   9.528 -1.4139  2.4946  3.6858
  176SOPE   C3920066   4.254   2.735   9.399  0.0142 -0.1170  0.7757
  176SOPE   H9X20067   4.223   2.839   9.425  1.8633  0.9820 -1.1002
  176SOPE   H9Y20068   4.163   2.673   9.384  1.1108 -2.0354  1.6764
  176SOPE  C31020069   4.333   2.738   9.269 -0.3881  1.0073 -0.3098
  176SOPE  H10X20070   4.431   2.784   9.293  0.5930 -0.6745 -0.8540
  176SOPE  H10Y20071   4.284   2.800   9.191 -1.3096 -0.8547 -1.2897
  176SOPE  C31120072   4.366   2.601   9.210 -0.2298  0.8500 -0.1180
  176SOPE  H11X20073   4.282   2.530   9.225 -0.1106  0.1738 -2.2095
  176SOPE  H11Y20074   4.455   2.559   9.261  0.3399  2.8117  0.5801
  176SOPE  C31220075   4.399   2.596   9.063  0.1062 -0.6857  0.2407
  176SOPE  H12X20076   4.308   2.634   9.010 -0.1559 -3.2353 -1.3281
  176SOPE  H12Y20077   4.410   2.490   9.034 -2.5792 -1.0155  0.1291
  176SOPE  C31320078   4.525   2.674   9.028  0.2816  0.0334 -0.1555
  176SOPE  H13X20079   4.605   2.626   9.088 -1.3892 -1.6614  0.8367
  176SOPE  H13Y20080   4.509   2.781   9.054  1.6368  0.1288  0.3386
  176SOPE  C31420081   4.553   2.677   8.877 -0.2046  1.1513 -0.4703
  176SOPE  H14X20082   4.463   2.689   8.813  0.9032 -4.1100 -3.6083
  176SOPE  H14Y20083   4.588   2.576   8.847 -1.0604  1.2319 -1.8106
  176SOPE  C31520084   4.652   2.785   8.843 -1.1196  0.5436  0.3424
  176SOPE  H15X20085   4.754   2.765   8.881 -1.7521 -0.3917  1.6297
  176SOPE  H15Y20086   4.623   2.875   8.902 -2.9525  0.9749 -1.0967
  176SOPE  C31620087   4.660   2.828   8.698 -0.1193  0.6847 -0.1476
  176SOPE  H16X20088   4.665   2.734   8.640  2.5254  0.7445 -0.1279
  176SOPE  H16Y20089   4.756   2.877   8.670 -0.4546  0.8855 -0.9606
  176SOPE  C31720090   4.534   2.900   8.652  0.4840 -0.3127 -0.0197
  176SOPE  H17X20091   4.529   2.996   8.708  2.1064 -0.8682  1.1627
  176SOPE  H17Y20092   4.444   2.837   8.669  0.1723  0.4222  1.2397
  176SOPE  C31820093   4.539   2.930   8.506  0.5656  0.5226 -0.3030
  176SOPE  H18X20094   4.611   3.014   8.490 -0.8073  1.6650 -0.7047
  176SOPE  H18Y20095   4.436   2.967   8.484 -0.6864 -1.9828  0.9957
  176SOPE  H18Z20096   4.551   2.836   8.449 -0.7414 -0.9868  1.7834
  177SOPE     N20097   3.796   1.697  11.171  0.1455 -0.7662  0.1994
  177SOPE   HN120098   3.793   1.745  11.078 -0.3139 -2.0536 -0.4845
  177SOPE   HN220099   3.733   1.735  11.245 -0.6516 -0.7324 -0.4739
  177SOPE   HN320100   3.894   1.703  11.204  1.5407  4.1569 -3.5170
  177SOPE   C1220101   3.761   1.557  11.134 -0.0679  0.2059 -0.1985
  177SOPE  H12A20102   3.662   1.563  11.082 -0.7189 -1.6701  0.7164
  177SOPE  H12B20103   3.749   1.515  11.236  1.0990  1.2679  0.3994
  177SOPE   C1120104   3.866   1.488  11.049 -0.2984  0.1686 -0.5050
  177SOPE  H11A20105   3.848   1.524  10.946  0.0641  1.3176 -0.1922
  177SOPE  H11B20106   3.847   1.379  11.053  1.2771 -0.2081 -2.1165
  177SOPE     P20107   4.130   1.454  11.083  0.2743  0.3289  0.0797
  177SOPE   O1320108   4.131   1.345  11.180  0.0369 -0.4906  0.1527
  177SOPE   O1420109   4.241   1.549  11.082 -0.2034  0.5863 -0.0717
  177SOPE   O1220110   3.993   1.527  11.104  0.2817 -0.5301  0.0202
  177SOPE   O1120111   4.119   1.388  10.942 -0.2232  0.1145 -0.6935
  177SOPE    C120112   4.110   1.465  10.820 -0.6973  0.1782 -0.7110
  177SOPE    HA20113   4.075   1.570  10.826 -1.6946 -0.0188 -2.3905
  177SOPE    HB20114   4.047   1.407  10.748  0.2930 -0.6007 -0.9771
  177SOPE    C220115   4.251   1.460  10.742  0.1809 -0.0959  0.3249
  177SOPE    HS20116   4.317   1.544  10.773  1.2553 -1.4482  1.7984
  177SOPE   O2120117   4.223   1.460  10.592  0.6540  0.1668 -0.4670
  177SOPE   C2120118   4.206   1.585  10.548  0.3331  0.0673 -0.0423
  177SOPE   O2220119   4.217   1.684  10.622  0.7983 -0.4421 -0.0977
  177SOPE   C2220120   4.162   1.580  10.406 -0.0945 -0.0852 -0.4756
  177SOPE   H2R20121   4.058   1.542  10.408  0.1250 -0.6739  0.3989
  177SOPE   H2S20122   4.230   1.505  10.359  0.7812 -0.7094  1.6805
  177SOPE    C320123   4.328   1.337  10.778 -0.1537  0.1186  0.2077
  177SOPE    HX20124   4.284   1.248  10.729 -0.1216 -1.6265  3.0849
  177SOPE    HY20125   4.320   1.323  10.888  1.5736  0.7974  0.4618
  177SOPE   O3120126   4.468   1.356  10.756 -0.1882  0.9164  0.3144
  177SOPE   C3120127   4.519   1.328  10.635  0.1088  1.0998 -0.3533
  177SOPE   O3220128   4.460   1.272  10.539 -0.0886 -0.1137 -0.7294
  177SOPE   C3220129   4.668   1.348  10.638 -0.2331  1.0026 -0.4282
  177SOPE   H2X20130   4.722   1.287  10.562  1.3004 -1.9626  2.7651
  177SOPE   H2Y20131   4.705   1.302  10.732 -1.8401 -1.8317 -1.0705
  177SOPE   C2320132   4.164   1.724  10.358 -0.2511  0.5545  0.3746
  177SOPE   H3R20133   4.263   1.769  10.379 -0.2216  0.0584  1.3631
  177SOPE   H3S20134   4.091   1.788  10.412  0.0837  0.3484  1.0876
  177SOPE   C2420135   4.146   1.732  10.205 -0.1832  0.2069 -0.0897
  177SOPE   H4R20136   4.225   1.676  10.150  1.0884 -1.3744  3.1086
  177SOPE   H4S20137   4.054   1.682  10.169  0.8925 -0.4510 -2.1140
  177SOPE   C2520138   4.142   1.877  10.147 -0.2157  0.4547  0.4013
  177SOPE   H5R20139   4.037   1.909  10.167 -0.4197 -1.1232  2.1058
  177SOPE   H5S20140   4.220   1.935  10.201  0.3894  1.6345 -1.6329
  177SOPE   C2620141   4.163   1.877   9.999 -0.3729 -1.1295  0.7343
  177SOPE   H6R20142   4.116   1.975   9.976 -0.3587 -1.5336 -1.2333
  177SOPE   H6S20143   4.272   1.873   9.979 -0.2116  0.7082  1.0612
  177SOPE   C2720144   4.083   1.785   9.915  0.2785  0.0645 -0.9337
  177SOPE   H7R20145   4.112   1.680   9.936  0.0768  0.3955  1.2297
  177SOPE   H7S20146   3.978   1.795   9.950  1.2562  0.0518  2.3779
  177SOPE   C2820147   4.106   1.798   9.759  0.3339 -0.5105  0.1711
  177SOPE   H8R20148   4.216   1.790   9.743  0.1213 -0.8922 -1.2248
  177SOPE   H8S20149   4.072   1.719   9.689 -0.3365 -1.4128  1.4764
  177SOPE   C2920150   4.053   1.935   9.708  0.6359  1.0863 -1.2636
  177SOPE   H9120151   4.037   2.007   9.789 -1.2211  2.3996 -2.7169
  177SOPE  C21020152   4.012   1.967   9.589  0.6462 -0.1607  0.5297
  177SOPE  H10120153   3.968   2.066   9.571  0.6051  0.0461  1.7434
  177SOPE  C21120154   4.014   1.873   9.473 -0.3884  0.7345  0.6732
  177SOPE  H11R20155   3.908   1.846   9.458 -0.5912  1.5430  0.6340
  177SOPE  H11S20156   4.081   1.785   9.485  0.4918  1.5410  1.9233
  177SOPE  C21220157   4.067   1.929   9.338  0.4138 -0.1430  0.5066
  177SOPE  H12R20158   4.176   1.942   9.354  0.4354 -0.6024  0.7751
  177SOPE  H12S20159   4.024   2.026   9.308  1.0552  0.5728  1.8163
  177SOPE  C21320160   4.042   1.833   9.217 -0.5909  0.3942  0.2012
  177SOPE  H13R20161   4.113   1.748   9.214  2.0926  2.5547 -0.6399
  177SOPE  H13S20162   4.081   1.887   9.128  3.5248  2.7534  3.0887
  177SOPE  C21420163   3.896   1.793   9.194  0.4325 -0.2340  0.0983
  177SOPE  H14R20164   3.825   1.876   9.212 -0.1630 -0.1704 -2.2691
  177SOPE  H14S20165   3.873   1.708   9.262  1.1289  1.7647  3.0222
  177SOPE  C21520166   3.862   1.745   9.055  1.0448 -0.1386  0.1441
  177SOPE  H15R20167   3.935   1.665   9.030  2.0307  0.7077  0.2480
  177SOPE  H15S20168   3.870   1.834   8.989 -0.8439 -1.5003 -2.0704
  177SOPE  C21620169   3.725   1.679   9.045  0.0957  0.6291  0.5070
  177SOPE  H16R20170   3.662   1.754   9.098  0.3856 -0.3984  2.3575
  177SOPE  H16S20171   3.708   1.581   9.094  0.8709 -0.1888 -0.7879
  177SOPE  C21720172   3.671   1.661   8.905  0.1765  0.1387  0.1737
  177SOPE  H17R20173   3.735   1.588   8.850 -0.8862 -2.2451  1.9687
  177SOPE  H17S20174   3.674   1.760   8.854 -0.7881 -0.4906 -1.1833
  177SOPE  C21820175   3.531   1.606   8.899 -0.7231 -0.4470  0.1639
  177SOPE  H18R20176   3.544   1.505   8.943  0.3991 -0.1155  0.6239
  177SOPE  H18S20177   3.509   1.592   8.792 -1.8112  0.2607  0.2714
  177SOPE  H18T20178   3.459   1.673   8.952 -2.5129 -2.1737  0.0247
  177SOPE   C3320179   4.702   1.495  10.640  0.1481 -0.1787 -0.3718
  177SOPE   H3X20180   4.810   1.499  10.663  0.0793  0.3033 -0.1193
  177SOPE   H3Y20181   4.660   1.536  10.734 -1.1770 -0.1894 -0.9281
  177SOPE   C3420182   4.696   1.588  10.513 -0.4161  0.4786 -0.6239
  177SOPE   H4X20183   4.752   1.540  10.431 -0.7672  0.8099 -1.0600
  177SOPE   H4Y20184   4.748   1.683  10.538 -0.8678  0.5482  0.0764
  177SOPE   C3520185   4.549   1.608  10.470 -0.5431 -0.0611 -0.2575
  177SOPE   H5X20186   4.502   1.669  10.549  2.5677  0.2886  1.5035
  177SOPE   H5Y20187   4.492   1.516  10.447 -1.8971  0.4674  0.8305
  177SOPE   C3620188   4.541   1.685  10.337  0.2868 -0.1963  0.6640
  177SOPE   H6X20189   4.622   1.762  10.338  1.8421 -1.7775  0.7395
  177SOPE   H6Y20190   4.443   1.731  10.313  0.5358 -0.5471 -1.1139
  177SOPE   C3720191   4.546   1.588  10.217  0.0822 -0.3085  0.2400
  177SOPE   H7X20192   4.469   1.510  10.238 -0.9812  0.4569 -0.6879
  177SOPE   H7Y20193   4.638   1.526  10.203 -0.1854 -1.3619  2.6998
  177SOPE   C3820194   4.525   1.660  10.091  0.1364 -0.2174  0.1740
  177SOPE   H8X20195   4.608   1.731  10.072  1.4622 -2.0630 -1.3190
  177SOPE   H8Y20196   4.425   1.707  10.083  0.4134  0.0089 -3.2480
  177SOPE   C3920197   4.533   1.552   9.979  0.0907 -0.0003 -0.2718
  177SOPE   H9X20198   4.467   1.464   9.996 -0.7557 -0.0081 -3.0773
  177SOPE   H9Y20199   4.638   1.516   9.970  0.5109  1.1624 -0.1757
  177SOPE  C31020200   4.489   1.612   9.840  0.8005 -0.5767 -0.6299
  177SOPE  H10X20201   4.541   1.710   9.827 -1.2787  0.6012 -0.4536
  177SOPE  H10Y20202   4.385   1.645   9.863  1.2671 -0.5085  1.6850
  177SOPE  C31120203   4.500   1.515   9.725 -0.0624  0.3167  0.0846
  177SOPE  H11X20204   4.429   1.430   9.721  0.2351  0.0810 -0.2591
  177SOPE  H11Y20205   4.605   1.479   9.731 -0.0992 -0.0003 -1.0886
  177SOPE  C31220206   4.478   1.593   9.588 -0.0820 -0.2198  0.5661
  177SOPE  H12X20207   4.536   1.687   9.579 -1.8567  1.1076  2.0062
  177SOPE  H12Y20208   4.375   1.634   9.597  0.4820  1.4530 -0.1653
  177SOPE  C31320209   4.489   1.502   9.468  0.6052 -0.4328 -0.4242
  177SOPE  H13X20210   4.398   1.441   9.449  1.3714 -0.9762 -2.6732
  177SOPE  H13Y20211   4.573   1.431   9.484  1.1660  0.3840  0.3651
  177SOPE  C31420212   4.514   1.589   9.343  0.1868  0.1658  0.3030
  177SOPE  H14X20213   4.603   1.653   9.360 -0.2617  1.1656 -0.9434
  177SOPE  H14Y20214   4.426   1.656   9.339 -0.1382 -0.1770  1.5852
  177SOPE  C31520215   4.547   1.502   9.219  0.0784  0.0117 -0.2916
  177SOPE  H15X20216   4.615   1.422   9.256 -2.9025 -1.7032  1.9030
  177SOPE  H15Y20217   4.596   1.558   9.136  1.3510 -0.8717 -0.1732
  177SOPE  C31620218   4.420   1.442   9.155 -0.2935  1.1223  0.7323
  177SOPE  H16X20219   4.355   1.520   9.109  0.7100  0.4121 -2.0922
  177SOPE  H16Y20220   4.358   1.389   9.230  2.6194 -1.6441  1.3928
  177SOPE  C31720221   4.465   1.338   9.038  0.0961  0.6037 -0.1855
  177SOPE  H17X20222   4.537   1.270   9.087  0.2843  0.6047 -0.4625
  177SOPE  H17Y20223   4.522   1.386   8.956  1.3945 -0.6956 -0.0847
  177SOPE  C31820224   4.346   1.269   8.979  0.0026 -0.0078  0.5548
  177SOPE  H18X20225   4.289   1.207   9.052 -1.6824  0.3609 -0.3907
  177SOPE  H18Y20226   4.386   1.192   8.910 -2.9643 -1.9387  0.7929
  177SOPE  H18Z20227   4.289   1.327   8.903 -0.8627 -0.9712  0.4421
  178SOPE     N20228   2.047   2.740  10.655 -0.4808 -0.3452  0.4915
  178SOPE   HN120229   2.045   2.682  10.741  0.2538 -1.5108 -0.2532
  178SOPE   HN220230   2.046   2.840  10.683 -0.9872 -0.6594  1.6449
  178SOPE   HN320231   1.961   2.735  10.597 -0.6629 -2.2843  0.8599
  178SOPE   C1220232   2.162   2.691  10.575  0.0312 -0.4472 -0.2571
  178SOPE  H12A20233   2.260   2.714  10.623 -1.4287  0.6145  2.3979
  178SOPE  H12B20234   2.165   2.762  10.489 -0.2203  1.8316  1.5186
  178SOPE   C1120235   2.140   2.548  10.529  0.0755  0.0108  0.1792
  178SOPE  H11A20236   2.154   2.468  10.605 -4.0584 -1.5416 -0.4221
  178SOPE  H11B20237   2.214   2.527  10.449  0.3951 -1.3539  0.8003
  178SOPE     P20238   1.942   2.378  10.453 -0.0623 -0.4173  0.3019
  178SOPE   O1320239   1.817   2.353  10.529 -0.8116 -1.0303  0.2641
  178SOPE   O1420240   2.052   2.277  10.470  0.0179 -0.7096  0.5215
  178SOPE   O1220241   2.005   2.522  10.483  0.1536  0.4805 -0.6703
  178SOPE   O1120242   1.922   2.392  10.298  0.6535 -0.0234  0.6148
  178SOPE    C120243   2.027   2.454  10.219 -0.1599  0.1451  0.3676
  178SOPE    HA20244   2.129   2.445  10.262 -0.4926  0.0818  1.1565
  178SOPE    HB20245   2.009   2.563  10.211  0.7971  0.3575  0.9959
  178SOPE    C220246   2.025   2.394  10.080 -0.2014 -0.2247 -0.3731
  178SOPE    HS20247   2.029   2.284  10.092 -0.5238 -0.1682  0.2829
  178SOPE   O2120248   2.136   2.449  10.007  0.0685  0.4680 -0.1450
  178SOPE   C2120249   2.254   2.384  10.017 -0.0606 -0.6268 -0.0219
  178SOPE   O2220250   2.271   2.277  10.068  0.3567 -0.1041 -0.0670
  178SOPE   C2220251   2.354   2.465   9.936  0.0855 -0.1144 -0.6598
  178SOPE   H2R20252   2.454   2.424   9.960 -0.5273 -1.1846  0.1870
  178SOPE   H2S20253   2.347   2.573   9.962 -1.4056 -0.0220 -1.3012
  178SOPE    C320254   1.895   2.425   9.998  0.0085 -0.3003  1.2896
  178SOPE    HX20255   1.895   2.535   9.986  0.4870 -0.3788  0.4702
  178SOPE    HY20256   1.803   2.385  10.046  0.7180 -0.6474  2.3935
  178SOPE   O3120257   1.899   2.368   9.866 -0.2227  0.0935 -0.7391
  178SOPE   C3120258   1.790   2.382   9.800  0.3296  0.4088 -0.2630
  178SOPE   O3220259   1.700   2.458   9.840  0.6118  0.3157 -0.2914
  178SOPE   C3220260   1.785   2.300   9.671  0.2017 -0.0915 -0.1697
  178SOPE   H2X20261   1.815   2.370   9.591  0.0260  2.0408  1.5536
  178SOPE   H2Y20262   1.679   2.271   9.652 -0.6374  1.5868  1.5836
  178SOPE   C2320263   2.318   2.462   9.786 -0.1124  0.2822  0.3012
  178SOPE   H3R20264   2.208   2.473   9.779 -0.3961 -1.1904  1.7414
  178SOPE   H3S20265   2.354   2.365   9.746  0.0684  0.0244  1.0693
  178SOPE   C2420266   2.382   2.578   9.708 -0.1511 -0.0976  0.6949
  178SOPE   H4R20267   2.336   2.668   9.754 -0.5033  0.2510 -0.3228
  178SOPE   H4S20268   2.489   2.593   9.733 -0.4317  0.4204  1.6323
  178SOPE   C2520269   2.352   2.558   9.551 -0.1902  0.6220 -0.0898
  178SOPE   H5R20270   2.427   2.480   9.526 -0.0614  1.0106 -0.9738
  178SOPE   H5S20271   2.249   2.518   9.539  0.5892 -1.2652 -0.7429
  178SOPE   C2620272   2.377   2.686   9.480  0.2662 -0.2608  0.4147
  178SOPE   H6R20273   2.299   2.760   9.508  0.7864  1.0630 -1.4420
  178SOPE   H6S20274   2.482   2.713   9.504  0.2203  1.4452 -1.1311
  178SOPE   C2720275   2.388   2.670   9.329 -0.4235  0.1836  0.5084
  178SOPE   H7R20276   2.439   2.764   9.297 -0.4427  0.3896  1.0771
  178SOPE   H7S20277   2.453   2.582   9.309 -3.6524 -1.9745 -1.3585
  178SOPE   C2820278   2.248   2.652   9.278 -0.4119  1.1451 -0.2271
  178SOPE   H8R20279   2.212   2.553   9.314  0.0648 -0.6917 -4.2442
  178SOPE   H8S20280   2.195   2.746   9.303  1.4098  2.5243 -1.2906
  178SOPE   C2920281   2.258   2.620   9.129 -0.1688 -0.1797 -0.3604
  178SOPE   H9120282   2.279   2.516   9.102 -0.1279  0.2626 -2.1741
  178SOPE  C21020283   2.230   2.708   9.036 -0.6675  0.4207  0.6935
  178SOPE  H10120284   2.231   2.674   8.932 -1.0243  1.9998  0.1404
  178SOPE  C21120285   2.192   2.855   9.047  0.4139 -0.4963 -0.1062
  178SOPE  H11R20286   2.263   2.930   9.005  0.4559  0.7432  2.0613
  178SOPE  H11S20287   2.181   2.893   9.151 -1.3506  0.8097 -0.7247
  178SOPE  C21220288   2.055   2.878   8.971  0.5964  0.2686 -0.0402
  178SOPE  H12R20289   2.024   2.976   9.013  2.5489 -0.9137  4.9069
  178SOPE  H12S20290   1.978   2.802   8.998  0.2212  0.6928  0.0866
  178SOPE  C21320291   2.059   2.884   8.824  0.0587  0.0806  0.3068
  178SOPE  H13R20292   2.080   2.786   8.776  0.6184  0.4089 -0.1269
  178SOPE  H13S20293   2.133   2.959   8.790  1.8931 -0.8912  1.9557
  178SOPE  C21420294   1.935   2.926   8.757 -0.5362  0.1885 -0.3132
  178SOPE  H14R20295   1.890   3.013   8.808  1.0652 -0.1732  1.8878
  178SOPE  H14S20296   1.862   2.842   8.747 -1.0656  0.7872 -1.7846
  178SOPE  C21520297   1.950   2.981   8.613  0.0585 -0.4341 -0.3601
  178SOPE  H15R20298   2.007   2.900   8.563  0.8561  1.2007 -2.2641
  178SOPE  H15S20299   2.005   3.077   8.612 -1.3626  0.4302 -1.8040
  178SOPE  C21620300   1.818   3.008   8.540  0.9008  0.1843 -0.2631
  178SOPE  H16R20301   1.776   3.105   8.574 -0.3053  1.2373 -4.2357
  178SOPE  H16S20302   1.733   2.940   8.560  0.3001  1.0959  0.3512
  178SOPE  C21720303   1.834   3.044   8.384  0.1677 -0.8211 -0.6847
  178SOPE  H17R20304   1.913   3.122   8.382 -1.6600  1.1951  1.1677
  178SOPE  H17S20305   1.738   3.092   8.355 -2.1787 -2.2222  3.7876
  178SOPE  C21820306   1.859   2.922   8.289  0.3175 -0.9715 -0.2212
  178SOPE  H18R20307   1.851   2.947   8.181  0.1968  0.6486  0.1425
  178SOPE  H18S20308   1.779   2.851   8.320  0.3603 -0.6249  0.7073
  178SOPE  H18T20309   1.960   2.883   8.313  2.5231  4.5834  1.2053
  178SOPE   C3320310   1.875   2.178   9.685 -0.0763  0.3080 -0.2685
  178SOPE   H3X20311   1.855   2.127   9.782  0.4302 -1.9664 -1.2972
  178SOPE   H3Y20312   1.980   2.213   9.688 -0.0889  0.3427  2.0574
  178SOPE   C3420313   1.861   2.076   9.569  0.3400 -0.2264 -0.2143
  178SOPE   H4X20314   1.755   2.042   9.564 -0.4295  2.1061 -0.6033
  178SOPE   H4Y20315   1.925   1.986   9.588  1.6387  1.0582  1.9207
  178SOPE   C3520316   1.911   2.120   9.433 -0.0960  0.0547 -0.6360
  178SOPE   H5X20317   2.003   2.179   9.449 -1.3206  1.7494  0.4641
  178SOPE   H5Y20318   1.851   2.202   9.389  0.0284 -0.0228 -0.9505
  178SOPE   C3620319   1.945   2.018   9.320 -0.3300  0.0294 -0.0142
  178SOPE   H6X20320   1.849   1.993   9.271 -0.2169  0.6039 -0.5457
  178SOPE   H6Y20321   1.987   1.928   9.371 -1.3501  0.1008  0.9893
  178SOPE   C3720322   2.046   2.076   9.224 -0.5863 -0.5964  0.5104
  178SOPE   H7X20323   2.144   2.097   9.272  1.2393  0.1508 -3.1751
  178SOPE   H7Y20324   2.010   2.178   9.200  1.1058  0.0861  0.7548
  178SOPE   C3820325   2.067   1.984   9.105 -0.7002  0.3885  0.4508
  178SOPE   H8X20326   2.106   1.887   9.143 -1.6480  0.2734  1.1472
  178SOPE   H8Y20327   2.147   2.022   9.037  0.2176  1.5690  2.1413
  178SOPE   C3920328   1.943   1.960   9.022 -0.6284  0.4685 -0.6319
  178SOPE   H9X20329   1.900   2.062   9.009  2.0000  2.0795  2.1007
  178SOPE   H9Y20330   1.870   1.898   9.079 -1.8580  0.9706 -1.6031
  178SOPE  C31020331   1.967   1.882   8.893  0.1278 -0.1069  0.3216
  178SOPE  H10X20332   2.042   1.936   8.830  1.8710 -3.3849 -0.6428
  178SOPE  H10Y20333   1.877   1.878   8.829  0.8075 -2.5303 -0.5636
  178SOPE  C31120334   2.025   1.742   8.916  0.2986 -0.0327 -0.3945
  178SOPE  H11X20335   1.955   1.695   8.989  0.4539  0.1079 -0.1559
  178SOPE  H11Y20336   2.132   1.742   8.945  0.4305 -6.0543  0.2317
  178SOPE  C31220337   2.026   1.638   8.798 -0.0220  0.3339  0.2965
  178SOPE  H12X20338   2.092   1.552   8.823 -1.1709 -1.3307 -2.0300
  178SOPE  H12Y20339   2.065   1.686   8.706  1.1258  0.0022  0.5977
  178SOPE  C31320340   1.880   1.574   8.770  0.0113 -0.5186 -0.3235
  178SOPE  H13X20341   1.826   1.661   8.728 -0.1908  0.4275  1.7812
  178SOPE  H13Y20342   1.829   1.557   8.867 -1.0200 -2.3790 -1.1195
  178SOPE  C31420343   1.896   1.457   8.672  0.6248  0.1224  0.6159
  178SOPE  H14X20344   1.909   1.361   8.727  0.9591 -1.2605 -1.7553
  178SOPE  H14Y20345   1.994   1.468   8.623 -0.4470  0.8415 -1.4815
  178SOPE  C31520346   1.773   1.427   8.586  0.0151  0.5060  0.6177
  178SOPE  H15X20347   1.786   1.323   8.549  1.1628  0.3166  1.4977
  178SOPE  H15Y20348   1.768   1.496   8.499  1.8177  0.6819  0.6132
  178SOPE  C31620349   1.636   1.412   8.663 -0.2756  0.4082  0.0742
  178SOPE  H16X20350   1.602   1.511   8.701  0.2625  1.1417 -1.2595
  178SOPE  H16Y20351   1.642   1.350   8.755  0.2432 -1.2582 -1.0350
  178SOPE  C31720352   1.532   1.330   8.585 -0.2275  0.3215  0.3648
  178SOPE  H17X20353   1.548   1.221   8.600  1.0488  0.5759  1.0359
  178SOPE  H17Y20354   1.547   1.356   8.478  1.6601 -1.4655  0.1177
  178SOPE  C31820355   1.384   1.361   8.624 -0.5701 -0.1327 -0.4834
  178SOPE  H18X20356   1.352   1.311   8.718  1.8866 -0.8156  0.0716
  178SOPE  H18Y20357   1.309   1.334   8.547 -0.7367 -1.3886  0.0902
  178SOPE  H18Z20358   1.373   1.471   8.628  1.4806  0.1820 -1.8208
  179SOPE     N20359   4.237   3.081   6.405  0.3577 -0.5325  0.0392
  179SOPE   HN120360   4.323   3.075   6.464  1.0706 -1.8860 -1.0861
  179SOPE   HN220361   4.213   3.181   6.388  0.2480 -0.8743 -2.2063
  179SOPE   HN320362   4.163   3.039   6.465  0.0708  0.3611  0.3260
  179SOPE   C1220363   4.246   3.007   6.274 -0.0145 -0.8042  0.4508
  179SOPE  H12A20364   4.323   3.060   6.213 -2.3118  2.7160  0.3216
  179SOPE  H12B20365   4.146   3.019   6.227  0.5989 -0.0633 -0.7070
  179SOPE   C1120366   4.293   2.862   6.304 -0.2853  0.2130 -0.1375
  179SOPE  H11A20367   4.389   2.882   6.357  1.8522  1.2066 -4.0443
  179SOPE  H11B20368   4.321   2.816   6.207  1.0824  2.0286 -0.6654
  179SOPE     P20369   4.218   2.700   6.498 -0.1666  0.0186  0.1125
  179SOPE   O1320370   4.350   2.636   6.490  0.3772  0.2590  0.3076
  179SOPE   O1420371   4.095   2.618   6.511 -0.4242 -0.2500 -0.2929
  179SOPE   O1220372   4.195   2.780   6.368 -0.1621 -0.3969  0.1706
  179SOPE   O1120373   4.225   2.804   6.607  0.3102 -0.0448 -0.1891
  179SOPE    C120374   4.342   2.831   6.682 -0.1990 -0.7602  0.0185
  179SOPE    HA20375   4.323   2.935   6.718 -3.4353 -0.5901 -1.7522
  179SOPE    HB20376   4.425   2.846   6.610 -2.8419  0.2077 -3.0839
  179SOPE    C220377   4.370   2.732   6.800 -0.3794 -0.1566  0.8601
  179SOPE    HS20378   4.340   2.628   6.776  0.3186 -0.1382 -0.1414
  179SOPE   O2120379   4.290   2.779   6.916 -0.4532 -0.3439  0.3429
  179SOPE   C2120380   4.162   2.742   6.919  0.7127 -0.0810 -0.0639
  179SOPE   O2220381   4.112   2.648   6.857  0.5252 -0.0876 -0.1859
  179SOPE   C2220382   4.087   2.813   7.029 -0.4862 -0.2098 -0.2420
  179SOPE   H2R20383   4.018   2.881   6.974  1.2472  1.0182 -1.0079
  179SOPE   H2S20384   4.162   2.866   7.091  1.4402 -2.3895 -0.5581
  179SOPE    C320385   4.522   2.719   6.834  0.1791 -0.0296 -0.5565
  179SOPE    HX20386   4.559   2.821   6.810 -1.0548  0.8952  1.3474
  179SOPE    HY20387   4.576   2.652   6.762  1.2898 -0.0889  0.3007
  179SOPE   O3120388   4.554   2.677   6.965  0.1913 -0.2126 -0.0508
  179SOPE   C3120389   4.525   2.552   7.002 -0.1103  0.4299 -0.3621
  179SOPE   O3220390   4.477   2.459   6.934  0.9966  0.3660  0.8790
  179SOPE   C3220391   4.562   2.548   7.157  0.1535 -0.7524  0.0661
  179SOPE   H2X20392   4.540   2.651   7.190  0.1195 -0.5221 -0.6465
  179SOPE   H2Y20393   4.671   2.534   7.171  0.0911  0.8665  2.6329
  179SOPE   C2320394   4.008   2.733   7.130  0.0587  0.0550  0.0243
  179SOPE   H3R20395   4.061   2.674   7.207 -0.8177  0.6440  1.1088
  179SOPE   H3S20396   3.938   2.666   7.075  1.8836 -0.2997 -1.9970
  179SOPE   C2420397   3.899   2.815   7.200 -0.3759  0.2946  0.0203
  179SOPE   H4R20398   3.843   2.870   7.121 -1.1592  0.4225  0.6435
  179SOPE   H4S20399   3.827   2.746   7.250  2.3299 -1.3223  1.9113
  179SOPE   C2520400   3.948   2.915   7.310  0.1247 -0.4785  0.2475
  179SOPE   H5R20401   3.996   2.851   7.387  1.6916  0.9289  0.5103
  179SOPE   H5S20402   4.033   2.979   7.278 -1.3857  1.3594 -0.2307
  179SOPE   C2620403   3.837   3.004   7.371 -0.2593 -0.2684  0.2230
  179SOPE   H6R20404   3.886   3.082   7.432 -2.0246  1.0391  0.0593
  179SOPE   H6S20405   3.782   3.049   7.285  1.5563  1.3502 -0.1504
  179SOPE   C2720406   3.741   2.924   7.460 -0.0817 -0.4683  0.4462
  179SOPE   H7R20407   3.678   2.854   7.401  0.0489  1.6980 -2.4855
  179SOPE   H7S20408   3.795   2.860   7.534  1.6022 -0.8455 -1.0134
  179SOPE   C2820409   3.646   3.018   7.533 -0.7778 -0.2123  0.4257
  179SOPE   H8R20410   3.711   3.075   7.602  1.0305 -2.4022  0.6681
  179SOPE   H8S20411   3.608   3.096   7.464 -0.2149 -0.3656 -0.0618
  179SOPE   C2920412   3.540   2.939   7.608 -0.7417  0.3742  0.3306
  179SOPE   H9120413   3.514   2.847   7.554 -1.1201  0.5567  0.1979
  179SOPE  C21020414   3.464   2.998   7.699  1.0801 -0.1224  0.4500
  179SOPE  H10120415   3.382   2.946   7.752  0.8249  2.0328  2.3314
  179SOPE  C21120416   3.483   3.140   7.752 -0.0329 -0.0921 -0.4806
  179SOPE  H11R20417   3.470   3.222   7.679  4.2728  0.3232 -1.0881
  179SOPE  H11S20418   3.589   3.137   7.787 -0.5816 -0.0278  1.2839
  179SOPE  C21220419   3.413   3.175   7.882 -0.6287  0.2297 -0.0958
  179SOPE  H12R20420   3.305   3.176   7.858 -0.4060 -0.5526 -1.2168
  179SOPE  H12S20421   3.449   3.273   7.919  0.6986  0.3889 -1.6475
  179SOPE  C21320422   3.442   3.075   7.995 -0.5938 -0.3911 -0.5525
  179SOPE  H13R20423   3.551   3.088   8.016 -0.4673  0.0998 -1.4744
  179SOPE  H13S20424   3.423   2.972   7.958 -1.7005 -0.9265  1.3804
  179SOPE  C21420425   3.367   3.111   8.124 -0.9713  0.5075  0.7069
  179SOPE  H14R20426   3.259   3.112   8.097 -1.0906 -0.3746  1.1256
  179SOPE  H14S20427   3.398   3.215   8.149 -2.1528  0.9102  0.5608
  179SOPE  C21520428   3.402   3.024   8.247  0.9192 -0.0644 -0.4862
  179SOPE  H15R20429   3.510   3.030   8.273  0.8995 -1.7285  0.1037
  179SOPE  H15S20430   3.393   2.916   8.221 -0.4319  0.5553 -2.9226
  179SOPE  C21620431   3.311   3.060   8.374 -0.2464 -0.2606 -0.4647
  179SOPE  H16R20432   3.208   3.028   8.346  0.1643 -1.9987 -0.1215
  179SOPE  H16S20433   3.317   3.168   8.400 -0.7798 -0.5154  0.8096
  179SOPE  C21720434   3.341   2.982   8.501  0.0727 -0.9842  0.2292
  179SOPE  H17R20435   3.449   2.975   8.527  0.3679  3.0357  0.6989
  179SOPE  H17S20436   3.331   2.876   8.469  1.6335 -0.6094 -1.7503
  179SOPE  C21820437   3.252   3.033   8.620 -0.1788 -0.3974  0.4168
  179SOPE  H18R20438   3.163   3.092   8.589 -1.2033 -1.7696  0.6717
  179SOPE  H18S20439   3.314   3.106   8.677  1.6335 -1.6222  0.1057
  179SOPE  H18T20440   3.221   2.945   8.679  0.3734 -1.1736 -0.4153
  179SOPE   C3320441   4.479   2.444   7.233 -0.2793  0.5855  0.1381
  179SOPE   H3X20442   4.509   2.457   7.339 -1.4645 -0.7253  0.6644
  179SOPE   H3Y20443   4.496   2.344   7.188 -1.9084  1.1103 -1.7645
  179SOPE   C3420444   4.320   2.466   7.240 -0.2905  0.0197 -0.5429
  179SOPE   H4X20445   4.281   2.465   7.136  1.0904 -1.1417 -1.0920
  179SOPE   H4Y20446   4.299   2.565   7.284  0.0737  0.8735 -2.2364
  179SOPE   C3520447   4.244   2.357   7.310  0.5105 -0.0270  0.3030
  179SOPE   H5X20448   4.251   2.254   7.268 -2.2944 -0.2765  0.2912
  179SOPE   H5Y20449   4.135   2.378   7.311  0.8955  2.3145 -0.8120
  179SOPE   C3620450   4.279   2.352   7.455  0.4020  0.1318 -0.2047
  179SOPE   H6X20451   4.253   2.453   7.495 -0.3023 -0.0455 -0.2018
  179SOPE   H6Y20452   4.387   2.341   7.480 -0.0189 -0.4349  1.4786
  179SOPE   C3720453   4.214   2.246   7.533 -0.3810  0.1904 -0.1582
  179SOPE   H7X20454   4.238   2.148   7.487  0.9014 -0.0592  0.9648
  179SOPE   H7Y20455   4.106   2.268   7.524 -0.0235  1.1117 -4.2560
  179SOPE   C3820456   4.265   2.246   7.682 -0.9015 -0.3138 -0.4623
  179SOPE   H8X20457   4.375   2.229   7.677 -0.2321  3.4790 -2.4419
  179SOPE   H8Y20458   4.213   2.160   7.729 -1.1522 -1.2503 -2.3568
  179SOPE   C3920459   4.240   2.381   7.750  0.4195 -0.1333  0.2372
  179SOPE   H9X20460   4.137   2.405   7.715  1.2088 -0.5237 -2.5924
  179SOPE   H9Y20461   4.299   2.456   7.694 -1.6228  1.0253 -0.4776
  179SOPE  C31020462   4.274   2.377   7.898  1.1377  0.0220 -0.0755
  179SOPE  H10X20463   4.214   2.297   7.946  1.5475 -1.3102 -1.7122
  179SOPE  H10Y20464   4.255   2.478   7.941  3.4182 -0.4323  2.2192
  179SOPE  C31120465   4.422   2.353   7.916 -0.1391 -0.2055 -0.4567
  179SOPE  H11X20466   4.470   2.426   7.847 -0.2153  1.2090  0.9213
  179SOPE  H11Y20467   4.448   2.249   7.887  0.3692  0.6767 -3.4940
  179SOPE  C31220468   4.461   2.382   8.063 -0.4946 -0.2044 -0.2461
  179SOPE  H12X20469   4.540   2.310   8.096  0.3461  0.4071 -0.8832
  179SOPE  H12Y20470   4.371   2.361   8.125  0.9822 -1.2804  1.6735
  179SOPE  C31320471   4.497   2.527   8.101  0.4016  0.6211  0.5294
  179SOPE  H13X20472   4.410   2.594   8.082 -0.9772 -0.6183  2.1518
  179SOPE  H13Y20473   4.589   2.549   8.043  0.3860 -2.7931 -1.0411
  179SOPE  C31420474   4.527   2.534   8.251 -0.9157  0.2905 -0.2181
  179SOPE  H14X20475   4.584   2.622   8.287  2.6802 -0.8811 -2.4682
  179SOPE  H14Y20476   4.582   2.441   8.276  0.3924  0.9960 -0.3869
  179SOPE  C31520477   4.397   2.533   8.335  0.4669 -0.2217  0.0018
  179SOPE  H15X20478   4.338   2.445   8.302 -1.2317  1.9163 -3.1160
  179SOPE  H15Y20479   4.347   2.632   8.332  2.5746  0.8923 -0.6915
  179SOPE  C31620480   4.432   2.513   8.491 -0.0559 -0.5926  0.0862
  179SOPE  H16X20481   4.339   2.513   8.552  0.8613 -0.6176  1.5024
  179SOPE  H16Y20482   4.488   2.597   8.536 -0.3935 -0.0300 -0.5125
  179SOPE  C31720483   4.513   2.384   8.533 -0.0830  0.5361  0.3936
  179SOPE  H17X20484   4.536   2.389   8.641 -0.4646 -1.0815  0.5878
  179SOPE  H17Y20485   4.606   2.374   8.472 -0.5951  2.4136 -0.7822
  179SOPE  C31820486   4.433   2.251   8.527 -0.3747 -0.2894 -0.4725
  179SOPE  H18X20487   4.484   2.170   8.583  0.2628  0.1273 -0.4470
  179SOPE  H18Y20488   4.405   2.215   8.425 -1.1798  0.5958 -0.5860
  179SOPE  H18Z20489   4.337   2.277   8.577 -1.6690 -2.7160 -1.5001
  180SOPE     N20490   3.414   0.676   6.312  0.2204 -0.0873 -0.0540
  180SOPE   HN120491   3.405   0.635   6.217  0.8342  3.8811 -2.0006
  180SOPE   HN220492   3.473   0.607   6.363 -1.8081 -2.0072 -0.1200
  180SOPE   HN320493   3.317   0.667   6.349 -0.3633 -0.2100 -1.5435
  180SOPE   C1220494   3.467   0.812   6.303 -0.5989 -0.8688 -0.0415
  180SOPE  H12A20495   3.509   0.819   6.200 -0.2248 -2.4132 -0.0064
  180SOPE  H12B20496   3.543   0.826   6.382 -3.7144 -1.1858  3.2928
  180SOPE   C1120497   3.350   0.915   6.327 -0.1090  0.6496 -0.0395
  180SOPE  H11A20498   3.396   1.012   6.297  0.2174  1.0576  1.6966
  180SOPE  H11B20499   3.326   0.924   6.435 -1.0508  1.3257 -0.2900
  180SOPE     P20500   3.145   0.991   6.178 -0.2567 -0.4656 -0.1567
  180SOPE   O1320501   3.041   0.931   6.096  0.1712  0.3582 -0.1561
  180SOPE   O1420502   3.238   1.092   6.120 -0.1372 -0.6187 -0.4530
  180SOPE   O1220503   3.234   0.875   6.250 -0.0005 -0.6792  0.0221
  180SOPE   O1120504   3.075   1.062   6.296 -0.0408 -0.1949 -0.3152
  180SOPE    C120505   2.985   0.994   6.388 -0.1563  0.0978 -0.0969
  180SOPE    HA20506   3.035   0.911   6.442  0.4824  0.0101 -0.8201
  180SOPE    HB20507   2.890   0.960   6.342  0.0230  1.0856 -1.2575
  180SOPE    C220508   2.946   1.091   6.503 -0.9357 -0.0466  0.2372
  180SOPE    HS20509   2.910   1.184   6.455 -1.5676  1.4830  3.3940
  180SOPE   O2120510   3.074   1.111   6.576 -0.1932  0.7768  0.2948
  180SOPE   C2120511   3.091   1.232   6.627 -1.0336  1.4821  0.5150
  180SOPE   O2220512   3.012   1.323   6.622  0.0249  0.5092 -0.2686
  180SOPE   C2220513   3.234   1.235   6.674  0.6142 -0.1029 -0.6596
  180SOPE   H2R20514   3.306   1.269   6.596  1.3373  1.8706  0.8152
  180SOPE   H2S20515   3.264   1.130   6.695  0.3094 -0.2649 -1.0185
  180SOPE    C320516   2.831   1.039   6.587  0.6460 -0.1931 -0.6187
  180SOPE    HX20517   2.856   0.936   6.621  0.2676  0.2723  1.1717
  180SOPE    HY20518   2.741   1.030   6.521 -0.6864  0.0461  1.0879
  180SOPE   O3120519   2.796   1.130   6.692 -0.3339  0.4605 -0.0998
  180SOPE   C3120520   2.847   1.090   6.807  0.6635 -0.2252 -0.5104
  180SOPE   O3220521   2.893   0.980   6.834 -0.1698  0.5364  0.2999
  180SOPE   C3220522   2.821   1.203   6.908  0.5383 -0.1426 -0.5959
  180SOPE   H2X20523   2.714   1.229   6.901  1.0522  1.6749 -3.9361
  180SOPE   H2Y20524   2.896   1.283   6.891 -1.5206  2.3715  1.4415
  180SOPE   C2320525   3.250   1.320   6.803  0.3368 -0.2720 -0.3190
  180SOPE   H3R20526   3.154   1.323   6.859 -0.5181 -1.1217 -1.6922
  180SOPE   H3S20527   3.283   1.422   6.772 -0.0057  0.3057  1.1252
  180SOPE   C2420528   3.362   1.269   6.888 -0.5055 -0.1778 -0.0964
  180SOPE   H4R20529   3.344   1.170   6.934  0.7759  0.4583  1.9256
  180SOPE   H4S20530   3.462   1.269   6.839 -0.1786 -3.4448  0.3655
  180SOPE   C2520531   3.392   1.375   6.997  0.1812  0.0860  0.6710
  180SOPE   H5R20532   3.422   1.467   6.943 -2.5339  2.3771  2.7381
  180SOPE   H5S20533   3.289   1.392   7.035  0.2415  4.6979 -0.6640
  180SOPE   C2620534   3.496   1.332   7.108  0.5901  0.5536  0.9913
  180SOPE   H6R20535   3.483   1.226   7.139  0.8775  0.6089  1.3048
  180SOPE   H6S20536   3.601   1.343   7.074 -0.0682 -0.4644 -1.6156
  180SOPE   C2720537   3.467   1.418   7.227 -0.0932  0.3690 -1.0325
  180SOPE   H7R20538   3.514   1.517   7.214 -0.9334  0.9606  0.2135
  180SOPE   H7S20539   3.357   1.418   7.240  0.0535 -0.7630  0.5763
  180SOPE   C2820540   3.529   1.367   7.362  1.0014  0.5075  0.0384
  180SOPE   H8R20541   3.469   1.393   7.452 -0.1522 -0.1763 -0.5221
  180SOPE   H8S20542   3.512   1.257   7.364  1.7434  0.3564 -1.0420
  180SOPE   C2920543   3.670   1.397   7.391  0.0692  0.0290 -0.4896
  180SOPE   H9120544   3.732   1.364   7.307  1.9521 -0.6571  1.0875
  180SOPE  C21020545   3.726   1.461   7.494  0.3583 -0.0715  0.0695
  180SOPE  H10120546   3.835   1.459   7.507  0.4134 -3.1487 -0.1035
  180SOPE  C21120547   3.653   1.515   7.619  0.4577 -0.4846  0.0686
  180SOPE  H11R20548   3.557   1.462   7.633  0.0873 -0.2561 -1.4080
  180SOPE  H11S20549   3.646   1.626   7.621  0.4934 -0.4625 -0.7100
  180SOPE  C21220550   3.736   1.486   7.754 -0.1718  0.4634  0.6194
  180SOPE  H12R20551   3.835   1.531   7.728  0.4421 -1.3621 -0.4095
  180SOPE  H12S20552   3.753   1.376   7.763 -0.4477  0.4397  0.8493
  180SOPE  C21320553   3.674   1.547   7.875  0.0260  0.1261 -0.7250
  180SOPE  H13R20554   3.567   1.517   7.887 -0.1819  1.3129  0.8276
  180SOPE  H13S20555   3.657   1.655   7.856  1.1213  0.2153 -1.2103
  180SOPE  C21420556   3.744   1.523   8.005  0.4137  0.0700  0.3394
  180SOPE  H14R20557   3.763   1.413   7.996 -0.1551 -0.0579  0.6732
  180SOPE  H14S20558   3.678   1.546   8.091  1.5168 -2.1891  1.9036
  180SOPE  C21520559   3.874   1.601   8.019  0.3551  0.0271  0.2083
  180SOPE  H15R20560   3.847   1.704   7.988 -0.3384  0.8218  3.0861
  180SOPE  H15S20561   3.959   1.557   7.963 -0.6777 -0.5513 -0.9517
  180SOPE  C21620562   3.912   1.605   8.175  0.3246  0.0445  0.4956
  180SOPE  H16R20563   3.934   1.503   8.213  2.2999  0.6745  1.1668
  180SOPE  H16S20564   3.816   1.637   8.223 -0.4813 -0.0035 -1.0276
  180SOPE  C21720565   4.022   1.711   8.196  0.2652  0.7270 -0.5083
  180SOPE  H17R20566   3.977   1.812   8.205 -0.2319  0.5485 -0.9578
  180SOPE  H17S20567   4.083   1.694   8.105  1.5427 -1.1182  0.6137
  180SOPE  C21820568   4.122   1.690   8.318  0.4351 -0.6598  0.2123
  180SOPE  H18R20569   4.189   1.779   8.318  0.0975 -0.3945  1.2675
  180SOPE  H18S20570   4.180   1.596   8.305  0.7845 -0.1947 -2.1419
  180SOPE  H18T20571   4.068   1.687   8.414 -0.9515  1.0068 -0.4712
  180SOPE   C3320572   2.844   1.146   7.053 -0.2608 -0.5680  0.0117
  180SOPE   H3X20573   2.944   1.097   7.052  0.6597  1.1955 -0.0076
  180SOPE   H3Y20574   2.770   1.065   7.065  0.5027 -1.0834  1.5579
  180SOPE   C3420575   2.839   1.257   7.152 -0.6676 -0.2917  0.0036
  180SOPE   H4X20576   2.734   1.294   7.147 -1.2769 -1.7257  1.3299
  180SOPE   H4Y20577   2.908   1.340   7.126  0.6822 -1.1949  0.5753
  180SOPE   C3520578   2.858   1.207   7.292 -0.1317  0.3310  0.6860
  180SOPE   H5X20579   2.784   1.128   7.316  0.9078 -1.5504 -1.8770
  180SOPE   H5Y20580   2.849   1.290   7.366 -0.5013  0.3288  0.6446
  180SOPE   C3620581   2.999   1.157   7.316 -0.2133 -0.5295  0.4860
  180SOPE   H6X20582   3.075   1.234   7.289  0.5799 -1.7448 -0.9238
  180SOPE   H6Y20583   3.033   1.079   7.244  1.0601 -1.9399  2.5149
  180SOPE   C3720584   3.005   1.098   7.459  0.8344  0.6062  0.1405
  180SOPE   H7X20585   3.090   1.031   7.481  0.2779  0.4109  1.8725
  180SOPE   H7Y20586   2.907   1.051   7.485  0.7296  1.7135  1.8471
  180SOPE   C3820587   3.036   1.209   7.560  0.2285  0.5463  0.1333
  180SOPE   H8X20588   3.033   1.159   7.659  2.9389  1.2001  0.6291
  180SOPE   H8Y20589   2.967   1.297   7.561  1.4283  1.5425 -0.9381
  180SOPE   C3920590   3.181   1.263   7.550 -0.2224 -0.1793  0.1347
  180SOPE   H9X20591   3.187   1.327   7.460 -1.4006  0.0391  0.2005
  180SOPE   H9Y20592   3.258   1.183   7.538 -1.0935 -0.9000 -0.8936
  180SOPE  C31020593   3.214   1.345   7.674 -0.0053  0.1639  0.7532
  180SOPE  H10X20594   3.156   1.439   7.660  0.2955  0.2468  0.0039
  180SOPE  H10Y20595   3.322   1.371   7.663 -0.4506  1.7404 -0.2540
  180SOPE  C31120596   3.197   1.279   7.810  0.6050 -0.0719 -0.1017
  180SOPE  H11X20597   3.254   1.185   7.825  1.8646  0.7897  0.7216
  180SOPE  H11Y20598   3.090   1.261   7.834  0.5738 -1.2224 -1.0326
  180SOPE  C31220599   3.237   1.369   7.930 -0.4677  0.1337  0.4186
  180SOPE  H12X20600   3.184   1.466   7.916  1.5393  1.2142 -0.1441
  180SOPE  H12Y20601   3.340   1.408   7.943 -0.2508 -0.0954 -0.5021
  180SOPE  C31320602   3.207   1.285   8.058  0.4674  0.1366  0.6286
  180SOPE  H13X20603   3.262   1.188   8.064  0.5208  0.1577  0.4845
  180SOPE  H13Y20604   3.097   1.272   8.058  0.3367  1.1449 -0.0858
  180SOPE  C31420605   3.230   1.370   8.190  0.5170  0.4265 -0.0610
  180SOPE  H14X20606   3.164   1.329   8.269  0.6094 -0.4808 -0.4423
  180SOPE  H14Y20607   3.200   1.477   8.178  3.5734  1.4715  0.6470
  180SOPE  C31520608   3.371   1.358   8.245 -0.1997 -0.1996  0.0935
  180SOPE  H15X20609   3.445   1.403   8.175  1.4801  1.0157  2.5142
  180SOPE  H15Y20610   3.388   1.251   8.267 -0.7751 -0.9464 -2.6827
  180SOPE  C31620611   3.388   1.441   8.373 -0.0092  0.3586 -0.2647
  180SOPE  H16X20612   3.289   1.450   8.423 -0.6124  1.5187 -1.6017
  180SOPE  H16Y20613   3.424   1.544   8.351  0.2368  0.5099  0.7935
  180SOPE  C31720614   3.492   1.388   8.472 -0.3636  0.2831  0.3449
  180SOPE  H17X20615   3.521   1.468   8.544  1.5297 -1.0923  1.1568
  180SOPE  H17Y20616   3.576   1.358   8.406 -0.9795 -0.6176 -0.0538
  180SOPE  C31820617   3.432   1.262   8.542 -0.4777 -0.0090 -0.1875
  180SOPE  H18X20618   3.495   1.241   8.631  0.2887  0.9693 -0.4779
  180SOPE  H18Y20619   3.426   1.178   8.470 -2.1772 -0.4219  0.3779
  180SOPE  H18Z20620   3.324   1.274   8.566 -0.0307  0.5739  1.6367
  181SOPE     N20621   4.089   5.796   5.941  0.1863  0.3009  0.1899
  181SOPE   HN120622   4.157   5.784   6.019  1.5146  0.6149 -0.8751
  181SOPE   HN220623   4.030   5.881   5.944 -1.4243 -0.7466 -0.5394
  181SOPE   HN320624   4.031   5.710   5.943  1.4557 -0.6359 -1.0427
  181SOPE   C1220625   4.177   5.816   5.823 -0.3115 -1.1773  0.4282
  181SOPE  H12A20626   4.123   5.890   5.759  1.6264  0.9344  1.1109
  181SOPE  H12B20627   4.202   5.720   5.773 -0.4168  0.0948 -2.2095
  181SOPE   C1120628   4.304   5.880   5.870 -0.8623  0.3900  0.4571
  181SOPE  H11A20629   4.282   5.981   5.911 -2.1189  1.4596 -2.5473
  181SOPE  H11B20630   4.370   5.894   5.782  0.4578 -1.4173  1.0802
  181SOPE     P20631   4.518   5.738   5.964  0.1162 -0.0391  0.1106
  181SOPE   O1320632   4.574   5.718   5.826  0.2059  0.2055 -0.7294
  181SOPE   O1420633   4.528   5.632   6.068  0.4450  0.5117  0.3239
  181SOPE   O1220634   4.375   5.798   5.959  0.8319  0.4143  0.2150
  181SOPE   O1120635   4.605   5.862   6.019  0.1378 -0.2286  0.0673
  181SOPE    C120636   4.573   5.924   6.143 -0.0283  0.3653 -0.2561
  181SOPE    HA20637   4.476   5.977   6.133 -0.1787  0.5180  1.6223
  181SOPE    HB20638   4.651   5.998   6.170  0.3130  0.4043 -1.3049
  181SOPE    C220639   4.565   5.834   6.270  0.9047 -0.3832  0.0508
  181SOPE    HS20640   4.474   5.772   6.257 -0.8389  1.9101  0.5963
  181SOPE   O2120641   4.533   5.929   6.372 -0.2282  0.1157  0.2361
  181SOPE   C2120642   4.464   5.890   6.479 -0.5336  0.5100  0.0366
  181SOPE   O2220643   4.411   5.787   6.500  0.6021  0.2035 -0.0699
  181SOPE   C2220644   4.472   6.000   6.583  0.0616  0.1151 -0.2213
  181SOPE   H2R20645   4.380   6.059   6.562  0.7814  1.0719 -0.8130
  181SOPE   H2S20646   4.561   6.065   6.563  0.5138 -0.5985 -0.5730
  181SOPE    C320647   4.695   5.749   6.300  0.1676  0.1540  0.3284
  181SOPE    HX20648   4.778   5.822   6.315  0.4975  0.2793 -1.7471
  181SOPE    HY20649   4.711   5.697   6.203  0.2823 -0.7640  0.8380
  181SOPE   O3120650   4.684   5.663   6.413 -0.3528 -0.1393 -0.0187
  181SOPE   C3120651   4.757   5.552   6.408 -0.5476 -0.4469 -0.2986
  181SOPE   O3220652   4.815   5.512   6.307  0.0101 -0.6544 -0.2246
  181SOPE   C3220653   4.747   5.470   6.534 -0.0749  0.1998 -0.8463
  181SOPE   H2X20654   4.674   5.390   6.511 -1.5926  1.3655 -0.2484
  181SOPE   H2Y20655   4.719   5.536   6.619  2.7252 -0.8381  1.0026
  181SOPE   C2320656   4.470   5.944   6.725  0.6435  0.5487  0.4130
  181SOPE   H3R20657   4.567   5.894   6.745  1.4096  1.5778 -0.5689
  181SOPE   H3S20658   4.393   5.867   6.745  1.7211 -0.6148  0.1887
  181SOPE   C2420659   4.461   6.055   6.836 -0.3067 -0.3565 -0.1804
  181SOPE   H4R20660   4.483   5.995   6.927  0.0365 -1.3281 -0.8895
  181SOPE   H4S20661   4.533   6.137   6.821 -1.4505  1.4599  3.1862
  181SOPE   C2520662   4.314   6.117   6.850 -0.4114 -0.6502 -0.5617
  181SOPE   H5R20663   4.281   6.174   6.760 -0.0550 -0.1241 -0.3616
  181SOPE   H5S20664   4.243   6.031   6.853 -1.1562 -0.1846 -2.7352
  181SOPE   C2620665   4.289   6.210   6.977  0.4047  0.4290  0.2663
  181SOPE   H6R20666   4.369   6.283   6.998 -0.1367  0.7545  1.2825
  181SOPE   H6S20667   4.198   6.271   6.958 -2.4251 -2.8390  2.1127
  181SOPE   C2720668   4.264   6.126   7.106 -0.1380  0.0606  0.0438
  181SOPE   H7R20669   4.178   6.058   7.090 -1.4755  1.4590  0.9716
  181SOPE   H7S20670   4.353   6.061   7.119 -0.5943 -0.6989 -0.5532
  181SOPE   C2820671   4.243   6.212   7.224 -0.7259 -1.2259  0.0303
  181SOPE   H8R20672   4.241   6.144   7.312  0.1342  0.0435  1.0758
  181SOPE   H8S20673   4.329   6.280   7.240 -1.5330 -0.0559 -0.5063
  181SOPE   C2920674   4.121   6.295   7.217 -0.5849  0.2292  0.1322
  181SOPE   H9120675   4.120   6.371   7.137  1.7801  1.2075  0.9304
  181SOPE  C21020676   4.032   6.304   7.312  0.2790  0.6031  0.4303
  181SOPE  H10120677   3.950   6.375   7.292  0.1617  1.1078  2.5377
  181SOPE  C21120678   4.017   6.224   7.441 -0.4771  0.9488  0.2460
  181SOPE  H11R20679   4.072   6.128   7.430 -0.0941  1.0125  1.4617
  181SOPE  H11S20680   3.911   6.196   7.462  0.3497 -1.2508  1.8812
  181SOPE  C21220681   4.061   6.278   7.583  0.0048  0.3680  0.5053
  181SOPE  H12R20682   4.082   6.199   7.657  1.5093  0.4084  0.1472
  181SOPE  H12S20683   3.988   6.352   7.624  2.3344  3.3689 -0.3756
  181SOPE  C21320684   4.194   6.355   7.584 -0.0782  0.5112 -0.6241
  181SOPE  H13R20685   4.205   6.431   7.503 -0.2548 -1.1780 -2.3197
  181SOPE  H13S20686   4.274   6.281   7.563 -0.4088  0.2081 -0.8417
  181SOPE  C21420687   4.217   6.431   7.715 -0.1586  0.2048 -0.4342
  181SOPE  H14R20688   4.192   6.362   7.799  1.6584  0.6432  0.5017
  181SOPE  H14S20689   4.161   6.527   7.724 -0.2403  0.1078  0.1041
  181SOPE  C21520690   4.364   6.482   7.735  0.0231 -0.0184 -0.0731
  181SOPE  H15R20691   4.376   6.549   7.647 -3.0832  1.3098  0.3914
  181SOPE  H15S20692   4.428   6.395   7.712  0.1794  0.3738 -1.2341
  181SOPE  C21620693   4.379   6.551   7.866 -0.1318  0.0260  0.1139
  181SOPE  H16R20694   4.315   6.494   7.937 -0.5543 -0.8402 -0.9246
  181SOPE  H16S20695   4.343   6.655   7.880 -0.7852 -0.0709 -0.7508
  181SOPE  C21720696   4.527   6.552   7.909 -0.4300  0.1586 -0.8220
  181SOPE  H17R20697   4.527   6.644   7.971  0.6531  0.6112 -1.4616
  181SOPE  H17S20698   4.586   6.578   7.819  1.8413  1.4145  0.9290
  181SOPE  C21820699   4.574   6.430   7.993  0.2862 -0.6362 -0.1647
  181SOPE  H18R20700   4.513   6.425   8.085  2.3346  2.3849  1.5559
  181SOPE  H18S20701   4.682   6.432   8.022 -0.1488  1.2994  1.5852
  181SOPE  H18T20702   4.547   6.336   7.941 -1.2276 -0.7265  0.7262
  181SOPE   C3320703   4.880   5.400   6.575 -0.4047 -0.1301 -0.9085
  181SOPE   H3X20704   4.967   5.469   6.580 -0.1825 -0.4977  1.6849
  181SOPE   H3Y20705   4.904   5.341   6.484  3.5831  1.1497 -0.9176
  181SOPE   C3420706   4.878   5.321   6.705 -0.9568  0.3144  0.0865
  181SOPE   H4X20707   4.954   5.242   6.689 -3.5380 -2.3239 -0.0859
  181SOPE   H4Y20708   4.782   5.267   6.722  0.3938 -1.7959  1.4524
  181SOPE   C3520709   4.902   5.413   6.818  0.3573 -0.4366 -0.2688
  181SOPE   H5X20710   4.839   5.504   6.806 -1.1944 -1.5465 -0.9167
  181SOPE   H5Y20711   5.007   5.446   6.821 -0.0970  1.2169 -1.3776
  181SOPE   C3620712   4.868   5.339   6.950 -0.0381  0.0932 -0.1640
  181SOPE   H6X20713   4.937   5.253   6.961 -0.0244  0.0721 -0.4271
  181SOPE   H6Y20714   4.761   5.311   6.941 -0.2142  0.5322  0.4466
  181SOPE   C3720715   4.874   5.425   7.079  0.3297 -0.0833 -0.2465
  181SOPE   H7X20716   4.816   5.519   7.066 -0.6321 -0.0259  3.3697
  181SOPE   H7Y20717   4.982   5.449   7.094  0.6656 -2.1456  0.9522
  181SOPE   C3820718   4.839   5.335   7.200  0.2141 -0.7521 -0.5031
  181SOPE   H8X20719   4.921   5.260   7.208  1.1345 -0.4529 -4.6356
  181SOPE   H8Y20720   4.738   5.294   7.181  0.4341 -1.3306 -0.4487
  181SOPE   C3920721   4.832   5.401   7.338  0.3593 -0.8105  0.7497
  181SOPE   H9X20722   4.770   5.493   7.345 -0.5631 -1.3002 -0.6293
  181SOPE   H9Y20723   4.937   5.421   7.369  0.4618 -2.2191  1.4294
  181SOPE  C31020724   4.778   5.305   7.436  0.1240 -0.5261 -0.4644
  181SOPE  H10X20725   4.830   5.207   7.432 -0.1266 -0.6186 -2.4258
  181SOPE  H10Y20726   4.669   5.286   7.422 -0.0473  0.4280 -0.4826
  181SOPE  C31120727   4.806   5.355   7.581  0.2127 -0.8316  0.3303
  181SOPE  H11X20728   4.823   5.465   7.580  0.2511 -0.8128  1.5100
  181SOPE  H11Y20729   4.898   5.312   7.625 -0.4337 -0.6171  1.9846
  181SOPE  C31220730   4.695   5.312   7.673 -0.1050  0.6776 -0.3283
  181SOPE  H12X20731   4.682   5.204   7.695 -1.0817  1.2332  2.1852
  181SOPE  H12Y20732   4.599   5.340   7.626 -0.6287 -2.9049 -1.7054
  181SOPE  C31320733   4.710   5.383   7.805 -0.4933 -0.2726 -0.0293
  181SOPE  H13X20734   4.707   5.493   7.793 -0.2399 -0.0430  1.6780
  181SOPE  H13Y20735   4.807   5.347   7.846 -0.6372 -1.4593 -0.6996
  181SOPE  C31420736   4.586   5.348   7.887 -0.2384  0.4862  0.5897
  181SOPE  H14X20737   4.591   5.242   7.918 -3.0844  0.3167  0.7791
  181SOPE  H14Y20738   4.495   5.366   7.825  1.7251  1.5511 -2.1734
  181SOPE  C31520739   4.567   5.436   8.017 -0.0326 -0.5635  0.5682
  181SOPE  H15X20740   4.573   5.541   7.981  1.7583 -1.1613 -1.0710
  181SOPE  H15Y20741   4.644   5.418   8.095  1.0682 -2.0663 -0.7936
  181SOPE  C31620742   4.425   5.415   8.076 -0.2352  0.3223 -0.0505
  181SOPE  H16X20743   4.350   5.439   7.998  0.4373 -0.6808 -1.0408
  181SOPE  H16Y20744   4.411   5.476   8.168 -0.8532 -0.6484  0.5138
  181SOPE  C31720745   4.397   5.267   8.116 -0.5195 -0.8407 -0.6564
  181SOPE  H17X20746   4.417   5.200   8.030  0.7519  0.4965 -1.4535
  181SOPE  H17Y20747   4.290   5.250   8.140 -0.4269  0.7001  1.1001
  181SOPE  C31820748   4.482   5.218   8.234 -0.3343  0.2600 -0.0936
  181SOPE  H18X20749   4.506   5.314   8.285 -2.8703  0.7088  0.3688
  181SOPE  H18Y20750   4.578   5.180   8.193 -0.2144  1.0203 -0.5384
  181SOPE  H18Z20751   4.432   5.141   8.296  2.1825 -0.1937  1.5450
  182SOPE     N20752   2.160   1.727   6.277 -0.9601  0.5093 -0.0186
  182SOPE   HN120753   2.066   1.683   6.288 -1.1491  1.1773  1.1420
  182SOPE   HN220754   2.199   1.710   6.372 -1.6452  1.1365  0.3887
  182SOPE   HN320755   2.163   1.831   6.273  1.0949  0.5882  2.0512
  182SOPE   C1220756   2.259   1.662   6.182 -0.4579  0.3426  0.3629
  182SOPE  H12A20757   2.356   1.717   6.191  0.9508 -1.9387 -0.0185
  182SOPE  H12B20758   2.229   1.668   6.075 -1.6882 -0.8932  0.6181
  182SOPE   C1120759   2.281   1.520   6.224 -0.2305  0.0302 -0.3170
  182SOPE  H11A20760   2.206   1.458   6.169 -0.2658 -0.9029  0.7447
  182SOPE  H11B20761   2.263   1.499   6.332 -0.5597 -0.0484 -0.3845
  182SOPE     P20762   2.471   1.356   6.125  0.3441  0.0857  0.3375
  182SOPE   O1320763   2.570   1.396   6.024  0.3822  0.2495 -0.5696
  182SOPE   O1420764   2.370   1.258   6.079  0.0327  0.2552 -0.0148
  182SOPE   O1220765   2.411   1.490   6.184 -0.4999  0.5646 -0.5948
  182SOPE   O1120766   2.529   1.296   6.256 -0.0859  0.0806  0.0216
  182SOPE    C120767   2.610   1.362   6.349 -0.3957 -0.1674  0.5829
  182SOPE    HA20768   2.678   1.441   6.311  1.7751 -1.9717  0.4625
  182SOPE    HB20769   2.677   1.287   6.397 -0.8794  0.0689  1.6613
  182SOPE    C220770   2.529   1.412   6.472 -0.4194  0.1958  0.7103
  182SOPE    HS20771   2.480   1.505   6.437  2.3148  1.6861  0.5894
  182SOPE   O2120772   2.611   1.432   6.594 -0.4740 -0.1400 -0.1422
  182SOPE   C2120773   2.599   1.548   6.645 -0.2778 -0.0335  0.8323
  182SOPE   O2220774   2.537   1.642   6.594  0.2199  0.0094  0.2634
  182SOPE   C2220775   2.687   1.569   6.768 -1.1584 -0.2670 -0.8162
  182SOPE   H2R20776   2.749   1.660   6.761 -1.7682  0.4083  1.5660
  182SOPE   H2S20777   2.755   1.491   6.809  0.9837  2.4373  1.1445
  182SOPE    C320778   2.424   1.316   6.516 -0.2188  0.3431  0.8565
  182SOPE    HX20779   2.471   1.231   6.570  0.3642 -0.2553 -0.5519
  182SOPE    HY20780   2.374   1.270   6.428 -0.5822  2.0066  0.1622
  182SOPE   O3120781   2.327   1.382   6.599 -0.5612 -0.5742  0.3124
  182SOPE   C3120782   2.220   1.311   6.639  0.7672 -0.0323  0.2729
  182SOPE   O3220783   2.189   1.201   6.602 -0.1730  0.8275  0.4584
  182SOPE   C3220784   2.125   1.401   6.716  0.0525 -0.1684  0.7317
  182SOPE   H2X20785   2.040   1.333   6.739  0.3032 -1.0786 -0.8863
  182SOPE   H2Y20786   2.083   1.477   6.648 -1.4335 -0.3035  1.4537
  182SOPE   C2320787   2.597   1.586   6.896 -0.7784 -0.4099  0.2786
  182SOPE   H3R20788   2.519   1.508   6.908  0.7870 -1.8337  1.7127
  182SOPE   H3S20789   2.548   1.684   6.876 -1.1112 -0.6545 -0.1017
  182SOPE   C2420790   2.673   1.595   7.030  0.5359  1.0987  0.0548
  182SOPE   H4R20791   2.764   1.533   7.036 -0.8101 -0.9301  0.6773
  182SOPE   H4S20792   2.696   1.703   7.044  2.6133  0.8451 -1.0679
  182SOPE   C2520793   2.582   1.554   7.147  0.1514 -0.4792 -0.3714
  182SOPE   H5R20794   2.495   1.622   7.133  1.4193  1.2291 -0.4162
  182SOPE   H5S20795   2.554   1.449   7.128 -1.5986  0.1800 -1.7461
  182SOPE   C2620796   2.656   1.574   7.284  0.6287  0.1032 -0.2280
  182SOPE   H6R20797   2.766   1.556   7.278  0.8144  0.7415  0.9458
  182SOPE   H6S20798   2.650   1.680   7.315 -0.2791  0.5130 -1.6865
  182SOPE   C2720799   2.602   1.479   7.393 -0.0159 -0.3772  0.3431
  182SOPE   H7R20800   2.492   1.497   7.400 -0.1039 -0.3703 -0.7679
  182SOPE   H7S20801   2.610   1.375   7.354 -1.1248 -0.4138  0.1700
  182SOPE   C2820802   2.681   1.497   7.525 -0.4579 -0.1983 -0.5891
  182SOPE   H8R20803   2.651   1.423   7.602 -3.7898  0.7083 -0.8924
  182SOPE   H8S20804   2.790   1.486   7.506  0.2421  1.1824  2.0348
  182SOPE   C2920805   2.675   1.639   7.579  0.1512  0.1316 -0.1566
  182SOPE   H9120806   2.609   1.706   7.521 -0.4243 -0.4963 -0.2435
  182SOPE  C21020807   2.745   1.691   7.678 -0.5353 -0.0998  0.2644
  182SOPE  H10120808   2.720   1.793   7.710  2.1222  1.1653 -1.2777
  182SOPE  C21120809   2.846   1.615   7.764 -0.0739 -0.1994  0.3466
  182SOPE  H11R20810   2.948   1.653   7.741  0.5792 -1.9222  0.2446
  182SOPE  H11S20811   2.847   1.510   7.729  0.1058  0.0531 -0.4280
  182SOPE  C21220812   2.813   1.637   7.921 -0.2401  0.1117  0.5146
  182SOPE  H12R20813   2.707   1.605   7.933  0.0038 -0.3273  1.5841
  182SOPE  H12S20814   2.828   1.744   7.945  2.5662 -0.2735  0.8241
  182SOPE  C21320815   2.905   1.551   8.007 -0.4636 -0.1307  0.1215
  182SOPE  H13R20816   3.009   1.575   7.976  0.2404  0.2124  2.5336
  182SOPE  H13S20817   2.899   1.443   7.982  0.8124 -0.7681  2.2936
  182SOPE  C21420818   2.868   1.556   8.162  0.0640 -0.1777 -0.3025
  182SOPE  H14R20819   2.850   1.656   8.206 -1.2897 -0.8312  0.6994
  182SOPE  H14S20820   2.950   1.505   8.217 -1.2769 -2.7092 -0.4841
  182SOPE  C21520821   2.744   1.469   8.195  0.1337 -0.2467  0.1991
  182SOPE  H15R20822   2.666   1.499   8.123  0.8553 -1.8219 -1.3206
  182SOPE  H15S20823   2.718   1.489   8.301 -0.3088  4.1060 -0.5575
  182SOPE  C21620824   2.756   1.311   8.178 -0.3963 -0.7570 -0.2303
  182SOPE  H16R20825   2.768   1.281   8.072 -0.2461 -2.5515  0.2608
  182SOPE  H16S20826   2.660   1.263   8.204  0.5805 -2.0367  1.1959
  182SOPE  C21720827   2.854   1.248   8.271  0.1274 -0.9481 -0.1938
  182SOPE  H17R20828   2.842   1.286   8.375 -1.6926  0.0244 -0.7136
  182SOPE  H17S20829   2.956   1.284   8.247 -0.7613 -1.0661 -5.0412
  182SOPE  C21820830   2.862   1.096   8.275  0.4223 -0.5817 -0.9480
  182SOPE  H18R20831   2.887   1.063   8.172 -1.0944  0.8178 -1.8128
  182SOPE  H18S20832   2.770   1.044   8.309  1.6923 -1.0097  2.1061
  182SOPE  H18T20833   2.944   1.056   8.338  1.6595 -0.5713 -2.4666
  182SOPE   C3320834   2.195   1.459   6.841 -0.7906  0.0915 -0.5375
  182SOPE   H3X20835   2.290   1.510   6.812 -0.2290 -0.8398 -0.4037
  182SOPE   H3Y20836   2.231   1.385   6.916 -1.0634  1.0415  0.5462
  182SOPE   C3420837   2.106   1.566   6.916  0.1327 -0.3488 -0.0119
  182SOPE   H4X20838   2.018   1.505   6.946 -0.6241  1.1578  0.9639
  182SOPE   H4Y20839   2.076   1.650   6.850  0.8448  0.4738  0.6862
  182SOPE   C3520840   2.165   1.621   7.047  0.1607  0.3147 -0.2055
  182SOPE   H5X20841   2.085   1.664   7.111  0.6874 -1.6623  1.9095
  182SOPE   H5Y20842   2.237   1.701   7.019  0.4056 -0.1022 -0.7751
  182SOPE   C3620843   2.233   1.519   7.138  0.2540  0.3342  0.4921
  182SOPE   H6X20844   2.264   1.576   7.228  0.6806  2.7984 -1.1512
  182SOPE   H6Y20845   2.326   1.481   7.091  0.0381  0.5025 -0.0698
  182SOPE   C3720846   2.134   1.399   7.172 -0.2442 -0.5560 -0.4826
  182SOPE   H7X20847   2.115   1.331   7.086 -1.2559 -0.6246 -0.2270
  182SOPE   H7Y20848   2.037   1.451   7.189 -0.5444 -0.8790 -1.1520
  182SOPE   C3820849   2.177   1.315   7.292  0.5606  0.0880 -0.5237
  182SOPE   H8X20850   2.270   1.254   7.285  0.6808  0.0114  1.2573
  182SOPE   H8Y20851   2.089   1.251   7.309  0.3424  0.6440  0.4833
  182SOPE   C3920852   2.180   1.387   7.427 -0.1627  0.5363 -0.3646
  182SOPE   H9X20853   2.092   1.453   7.441 -0.1459  0.0306  2.8611
  182SOPE   H9Y20854   2.274   1.444   7.444  0.3264 -0.0443 -1.0785
  182SOPE  C31020855   2.175   1.290   7.541 -0.6994 -0.6230 -0.6484
  182SOPE  H10X20856   2.257   1.216   7.528  0.4677  1.0800 -4.2944
  182SOPE  H10Y20857   2.082   1.229   7.541 -0.0107 -1.7818  1.3966
  182SOPE  C31120858   2.184   1.365   7.675  0.4862  0.1341 -0.1888
  182SOPE  H11X20859   2.090   1.423   7.688 -1.7648 -2.7015 -2.5064
  182SOPE  H11Y20860   2.269   1.436   7.672  0.5362  0.0930  0.2000
  182SOPE  C31220861   2.198   1.268   7.793 -0.6583  0.1274 -0.2812
  182SOPE  H12X20862   2.290   1.206   7.790 -1.3058 -0.9242  0.8508
  182SOPE  H12Y20863   2.117   1.196   7.815  0.3068 -0.5122  1.3865
  182SOPE  C31320864   2.222   1.348   7.931 -0.1683 -0.5521  0.0251
  182SOPE  H13X20865   2.144   1.425   7.939  2.0027  1.7824  0.0465
  182SOPE  H13Y20866   2.317   1.402   7.911 -0.5792 -0.3802 -1.6092
  182SOPE  C31420867   2.228   1.255   8.053 -0.2176 -0.6766 -0.1907
  182SOPE  H14X20868   2.308   1.180   8.031  1.2935  1.6513 -3.3403
  182SOPE  H14Y20869   2.125   1.213   8.056 -1.0667  1.2253 -1.1487
  182SOPE  C31520870   2.251   1.334   8.179  0.0768 -0.0062 -0.0944
  182SOPE  H15X20871   2.157   1.392   8.194  0.2365 -0.3828  3.0292
  182SOPE  H15Y20872   2.334   1.405   8.155 -0.1172  0.1198 -0.3974
  182SOPE  C31620873   2.276   1.253   8.302 -0.0848 -0.2275  0.2181
  182SOPE  H16X20874   2.345   1.170   8.274 -0.0649 -0.4801  0.9994
  182SOPE  H16Y20875   2.184   1.203   8.336  0.8061 -2.7778 -0.8674
  182SOPE  C31720876   2.336   1.331   8.416 -0.4372  0.1914  0.3129
  182SOPE  H17X20877   2.288   1.431   8.423 -0.7154 -0.0169  1.5889
  182SOPE  H17Y20878   2.444   1.352   8.403 -0.2207 -1.0489 -0.0282
  182SOPE  C31820879   2.326   1.261   8.548  0.1444  0.3702 -0.2121
  182SOPE  H18X20880   2.376   1.313   8.633 -0.8245  1.2044 -0.1221
  182SOPE  H18Y20881   2.368   1.159   8.541 -3.1340 -1.3200  1.9079
  182SOPE  H18Z20882   2.224   1.233   8.584  0.8642  0.5788  2.1590
  183SOPE     N20883   5.564   6.160   6.336 -0.4398 -0.1157 -0.0126
  183SOPE   HN120884   5.549   6.119   6.431 -0.7808 -0.0275 -0.0266
  183SOPE   HN220885   5.490   6.225   6.304  1.7286  1.1747 -2.7948
  183SOPE   HN320886   5.586   6.087   6.265  0.2174  0.9780 -0.9712
  183SOPE   C1220887   5.690   6.239   6.344 -1.0243  0.1487 -0.2710
  183SOPE  H12A20888   5.669   6.333   6.399 -1.3104 -0.3300  0.4442
  183SOPE  H12B20889   5.731   6.271   6.246  1.8439  0.4253  0.8952
  183SOPE   C1120890   5.799   6.142   6.402 -0.2864  0.0103 -0.5531
  183SOPE  H11A20891   5.776   6.097   6.501  0.9076 -2.8974 -1.4913
  183SOPE  H11B20892   5.884   6.211   6.421 -0.7008  0.5051 -0.4774
  183SOPE     P20893   5.979   6.002   6.256 -0.3267  0.0606 -0.1122
  183SOPE   O1320894   6.029   6.124   6.187 -0.3759 -0.1180  0.4495
  183SOPE   O1420895   5.966   5.882   6.169  0.6403 -0.3362  0.0748
  183SOPE   O1220896   5.833   6.035   6.313 -0.1221 -0.0697  0.2219
  183SOPE   O1120897   6.062   5.964   6.386 -0.1655  0.4288 -0.6649
  183SOPE    C120898   6.040   5.846   6.471  0.2014 -0.2183  1.0288
  183SOPE    HA20899   6.145   5.828   6.504  0.8112  3.3506  1.4755
  183SOPE    HB20900   5.995   5.761   6.416 -1.9248 -0.0746  2.4378
  183SOPE    C220901   5.960   5.882   6.603  0.2460 -0.1604 -0.6535
  183SOPE    HS20902   5.854   5.886   6.572  0.4321  0.9673 -1.1828
  183SOPE   O2120903   6.021   6.005   6.644  0.3211  0.3080 -0.4300
  183SOPE   C2120904   5.945   6.073   6.731 -0.6096 -0.3755 -0.3266
  183SOPE   O2220905   5.827   6.053   6.744  0.8098  0.1831 -0.1955
  183SOPE   C2220906   6.020   6.186   6.792 -0.4377 -0.0344  0.3054
  183SOPE   H2R20907   6.043   6.258   6.711 -1.0916  0.0226  0.1627
  183SOPE   H2S20908   6.115   6.152   6.837 -0.6841 -1.2994 -0.1089
  183SOPE    C320909   5.970   5.763   6.713 -0.6037  0.0145 -0.1559
  183SOPE    HX20910   6.079   5.744   6.727  0.5709  2.8428 -3.8496
  183SOPE    HY20911   5.910   5.681   6.670 -0.0545 -0.5774  0.1728
  183SOPE   O3120912   5.923   5.807   6.845 -0.6867 -0.1904  0.1507
  183SOPE   C3120913   5.796   5.790   6.874 -0.1805  0.8531  0.1170
  183SOPE   O3220914   5.723   5.737   6.797  0.7624  0.2587 -0.2446
  183SOPE   C3220915   5.751   5.852   7.006  0.5178 -1.1325 -0.1011
  183SOPE   H2X20916   5.643   5.827   7.014  0.5450 -1.3994 -0.5213
  183SOPE   H2Y20917   5.754   5.963   7.009 -0.7219 -1.0927  2.1452
  183SOPE   C2320918   5.948   6.249   6.908 -0.4742 -0.2711 -0.6557
  183SOPE   H3R20919   5.844   6.272   6.878 -1.1582 -0.5616  1.3428
  183SOPE   H3S20920   5.985   6.351   6.930 -0.5185 -0.9452  3.1779
  183SOPE   C2420921   5.946   6.181   7.041  0.4018 -0.3292 -0.0971
  183SOPE   H4R20922   5.848   6.214   7.083  0.3402 -0.8014  0.1343
  183SOPE   H4S20923   5.957   6.072   7.028 -0.9947 -0.4152 -0.7458
  183SOPE   C2520924   6.053   6.226   7.132 -0.6025  0.7747 -0.3221
  183SOPE   H5R20925   6.064   6.147   7.210 -1.3655 -1.4607 -2.3770
  183SOPE   H5S20926   6.155   6.223   7.090 -0.2912 -1.8588  0.4345
  183SOPE   C2620927   6.030   6.358   7.211 -0.4086  0.0505 -0.7614
  183SOPE   H6R20928   6.121   6.370   7.274  0.0157 -1.8225 -0.9691
  183SOPE   H6S20929   6.014   6.444   7.143 -0.6678  0.4138 -0.2536
  183SOPE   C2720930   5.904   6.347   7.306  0.2794 -0.7540 -0.4776
  183SOPE   H7R20931   5.892   6.450   7.345 -3.5340 -0.6827 -1.3781
  183SOPE   H7S20932   5.811   6.320   7.250 -2.5131 -0.1654  3.4215
  183SOPE   C2820933   5.936   6.256   7.419 -0.5423  1.3989  0.6106
  183SOPE   H8R20934   5.956   6.155   7.377  3.6049  1.0932  2.7956
  183SOPE   H8S20935   6.031   6.284   7.470  0.5199 -1.6785  0.5231
  183SOPE   C2920936   5.824   6.244   7.519  0.0875 -0.8856 -0.3348
  183SOPE   H9120937   5.731   6.197   7.484 -0.8996  0.1578  0.7661
  183SOPE  C21020938   5.832   6.293   7.649  0.9252  0.2083  0.0674
  183SOPE  H10120939   5.743   6.287   7.713  1.2272 -0.4054  0.4294
  183SOPE  C21120940   5.950   6.369   7.706  0.0227  0.3261  0.2255
  183SOPE  H11R20941   6.009   6.421   7.628  1.5431 -0.4760  0.8076
  183SOPE  H11S20942   6.014   6.291   7.751 -0.6807 -0.0307  0.6338
  183SOPE  C21220943   5.924   6.482   7.803 -0.5880  0.4130 -0.2506
  183SOPE  H12R20944   5.863   6.561   7.754  1.1470  1.5418 -0.6949
  183SOPE  H12S20945   6.015   6.529   7.847 -2.3700  1.7415  2.2862
  183SOPE  C21320946   5.860   6.425   7.929  0.4938 -0.5242 -0.6704
  183SOPE  H13R20947   5.928   6.343   7.960  0.2903 -0.0319  1.2439
  183SOPE  H13S20948   5.761   6.374   7.923  0.3028 -0.2682  0.1249
  183SOPE  C21420949   5.838   6.520   8.055  0.5660  0.2849  0.6942
  183SOPE  H14R20950   5.816   6.464   8.149 -0.5773  1.7862  1.3700
  183SOPE  H14S20951   5.749   6.580   8.025 -1.6742 -3.4533 -0.9727
  183SOPE  C21520952   5.964   6.606   8.095  0.3796 -0.3075  0.1382
  183SOPE  H15R20953   5.997   6.687   8.026 -2.1416  2.4524  1.9086
  183SOPE  H15S20954   6.039   6.524   8.099  0.4921 -0.1657  1.6727
  183SOPE  C21620955   5.972   6.671   8.233  0.0947  0.6681 -0.2613
  183SOPE  H16R20956   5.939   6.592   8.304 -1.9723  1.7629  0.0803
  183SOPE  H16S20957   5.898   6.754   8.240  0.4159  0.8372  1.5757
  183SOPE  C21720958   6.115   6.719   8.278 -0.0849 -0.6450  0.5587
  183SOPE  H17R20959   6.144   6.803   8.212  0.1186 -1.4999 -0.4574
  183SOPE  H17S20960   6.192   6.644   8.252  2.1620  0.8411  2.5009
  183SOPE  C21820961   6.116   6.767   8.422 -0.2174 -0.5765 -0.5301
  183SOPE  H18R20962   6.033   6.836   8.450  0.0831  0.0248 -1.0980
  183SOPE  H18S20963   6.212   6.821   8.435 -0.8365  0.8791 -1.7273
  183SOPE  H18T20964   6.124   6.679   8.489 -0.9600  0.0949  0.4668
  183SOPE   C3320965   5.806   5.803   7.139 -0.3763 -0.3250  0.1311
  183SOPE   H3X20966   5.915   5.824   7.132 -0.2112 -0.5223  1.7426
  183SOPE   H3Y20967   5.808   5.692   7.151 -1.8670 -0.3193  0.6371
  183SOPE   C3420968   5.744   5.865   7.264  0.1145 -0.2698  0.8992
  183SOPE   H4X20969   5.634   5.846   7.263  0.2087 -1.1603 -1.5658
  183SOPE   H4Y20970   5.766   5.974   7.262  0.5664 -0.3678  0.2722
  183SOPE   C3520971   5.802   5.810   7.390  0.0203 -0.4739  0.6125
  183SOPE   H5X20972   5.879   5.874   7.439  0.9440 -1.4959  0.5348
  183SOPE   H5Y20973   5.846   5.709   7.376 -4.3060 -2.3625 -1.0978
  183SOPE   C3620974   5.685   5.778   7.487 -0.4198 -0.6894  0.3062
  183SOPE   H6X20975   5.610   5.713   7.438  0.0293  0.2375 -1.7456
  183SOPE   H6Y20976   5.639   5.879   7.494  1.0816  0.2947 -2.3311
  183SOPE   C3720977   5.737   5.741   7.630 -0.1229  0.4771  0.2323
  183SOPE   H7X20978   5.820   5.807   7.663  1.0210 -0.3512 -0.8705
  183SOPE   H7Y20979   5.781   5.639   7.625 -2.2920 -0.4703 -0.9821
  183SOPE   C3820980   5.635   5.757   7.740  0.0747  0.4852  0.8024
  183SOPE   H8X20981   5.561   5.675   7.731  0.3752  0.1097  1.6285
  183SOPE   H8Y20982   5.585   5.854   7.719 -1.0922  0.2531  2.3212
  183SOPE   C3920983   5.683   5.754   7.882  0.3069  0.6367 -0.0272
  183SOPE   H9X20984   5.761   5.830   7.906  1.6704 -0.8629  0.4694
  183SOPE   H9Y20985   5.735   5.658   7.904  0.1340  0.5697  0.0922
  183SOPE  C31020986   5.564   5.777   7.973  0.1499  0.1175 -0.0331
  183SOPE  H10X20987   5.595   5.758   8.078 -0.2851  1.3643  0.3470
  183SOPE  H10Y20988   5.480   5.707   7.956 -0.8047  1.1460  0.3157
  183SOPE  C31120989   5.497   5.914   7.967  0.5978 -0.4527 -0.2164
  183SOPE  H11X20990   5.457   5.952   7.871 -2.4275 -1.7533  0.4024
  183SOPE  H11Y20991   5.577   5.983   8.000  0.8377 -1.0659  0.5200
  183SOPE  C31220992   5.375   5.927   8.061  0.5785 -0.2153 -0.6492
  183SOPE  H12X20993   5.400   5.894   8.164 -3.2843  0.7122  0.7472
  183SOPE  H12Y20994   5.294   5.861   8.024 -0.7521  1.0911 -0.1414
  183SOPE  C31320995   5.316   6.070   8.067  0.2832 -0.7126  0.9564
  183SOPE  H13X20996   5.233   6.078   8.141 -2.3498 -1.6627 -1.7050
  183SOPE  H13Y20997   5.269   6.092   7.969 -2.2069 -1.2675  1.9371
  183SOPE  C31420998   5.419   6.181   8.092 -0.1946 -0.2622 -0.5107
  183SOPE  H14X20999   5.363   6.276   8.094  0.4583  0.1118  1.0647
  183SOPE  H14Y21000   5.502   6.172   8.018 -0.3562 -1.6187 -0.5672
  183SOPE  C31521001   5.479   6.172   8.232  0.7076  0.6219 -0.5336
  183SOPE  H15X21002   5.527   6.073   8.250 -0.9272  0.0038  0.6537
  183SOPE  H15Y21003   5.387   6.170   8.295 -0.4997 -0.0593 -2.2212
  183SOPE  C31621004   5.571   6.286   8.265 -0.5529 -0.1067  0.6320
  183SOPE  H16X21005   5.544   6.371   8.198 -1.8712 -1.2743 -0.3760
  183SOPE  H16Y21006   5.674   6.254   8.238  0.0285  1.8619  0.3195
  183SOPE  C31721007   5.571   6.320   8.417  0.4150  0.1664 -0.0307
  183SOPE  H17X21008   5.648   6.397   8.439  0.6740  0.7004 -2.4680
  183SOPE  H17Y21009   5.596   6.228   8.474 -1.8023 -2.4032 -2.8758
  183SOPE  C31821010   5.427   6.364   8.461  0.1876 -0.3723  0.1207
  183SOPE  H18X21011   5.369   6.423   8.387 -0.7294 -0.6639  0.5965
  183SOPE  H18Y21012   5.435   6.407   8.563  0.6713 -0.3377  0.0732
  183SOPE  H18Z21013   5.365   6.272   8.467 -1.6595  0.9035  1.9753
  184SOPE     N21014   5.311   6.757   6.005  0.9309  0.7299  0.3281
  184SOPE   HN121015   5.364   6.783   5.920  2.1762  0.6817  1.0688
  184SOPE   HN221016   5.249   6.839   6.021 -0.2341  0.1176 -0.8844
  184SOPE   HN321017   5.375   6.735   6.084  1.7038 -0.1165 -0.5204
  184SOPE   C1221018   5.215   6.646   5.979  0.3488 -0.0509 -0.2611
  184SOPE  H12A21019   5.149   6.678   5.896  2.3291  2.4496 -0.9791
  184SOPE  H12B21020   5.156   6.625   6.072  0.1049  2.1439  0.1379
  184SOPE   C1121021   5.285   6.514   5.944  0.1169  0.4299  0.3242
  184SOPE  H11A21022   5.356   6.525   5.859 -0.8391 -0.3708 -0.5978
  184SOPE  H11B21023   5.210   6.440   5.912 -1.0789  0.9460  1.7927
  184SOPE     P21024   5.310   6.345   6.149 -0.0741  0.3981  0.1874
  184SOPE   O1321025   5.391   6.342   6.270 -0.8216 -0.5765 -0.3162
  184SOPE   O1421026   5.303   6.218   6.072 -0.2644  0.0276  0.0426
  184SOPE   O1221027   5.355   6.468   6.061 -0.2188 -0.1458 -0.4116
  184SOPE   O1121028   5.167   6.394   6.192  0.1581  0.2614  0.1914
  184SOPE    C121029   5.146   6.488   6.293  0.3371 -0.2946  0.5869
  184SOPE    HA21030   5.048   6.540   6.282 -0.4837 -1.8870 -0.1446
  184SOPE    HB21031   5.237   6.550   6.303  2.2446 -2.5498 -1.4762
  184SOPE    C221032   5.132   6.421   6.433 -0.2573  0.8395 -0.8533
  184SOPE    HS21033   5.233   6.378   6.453 -0.7603  0.2085  0.4388
  184SOPE   O2121034   5.027   6.323   6.427 -0.3440  0.6446  0.3388
  184SOPE   C2121035   5.049   6.205   6.491  0.1643  0.2841 -0.0695
  184SOPE   O2221036   5.154   6.163   6.534 -0.4817 -0.3258  0.3967
  184SOPE   C2221037   4.922   6.122   6.483 -0.1031 -0.1390 -0.2408
  184SOPE   H2R21038   4.908   6.103   6.375  0.4839 -0.7486 -0.2146
  184SOPE   H2S21039   4.839   6.180   6.529  1.0156  0.8622  0.5849
  184SOPE    C321040   5.103   6.514   6.559 -0.5498  0.1342  0.5562
  184SOPE    HX21041   5.010   6.571   6.539 -0.4143 -0.3284 -1.6571
  184SOPE    HY21042   5.185   6.588   6.570  0.1785 -0.6805  0.7681
  184SOPE   O3121043   5.085   6.428   6.679 -0.8890 -1.0593  0.1858
  184SOPE   C3121044   5.192   6.392   6.742 -0.0181  0.3496 -0.2009
  184SOPE   O3221045   5.309   6.407   6.705 -0.5240  0.0189 -0.6875
  184SOPE   C3221046   5.152   6.328   6.889 -0.1892  0.4652  0.7278
  184SOPE   H2X21047   5.060   6.271   6.862  0.5983 -0.4285 -0.1773
  184SOPE   H2Y21048   5.122   6.420   6.943  0.4911  0.4859  1.0788
  184SOPE   C2321049   4.930   5.986   6.551 -0.8105 -0.0754 -0.6374
  184SOPE   H3R21050   5.033   5.946   6.549 -1.1034 -1.1713  2.0749
  184SOPE   H3S21051   4.865   5.906   6.508 -0.1407 -2.3691  2.2626
  184SOPE   C2421052   4.894   6.001   6.701  0.3471  0.7873  0.8349
  184SOPE   H4R21053   4.929   6.100   6.737 -0.9799  1.6238 -0.0936
  184SOPE   H4S21054   4.783   5.996   6.701  0.0933  1.0232 -4.4117
  184SOPE   C2521055   4.949   5.877   6.775  0.1162  0.5057  0.1464
  184SOPE   H5R21056   4.903   5.792   6.719 -0.4376  1.0246 -0.1981
  184SOPE   H5S21057   5.059   5.859   6.769  0.0951  0.8038 -1.7796
  184SOPE   C2621058   4.907   5.873   6.924 -0.9318  0.3245  0.3092
  184SOPE   H6R21059   4.942   5.968   6.971 -1.8918  0.2405  1.2223
  184SOPE   H6S21060   4.796   5.878   6.928 -0.9958 -1.1620  0.6480
  184SOPE   C2721061   4.966   5.760   7.007  0.2905  0.3727  0.0863
  184SOPE   H7R21062   4.934   5.664   6.960  1.2113 -0.1184  0.4472
  184SOPE   H7S21063   5.076   5.763   6.997  0.2420 -1.0926 -1.4139
  184SOPE   C2821064   4.917   5.770   7.152  0.3517  0.5442 -0.2028
  184SOPE   H8R21065   4.883   5.871   7.183  1.5016  0.9932 -0.3838
  184SOPE   H8S21066   4.828   5.703   7.162  1.4546 -1.0465 -0.6619
  184SOPE   C2921067   5.030   5.722   7.242  0.4188 -0.3034 -0.2251
  184SOPE   H9121068   5.109   5.673   7.183 -1.1275 -2.1769 -0.8734
  184SOPE  C21021069   5.025   5.736   7.377 -0.1010  0.4215  0.3568
  184SOPE  H10121070   5.105   5.690   7.437 -0.4090 -1.9991 -0.9577
  184SOPE  C21121071   4.917   5.792   7.470 -0.5539 -0.2122  0.0350
  184SOPE  H11R21072   4.856   5.707   7.508  0.5491 -0.7388  0.7018
  184SOPE  H11S21073   4.850   5.851   7.405  0.5778  0.7458 -0.3085
  184SOPE  C21221074   4.957   5.889   7.588  0.1411  0.9482  0.3329
  184SOPE  H12R21075   4.996   5.979   7.536 -1.1291 -0.5938 -3.6070
  184SOPE  H12S21076   5.042   5.848   7.648  1.6324  2.1058 -0.9044
  184SOPE  C21321077   4.840   5.931   7.680  1.3401  0.5480 -0.2044
  184SOPE  H13R21078   4.785   5.842   7.716  0.0857  1.8719  1.3011
  184SOPE  H13S21079   4.774   5.986   7.608 -1.0962 -1.7417  0.1241
  184SOPE  C21421080   4.863   6.008   7.807  0.3523  0.4168 -0.0119
  184SOPE  H14R21081   4.913   5.944   7.883 -1.4578 -0.3479  0.5773
  184SOPE  H14S21082   4.765   6.027   7.856  0.6280  1.3308  0.2152
  184SOPE  C21521083   4.946   6.139   7.802 -0.4820  0.6536  0.0942
  184SOPE  H15R21084   4.902   6.220   7.740 -0.5983  0.3122 -0.2751
  184SOPE  H15S21085   5.049   6.122   7.764 -1.1882 -1.8241 -0.9115
  184SOPE  C21621086   4.942   6.195   7.950 -0.0116  0.4313  0.9322
  184SOPE  H16R21087   5.016   6.138   8.009  0.0109 -2.3330 -1.5418
  184SOPE  H16S21088   4.838   6.189   7.988 -0.1478 -0.6541  0.4313
  184SOPE  C21721089   4.991   6.336   7.958 -0.4395 -0.0135  0.2905
  184SOPE  H17R21090   4.928   6.410   7.905  0.8791  0.3166 -0.9055
  184SOPE  H17S21091   5.084   6.346   7.897 -0.6933 -1.5378 -0.4112
  184SOPE  C21821092   4.999   6.370   8.102 -0.0242 -0.0688  0.5719
  184SOPE  H18R21093   4.896   6.376   8.143 -1.0104 -0.9966 -1.6059
  184SOPE  H18S21094   5.049   6.469   8.113  0.5083 -0.4501  1.7856
  184SOPE  H18T21095   5.058   6.294   8.157 -0.4406 -0.2030  0.8372
  184SOPE   C3321096   5.266   6.243   6.953 -0.4740 -0.1681 -0.4709
  184SOPE   H3X21097   5.240   6.215   7.057  1.9979 -3.0550 -0.4921
  184SOPE   H3Y21098   5.358   6.304   6.945 -1.0644  1.0183  1.2141
  184SOPE   C3421099   5.267   6.110   6.889  0.0686  0.1775 -0.1512
  184SOPE   H4X21100   5.301   6.117   6.783 -0.8058  0.6322 -0.4111
  184SOPE   H4Y21101   5.162   6.076   6.886 -0.5152  1.9373 -0.9505
  184SOPE   C3521102   5.347   6.000   6.961 -0.3683 -0.5393 -0.5444
  184SOPE   H5X21103   5.450   6.041   6.960 -1.1726  1.6681  0.4437
  184SOPE   H5Y21104   5.353   5.907   6.901 -0.3018 -0.4332 -0.7048
  184SOPE   C3621105   5.289   5.961   7.090 -0.2502 -0.3307  0.8138
  184SOPE   H6X21106   5.306   5.852   7.105  0.2706 -0.0000  2.9202
  184SOPE   H6Y21107   5.182   5.989   7.092  0.2218  1.5547  1.9588
  184SOPE   C3721108   5.364   6.023   7.208  0.1714 -0.0514 -0.0726
  184SOPE   H7X21109   5.397   6.129   7.205 -0.3060  0.0772 -1.0980
  184SOPE   H7Y21110   5.456   5.963   7.226 -0.1421 -1.0145 -1.5418
  184SOPE   C3821111   5.275   6.000   7.332  0.5573 -0.4224  0.3888
  184SOPE   H8X21112   5.276   5.897   7.373  0.1107 -0.9311 -0.8449
  184SOPE   H8Y21113   5.170   6.017   7.300  0.6177 -0.1973  0.3037
  184SOPE   C3921114   5.306   6.099   7.451  0.4409 -0.4976 -0.2915
  184SOPE   H9X21115   5.237   6.069   7.533  4.4109  0.2699  3.7462
  184SOPE   H9Y21116   5.292   6.206   7.424  0.8964 -0.0614  1.1204
  184SOPE  C31021117   5.435   6.069   7.524 -0.3606  0.6512 -0.1701
  184SOPE  H10X21118   5.523   6.094   7.461  0.1012  1.5657  0.8051
  184SOPE  H10Y21119   5.429   5.961   7.553 -0.9273  0.5006 -0.8181
  184SOPE  C31121120   5.463   6.158   7.645 -0.7106 -0.0365 -0.1102
  184SOPE  H11X21121   5.565   6.133   7.680 -1.0155 -0.0488  0.7763
  184SOPE  H11Y21122   5.385   6.136   7.721 -1.7903  1.3657 -0.7676
  184SOPE  C31221123   5.465   6.307   7.620  0.0525 -0.9520 -0.4502
  184SOPE  H12X21124   5.385   6.343   7.552  0.8962  0.5918 -0.6766
  184SOPE  H12Y21125   5.559   6.345   7.575  1.0627  0.8014  2.7657
  184SOPE  C31321126   5.442   6.385   7.753 -0.0899  1.0638  0.1175
  184SOPE  H13X21127   5.507   6.330   7.824 -1.8361  0.8892  1.6514
  184SOPE  H13Y21128   5.339   6.367   7.790 -0.9061  0.2520 -2.3078
  184SOPE  C31421129   5.479   6.533   7.761  0.2344 -0.8438  0.0313
  184SOPE  H14X21130   5.416   6.606   7.706  1.9935 -0.7470 -1.9879
  184SOPE  H14Y21131   5.580   6.541   7.714  0.8044 -2.0623  0.9718
  184SOPE  C31521132   5.496   6.579   7.911  0.0399  0.3998  0.5544
  184SOPE  H15X21133   5.581   6.649   7.922  1.9956 -1.8358  0.5462
  184SOPE  H15Y21134   5.537   6.490   7.965  0.3637  0.3042  0.1558
  184SOPE  C31621135   5.369   6.636   7.977 -0.3878  0.0689  0.3104
  184SOPE  H16X21136   5.282   6.573   7.949  0.5537 -0.5167 -1.4749
  184SOPE  H16Y21137   5.367   6.744   7.948 -0.3443  0.0717  0.3176
  184SOPE  C31721138   5.364   6.626   8.129  0.1415  0.1052  0.5706
  184SOPE  H17X21139   5.360   6.520   8.161 -0.5825 -0.4565 -1.2251
  184SOPE  H17Y21140   5.272   6.666   8.178  0.3472  0.0045  1.0436
  184SOPE  C31821141   5.484   6.691   8.198 -0.2799  0.1214 -0.6530
  184SOPE  H18X21142   5.578   6.653   8.152  0.1897  0.8292 -0.2888
  184SOPE  H18Y21143   5.486   6.656   8.303  1.3655  1.1456 -0.3103
  184SOPE  H18Z21144   5.484   6.801   8.212  0.6147 -0.0464  0.8159
  185SAPI   C1221145   4.556   2.122  11.016  0.3524  1.0146 -0.1409
  185SAPI    H221146   4.534   2.131  10.907 -1.0629  2.3317  0.2187
  185SAPI    O221147   4.683   2.191  11.036 -0.3500  0.1775 -0.2413
  185SAPI   HO221148   4.736   2.130  10.983 -1.1250 -1.1980  0.4916
  185SAPI   C1321149   4.436   2.177  11.097  0.0838 -0.2515  0.2056
  185SAPI    H321150   4.346   2.119  11.069 -1.1181  1.7370 -0.2416
  185SAPI    O321151   4.415   2.315  11.051  0.2350  0.5909  0.1995
  185SAPI   HO321152   4.485   2.365  11.093 -0.4793  0.6370  1.3890
  185SAPI   C1421153   4.456   2.155  11.245  0.3368 -0.8586 -0.1112
  185SAPI    H421154   4.545   2.214  11.276 -0.4487 -0.1174  0.7704
  185SAPI    O421155   4.344   2.205  11.318 -0.5277 -0.4780 -0.2466
  185SAPI   HO421156   4.346   2.301  11.324  0.2278 -0.6072  3.0087
  185SAPI   C1521157   4.471   2.007  11.276  0.2241  0.3536  0.1580
  185SAPI    H521158   4.386   1.956  11.226  2.0960 -3.9496  0.9090
  185SAPI    O521159   4.485   1.988  11.423  0.8045 -0.2985 -0.5262
  185SAPI   HO521160   4.412   1.938  11.461  1.0540 -0.1554  0.1517
  185SAPI   C1621161   4.590   1.954  11.199  0.0330  0.1515  0.2106
  185SAPI    H621162   4.680   2.002  11.242  1.0074 -2.1857  0.9654
  185SAPI    O621163   4.614   1.818  11.237  0.0141  0.1288 -0.0544
  185SAPI   HO621164   4.532   1.779  11.267 -1.5853  2.1688 -1.5380
  185SAPI   C1121165   4.584   1.973  11.043  0.0074  0.0300  0.1173
  185SAPI    H121166   4.493   1.918  11.011  0.9643 -1.9006  0.5073
  185SAPI     P21167   4.682   1.849  10.827 -0.1929 -0.2250  0.1372
  185SAPI   O1321168   4.561   1.771  10.819 -0.6378 -0.2412 -0.3634
  185SAPI   O1421169   4.807   1.773  10.796 -0.1654 -0.0588 -0.1298
  185SAPI   O1221170   4.701   1.921  10.975 -0.2285 -0.5134 -0.2211
  185SAPI   O1121171   4.677   1.965  10.719  0.0306 -0.5773 -0.5318
  185SAPI    C121172   4.777   2.067  10.722  0.0575  0.2501  0.4050
  185SAPI    HA21173   4.730   2.148  10.782 -1.9894  0.7882 -1.8188
  185SAPI    HB21174   4.874   2.035  10.767 -0.5805 -0.7970  1.0674
  185SAPI    C221175   4.816   2.134  10.590  0.1288 -0.8600 -0.7420
  185SAPI    HS21176   4.810   2.244  10.608  2.7324 -0.7436 -0.1542
  185SAPI   O2121177   4.734   2.099  10.480 -0.0292 -0.3585  0.3021
  185SAPI   C2121178   4.603   2.125  10.503  0.3698 -0.6850 -0.5748
  185SAPI   O2221179   4.560   2.200  10.593 -0.4061  0.0486  0.4348
  185SAPI   C2221180   4.524   2.043  10.405  0.2369  0.4843 -0.0282
  185SAPI   H2R21181   4.581   1.992  10.325  0.0321 -1.3207  0.9227
  185SAPI   H2S21182   4.479   1.966  10.472 -1.2770  0.8728 -0.5534
  185SAPI    C321183   4.964   2.105  10.546 -0.3068  0.1592  0.2986
  185SAPI    HX21184   4.960   1.994  10.542 -0.8384  0.1995 -0.5892
  185SAPI    HY21185   5.044   2.125  10.621 -0.6280 -0.4360  0.8037
  185SAPI   O3121186   5.011   2.149  10.416 -0.4824  0.2279  0.4011
  185SAPI   C3121187   5.032   2.278  10.410  0.8073 -0.1851 -0.0479
  185SAPI   O3221188   5.019   2.360  10.498 -0.1318 -0.3371 -0.5097
  185SAPI   C3221189   5.037   2.306  10.262 -0.2049  0.1357  0.4543
  185SAPI   H2X21190   5.069   2.411  10.243 -2.4229  0.5650 -1.2969
  185SAPI   H2Y21191   4.934   2.312  10.222 -0.6814  0.8380  1.7447
  185SAPI   C2321192   4.409   2.122  10.339  0.4607 -0.5056  0.2746
  185SAPI   H3R21193   4.337   2.147  10.420  3.0708 -0.5224  2.7620
  185SAPI   H3S21194   4.363   2.056  10.263  2.1772 -2.4227  0.8209
  185SAPI   C2421195   4.456   2.244  10.264 -0.0522 -0.3277 -0.4187
  185SAPI   H4R21196   4.514   2.307  10.334  2.3308 -1.1597 -1.5495
  185SAPI   H4S21197   4.364   2.294  10.225  0.2356  2.4361  2.1189
  185SAPI   C2521198   4.543   2.196  10.146  0.0307 -0.4900  0.2324
  185SAPI   H5R21199   4.638   2.151  10.177  1.1465 -0.1697 -2.3787
  185SAPI   C2621200   4.524   2.206  10.009 -0.2832  0.1657  0.1351
  185SAPI   H6R21201   4.603   2.169   9.942 -1.2948  0.4337 -1.2585
  185SAPI   C2721202   4.402   2.264   9.941  0.2966  0.7570  1.0294
  185SAPI   H7R21203   4.432   2.357   9.887  0.2495  0.6500  0.8195
  185SAPI   H7S21204   4.319   2.287  10.011  0.3741  4.3821  0.1406
  185SAPI   C2821205   4.348   2.159   9.843  0.2153 -0.8809 -0.3181
  185SAPI   H8R21206   4.336   2.064   9.896 -1.4624  1.2359  3.5857
  185SAPI   C2921207   4.315   2.161   9.708 -0.0071  0.3842  0.0669
  185SAPI   H9R21208   4.263   2.076   9.661 -1.6125  2.1716 -1.5734
  185SAPI  C21021209   4.343   2.278   9.613  0.2999  0.1546  0.8654
  185SAPI  H10R21210   4.450   2.280   9.584 -0.0223 -3.1611 -1.0392
  185SAPI  H10S21211   4.314   2.374   9.662  1.4798  0.8040  0.3437
  185SAPI  C21121212   4.263   2.254   9.483  0.0825 -0.3297 -0.0182
  185SAPI  H11R21213   4.155   2.250   9.499  0.0397 -0.9509 -0.4343
  185SAPI  C21221214   4.309   2.233   9.357 -0.1864  0.3912  0.6168
  185SAPI  H12R21215   4.232   2.215   9.280  1.2480 -0.6954 -0.6186
  185SAPI  C21321216   4.452   2.230   9.316  0.7554  0.4965 -0.6344
  185SAPI  H13R21217   4.514   2.286   9.389 -2.5078  3.1312  0.3170
  185SAPI  H13S21218   4.469   2.298   9.229  1.8103 -1.5161 -2.0900
  185SAPI  C21421219   4.499   2.086   9.294  0.5722 -0.3554 -0.2150
  185SAPI  H14R21220   4.529   2.022   9.378  3.7544 -0.3289 -1.2042
  185SAPI  C21521221   4.523   2.023   9.181 -0.7013 -0.2735 -0.4058
  185SAPI  H15R21222   4.534   1.914   9.189 -3.3918 -0.4890  2.0834
  185SAPI  C21621223   4.525   2.081   9.040  0.0803  0.4367 -0.1183
  185SAPI  H16R21224   4.625   2.067   8.994 -1.1758  2.0241 -3.6486
  185SAPI  H16S21225   4.510   2.191   9.036 -2.9588  0.0788 -0.2830
  185SAPI  C21721226   4.425   2.020   8.934  0.2487  0.6309 -0.3359
  185SAPI  H17R21227   4.429   2.093   8.851 -1.4904 -0.4056 -1.4083
  185SAPI  H17S21228   4.322   2.015   8.976 -0.1306  0.9551 -1.2178
  185SAPI  C21821229   4.464   1.880   8.884  0.0458  0.4092  0.0973
  185SAPI  H18R21230   4.468   1.805   8.966 -0.2535 -0.1348 -0.3842
  185SAPI  H18S21231   4.560   1.894   8.829  0.0799  0.6368  0.2147
  185SAPI  C21921232   4.365   1.833   8.782  0.6143  0.3759  0.4549
  185SAPI  H19R21233   4.367   1.902   8.695  1.5454  1.1273  1.0471
  185SAPI  H19S21234   4.261   1.838   8.821 -0.2605 -1.2130 -1.5007
  185SAPI  C22021235   4.407   1.699   8.727  0.0497  0.4343  0.0987
  185SAPI  H20R21236   4.479   1.703   8.642  0.9633  0.7199  0.8785
  185SAPI  H20S21237   4.318   1.660   8.673 -0.7828  2.4568 -0.0612
  185SAPI  H20T21238   4.439   1.628   8.806 -1.3416 -1.3329 -0.8431
  185SAPI   C3321239   5.123   2.211  10.178  0.4897  0.2482 -0.1955
  185SAPI   H3X21240   5.089   2.106  10.175  0.4026  0.3070 -1.6948
  185SAPI   H3Y21241   5.228   2.203  10.216 -0.1407 -1.5645  1.3342
  185SAPI   C3421242   5.118   2.248  10.029 -0.1143 -0.6175 -0.4033
  185SAPI   H4X21243   5.158   2.352  10.020 -0.0144 -0.5753  0.4776
  185SAPI   H4Y21244   5.016   2.261   9.987 -0.6563  1.4229  1.3303
  185SAPI   C3521245   5.199   2.155   9.940  0.8169 -0.1280  0.5917
  185SAPI   H5X21246   5.159   2.052   9.949 -0.8875  0.3092 -1.2353
  185SAPI   H5Y21247   5.302   2.175   9.977  0.8076 -0.1827  0.6449
  185SAPI   C3621248   5.198   2.194   9.786  0.5522  0.6038 -0.2011
  185SAPI   H6X21249   5.225   2.301   9.792  0.9963  0.4816  0.0378
  185SAPI   H6Y21250   5.099   2.182   9.738  1.1693 -0.0673 -1.3746
  185SAPI   C3721251   5.291   2.110   9.696  0.4221 -0.6088 -0.3193
  185SAPI   H7X21252   5.252   2.007   9.687 -1.9605 -0.0186  2.0848
  185SAPI   H7Y21253   5.395   2.117   9.735  0.5011  3.0615 -0.7741
  185SAPI   C3821254   5.307   2.159   9.554  0.7996  0.0785  0.1329
  185SAPI   H8X21255   5.360   2.082   9.494 -1.0505  0.2042 -1.7904
  185SAPI   H8Y21256   5.348   2.261   9.535 -1.4187  1.1339  0.6372
  185SAPI   C3921257   5.169   2.172   9.484  0.0299 -0.3396 -0.0608
  185SAPI   H9X21258   5.116   2.258   9.530  2.3481  1.9693 -1.4035
  185SAPI   H9Y21259   5.114   2.077   9.498 -0.8474  0.0684 -0.6528
  185SAPI  C31021260   5.181   2.208   9.332 -0.2254 -0.3567 -0.1852
  185SAPI  H10X21261   5.250   2.132   9.288  1.6672  0.5213  1.1087
  185SAPI  H10Y21262   5.235   2.303   9.314  1.1121 -1.4325 -2.1620
  185SAPI  C31121263   5.036   2.224   9.265 -0.0937  0.2630  0.6838
  185SAPI  H11X21264   4.982   2.305   9.319 -3.2544 -0.0323 -1.7432
  185SAPI  H11Y21265   4.996   2.122   9.280 -0.5234  0.4065  0.5048
  185SAPI  C31221266   5.029   2.261   9.119  0.1149 -0.2998  0.4218
  185SAPI  H12X21267   5.106   2.209   9.058  1.8060  3.3163 -0.7888
  185SAPI  H12Y21268   5.038   2.370   9.098  0.2749 -0.7454 -2.1909
  185SAPI  C31321269   4.878   2.231   9.060 -0.0104 -0.3174 -0.3902
  185SAPI  H13X21270   4.816   2.284   9.136  0.7344 -0.4813  0.3480
  185SAPI  H13Y21271   4.845   2.125   9.070 -1.2014  0.0467 -0.2471
  185SAPI  C31421272   4.857   2.287   8.917  0.5052  0.2787  0.5509
  185SAPI  H14X21273   4.882   2.395   8.923  0.1614  0.3776  0.2436
  185SAPI  H14Y21274   4.751   2.268   8.888  0.8280 -1.0508  0.1535
  185SAPI  C31521275   4.957   2.222   8.821  0.5197  0.0408 -1.1267
  185SAPI  H15X21276   4.938   2.113   8.817  0.3989 -0.1124  1.4638
  185SAPI  H15Y21277   5.062   2.248   8.843  0.2055  0.1137  0.4102
  185SAPI  C31621278   4.928   2.270   8.682 -0.5697  0.0692  0.2560
  185SAPI  H16X21279   4.926   2.381   8.687 -2.1414  0.0826  0.0525
  185SAPI  H16Y21280   4.826   2.230   8.660  0.6193 -3.4330  0.4375
  185SAPI  C31721281   5.034   2.229   8.577 -0.4333  0.2911 -0.2578
  185SAPI  H17X21282   5.033   2.120   8.555  0.5398  0.3702 -0.7496
  185SAPI  H17Y21283   5.133   2.251   8.622 -0.9242  1.5161  0.2612
  185SAPI  C31821284   5.022   2.314   8.447  0.1294 -0.0699  0.2008
  185SAPI  H18X21285   5.024   2.422   8.473 -0.6169 -0.4503  1.9843
  185SAPI  H18Y21286   4.926   2.289   8.397  0.5755  1.4181 -1.5218
  185SAPI  H18Z21287   5.112   2.282   8.390  0.3576 -2.4390  1.7602
  186SAPI   C1221288   5.055   0.463  10.541  0.7149 -0.0674 -0.0908
  186SAPI    H221289   5.045   0.535  10.457  1.8700 -2.6830 -2.6495
  186SAPI    O221290   4.927   0.419  10.570 -0.0319  0.3279  0.1975
  186SAPI   HO221291   4.873   0.492  10.600 -0.6513  0.0998 -0.3483
  186SAPI   C1321292   5.145   0.339  10.512  0.1031  0.0152 -1.0724
  186SAPI    H321293   5.248   0.377  10.492 -0.0864  2.3744  1.7433
  186SAPI    O321294   5.109   0.275  10.387 -0.0655  0.7678  0.3642
  186SAPI   HO321295   5.157   0.322  10.318  0.0582  0.2846  0.1188
  186SAPI   C1421296   5.151   0.243  10.636 -0.3921 -0.0493  0.8230
  186SAPI    H421297   5.053   0.194  10.654 -0.3721  0.1542  1.4840
  186SAPI    O421298   5.245   0.140  10.597 -0.5874 -0.1136 -0.0509
  186SAPI   HO421299   5.203   0.089  10.527  1.2630  0.8443 -1.9970
  186SAPI   C1521300   5.203   0.316  10.756 -0.0016 -0.1048 -1.1218
  186SAPI    H521301   5.302   0.354  10.725  0.6627 -1.4087 -0.6355
  186SAPI    O521302   5.219   0.236  10.867  0.7184 -0.3422  0.1043
  186SAPI   HO521303   5.302   0.265  10.906  0.8518 -0.3648 -0.1618
  186SAPI   C1621304   5.111   0.438  10.786  0.0545  0.7331  0.1935
  186SAPI    H621305   5.007   0.400  10.803 -0.8953  1.7629 -2.7362
  186SAPI    O621306   5.158   0.507  10.903  0.1385  0.1668  0.5936
  186SAPI   HO621307   5.149   0.456  10.984 -0.4934 -1.4854 -0.4728
  186SAPI   C1121308   5.105   0.533  10.669  0.5891 -0.4397 -0.6530
  186SAPI    H121309   5.212   0.562  10.660  1.1196 -2.4257 -1.3841
  186SAPI     P21310   5.063   0.796  10.676  0.2587 -0.2731 -0.0502
  186SAPI   O1321311   5.208   0.811  10.656  0.3148  0.5234 -0.7514
  186SAPI   O1421312   5.011   0.884  10.787  0.0870  0.5613 -0.4256
  186SAPI   O1221313   5.014   0.645  10.696  0.1381  0.9297 -0.7917
  186SAPI   O1121314   5.002   0.845  10.544  0.2568 -0.6876 -0.1959
  186SAPI    C121315   4.866   0.812  10.506 -0.2357 -0.3302  0.8102
  186SAPI    HA21316   4.863   0.708  10.468  0.5205 -1.1062  2.7982
  186SAPI    HB21317   4.790   0.815  10.587 -1.9599 -0.1383 -0.7417
  186SAPI    C221318   4.812   0.897  10.389  0.5645 -0.1564  0.1154
  186SAPI    HS21319   4.724   0.847  10.343  1.5890  0.3260 -2.6154
  186SAPI   O2121320   4.915   0.921  10.290 -0.4193  0.0951 -0.2414
  186SAPI   C2121321   4.931   0.815  10.213  0.6991  0.2131  0.3242
  186SAPI   O2221322   4.867   0.710  10.210  0.0903  0.0404  0.7614
  186SAPI   C2221323   5.036   0.845  10.101  0.3210 -0.1946  0.3998
  186SAPI   H2R21324   5.053   0.955  10.099  0.6840 -0.2073 -3.1834
  186SAPI   H2S21325   5.138   0.806  10.123  1.3502  1.1779 -1.6479
  186SAPI    C321326   4.765   1.035  10.448 -0.0901 -0.0700  0.2191
  186SAPI    HX21327   4.844   1.093  10.499  1.7595 -1.8555 -0.4720
  186SAPI    HY21328   4.687   1.011  10.524 -0.8645  0.3446 -0.4353
  186SAPI   O3121329   4.706   1.107  10.335 -0.0986  0.3971  0.7913
  186SAPI   C3121330   4.789   1.182  10.265  0.0515  0.3124 -0.1076
  186SAPI   O3221331   4.902   1.221  10.299  1.1010 -0.6661 -0.0366
  186SAPI   C3221332   4.743   1.207  10.128  0.4093  0.4002  0.0513
  186SAPI   H2X21333   4.725   1.316  10.116  0.9040  0.4298 -0.4565
  186SAPI   H2Y21334   4.649   1.149  10.114  1.3532 -1.2524  0.3115
  186SAPI   C2321335   4.995   0.801   9.964  1.2348 -0.5853  0.2407
  186SAPI   H3R21336   4.886   0.813   9.951  1.4631  3.1339  0.7189
  186SAPI   H3S21337   5.015   0.692   9.960  1.2864 -0.5553 -0.5914
  186SAPI   C2421338   5.068   0.877   9.851  0.4625  0.9218  0.3900
  186SAPI   H4R21339   5.056   0.987   9.862 -2.2749  0.8928 -1.4518
  186SAPI   H4S21340   5.011   0.856   9.759 -1.8482  0.4957  1.8369
  186SAPI   C2521341   5.217   0.858   9.843  0.3038 -0.1218 -0.2816
  186SAPI   H5R21342   5.271   0.836   9.936  1.2610 -0.6543 -0.9467
  186SAPI   C2621343   5.287   0.877   9.729 -0.5866 -0.3071 -0.4963
  186SAPI   H6R21344   5.396   0.869   9.744 -0.4486  2.0967  0.3946
  186SAPI   C2721345   5.237   0.924   9.594 -0.5307  0.5659  0.0205
  186SAPI   H7R21346   5.268   1.028   9.571 -1.0134  1.0355  1.3588
  186SAPI   H7S21347   5.126   0.912   9.593 -0.3755 -1.1986  0.0444
  186SAPI   C2821348   5.280   0.835   9.485 -0.3879  0.2795  0.2915
  186SAPI   H8R21349   5.358   0.767   9.523  0.2721  1.9042  2.0095
  186SAPI   C2921350   5.235   0.821   9.357  0.1341  0.0763 -0.3812
  186SAPI   H9R21351   5.310   0.774   9.292  0.6446  1.0338 -0.4999
  186SAPI  C21021352   5.115   0.883   9.287 -0.3645 -0.4253 -0.0919
  186SAPI  H10R21353   5.148   0.943   9.200 -1.5595  1.6221  0.7838
  186SAPI  H10S21354   5.069   0.965   9.347 -0.3405 -0.0200 -0.6162
  186SAPI  C21121355   5.023   0.774   9.248  0.1197 -0.3573  0.4706
  186SAPI  H11R21356   4.963   0.737   9.333 -1.6916  0.8732 -0.2082
  186SAPI  C21221357   4.998   0.730   9.126 -0.5108  1.1992 -0.6667
  186SAPI  H12R21358   4.913   0.661   9.110 -1.5834  2.8197 -2.4562
  186SAPI  C21321359   5.053   0.793   9.000 -0.1980  0.0664 -0.8251
  186SAPI  H13R21360   5.160   0.816   9.022  0.0164 -1.2683 -0.4314
  186SAPI  H13S21361   4.990   0.884   8.987 -0.6433  0.1308  1.3758
  186SAPI  C21421362   5.052   0.709   8.876 -0.3041 -0.1663  0.7857
  186SAPI  H14R21363   5.046   0.599   8.888  0.5804 -0.2167  0.8280
  186SAPI  C21521364   5.060   0.761   8.752 -0.1748 -0.4130  0.3791
  186SAPI  H15R21365   5.051   0.703   8.659 -0.8156 -0.4036  0.4333
  186SAPI  C21621366   5.075   0.908   8.714 -0.0275  0.1466 -0.6121
  186SAPI  H16R21367   5.155   0.914   8.637  0.2633  0.4558 -0.2909
  186SAPI  H16S21368   5.098   0.972   8.802  0.1832 -2.0441  1.0026
  186SAPI  C21721369   4.953   0.955   8.638 -0.5623 -0.4683  0.6091
  186SAPI  H17R21370   4.868   0.971   8.708  0.3574  0.2641  1.5803
  186SAPI  H17S21371   4.909   0.881   8.567 -0.6324 -1.4492  1.6387
  186SAPI  C21821372   4.970   1.086   8.554  0.4750 -0.3978 -0.1780
  186SAPI  H18R21373   5.038   1.054   8.472 -0.1448 -1.5713 -0.2547
  186SAPI  H18S21374   5.019   1.168   8.612 -1.0160  1.8157 -1.8941
  186SAPI  C21921375   4.841   1.144   8.497  0.1371  0.2743 -0.2942
  186SAPI  H19R21376   4.755   1.150   8.566 -0.4327 -2.3184 -0.6556
  186SAPI  H19S21377   4.798   1.066   8.431  2.9746  0.2573 -2.3245
  186SAPI  C22021378   4.859   1.275   8.427 -0.1362  0.2488 -0.2775
  186SAPI  H20R21379   4.910   1.349   8.492 -2.4403  0.8105  0.9744
  186SAPI  H20S21380   4.764   1.317   8.387 -0.4262  0.5646  0.7146
  186SAPI  H20T21381   4.929   1.264   8.341 -1.5968 -0.6362 -1.4074
  186SAPI   C3321382   4.832   1.165  10.009  0.3234  0.3455  0.3360
  186SAPI   H3X21383   4.848   1.057   9.987  1.6932  0.7271 -0.7355
  186SAPI   H3Y21384   4.938   1.190  10.033  0.1957  0.9025  0.3283
  186SAPI   C3421385   4.787   1.236   9.880 -0.6117  0.6498  0.2440
  186SAPI   H4X21386   4.833   1.337   9.882  1.2628 -0.1073 -1.5128
  186SAPI   H4Y21387   4.677   1.233   9.872 -0.5253 -2.6367 -1.4587
  186SAPI   C3521388   4.853   1.169   9.757  0.1480  0.0197 -0.3390
  186SAPI   H5X21389   4.794   1.076   9.739 -1.5187  0.7314  1.2759
  186SAPI   H5Y21390   4.964   1.162   9.763  0.2120 -0.4703 -1.7233
  186SAPI   C3621391   4.828   1.264   9.633  0.1265  0.2548  0.5822
  186SAPI   H6X21392   4.892   1.352   9.654 -0.4617  0.4147  1.8002
  186SAPI   H6Y21393   4.722   1.296   9.627 -0.0546 -0.5995 -2.0504
  186SAPI   C3721394   4.861   1.197   9.501  0.9084 -0.1186 -0.0584
  186SAPI   H7X21395   4.771   1.142   9.466 -0.6400  0.7084  2.3260
  186SAPI   H7Y21396   4.946   1.126   9.507  0.7654 -0.2585  0.3556
  186SAPI   C3821397   4.888   1.299   9.390 -0.0294 -0.5830  0.4432
  186SAPI   H8X21398   4.995   1.325   9.400 -0.0712 -0.9521  2.1302
  186SAPI   H8Y21399   4.826   1.390   9.400 -0.6643 -1.0287  0.6258
  186SAPI   C3921400   4.872   1.237   9.251 -0.2125  0.3447  0.2911
  186SAPI   H9X21401   4.775   1.183   9.256  0.6246 -1.2048  0.4550
  186SAPI   H9Y21402   4.951   1.162   9.226  0.3555  1.5818 -1.9657
  186SAPI  C31021403   4.875   1.341   9.132 -0.1677  0.5362 -0.1456
  186SAPI  H10X21404   4.974   1.390   9.144 -0.3438  1.1925 -1.2659
  186SAPI  H10Y21405   4.805   1.426   9.146 -3.0864 -1.2467 -2.6997
  186SAPI  C31121406   4.845   1.276   8.999  0.0625  0.4386 -0.5834
  186SAPI  H11X21407   4.833   1.351   8.918 -0.1953  1.3987  0.3235
  186SAPI  H11Y21408   4.755   1.214   9.020  0.3828  0.1037 -0.1922
  186SAPI  C31221409   4.961   1.187   8.955  0.5519  0.3914  0.0045
  186SAPI  H12X21410   4.927   1.147   8.858  0.5183  1.8674 -0.6197
  186SAPI  H12Y21411   4.976   1.099   9.021 -2.3949  0.5719  1.0550
  186SAPI  C31321412   5.092   1.254   8.915 -0.8086 -0.1465 -0.3319
  186SAPI  H13X21413   5.145   1.174   8.859  2.5400  0.4407  1.7244
  186SAPI  H13Y21414   5.161   1.271   9.000 -0.9454  0.9847 -0.4365
  186SAPI  C31421415   5.091   1.382   8.827 -0.5059  1.1464 -0.5048
  186SAPI  H14X21416   5.046   1.470   8.877 -0.4640  0.9934 -0.1938
  186SAPI  H14Y21417   5.027   1.357   8.740 -0.9991 -2.7769  0.7662
  186SAPI  C31521418   5.224   1.412   8.756  0.0806  0.3174 -0.5214
  186SAPI  H15X21419   5.207   1.508   8.702 -0.5978  0.4174 -0.1385
  186SAPI  H15Y21420   5.248   1.326   8.690  1.0800  2.1387 -2.6724
  186SAPI  C31621421   5.331   1.434   8.862 -0.0134  0.3568  0.4730
  186SAPI  H16X21422   5.376   1.339   8.898 -0.5602  0.7819  2.3589
  186SAPI  H16Y21423   5.288   1.481   8.953  1.3873  2.1487  0.2756
  186SAPI  C31721424   5.445   1.518   8.818 -0.1015  0.3121  0.1003
  186SAPI  H17X21425   5.415   1.620   8.785  1.1147  0.5135 -0.4467
  186SAPI  H17Y21426   5.492   1.476   8.727  0.2681  1.8626 -0.4719
  186SAPI  C31821427   5.552   1.537   8.922  0.2115  0.1828 -0.1656
  186SAPI  H18X21428   5.604   1.448   8.963 -2.3373 -1.4792 -0.3573
  186SAPI  H18Y21429   5.514   1.585   9.015  0.8851 -0.5847  0.5236
  186SAPI  H18Z21430   5.633   1.600   8.880 -0.7689  0.8082 -1.1756
  187SAPI   C1221431   5.289   2.043   5.895  0.0069 -0.2271 -0.3058
  187SAPI    H221432   5.357   1.961   5.926 -0.4733 -1.1843 -1.6833
  187SAPI    O221433   5.361   2.132   5.816 -0.1068  0.4062  0.0969
  187SAPI   HO221434   5.395   2.196   5.879  0.8768 -0.2663  0.2761
  187SAPI   C1321435   5.172   1.989   5.819  0.3649 -0.3373 -0.4996
  187SAPI    H321436   5.122   1.914   5.885  0.5656 -0.7286 -0.7868
  187SAPI    O321437   5.216   1.907   5.711  0.2632  0.0438  0.3919
  187SAPI   HO321438   5.239   1.968   5.640  0.7724  2.4475  2.4848
  187SAPI   C1421439   5.072   2.099   5.771  0.9457  0.1040  0.4058
  187SAPI    H421440   5.127   2.177   5.715  0.6806 -0.5644 -0.8075
  187SAPI    O421441   4.964   2.044   5.692 -0.3594 -0.1122  0.1297
  187SAPI   HO421442   4.988   2.037   5.600  1.5747 -1.0380  0.6380
  187SAPI   C1521443   5.012   2.167   5.892 -0.4485  0.1619 -0.0000
  187SAPI    H521444   4.943   2.100   5.946 -2.8480  1.6509 -1.0506
  187SAPI    O521445   4.932   2.278   5.859  0.2521  0.2307  0.0866
  187SAPI   HO521446   4.858   2.295   5.916 -0.3223  0.3183 -0.6671
  187SAPI   C1621447   5.124   2.220   5.990 -0.5330  0.7614  0.1014
  187SAPI    H621448   5.186   2.297   5.938 -0.8151 -0.9014 -2.9065
  187SAPI    O621449   5.072   2.271   6.113  0.0908  0.2525  0.5043
  187SAPI   HO621450   5.137   2.244   6.178  0.3962 -2.3213 -0.7362
  187SAPI   C1121451   5.227   2.108   6.023 -0.0679  0.1430 -0.2811
  187SAPI    H121452   5.177   2.024   6.076  2.2488  0.6404  3.0087
  187SAPI     P21453   5.384   2.109   6.239 -0.2835  0.0226 -0.3111
  187SAPI   O1321454   5.488   2.193   6.302  0.2853 -0.3650  0.1408
  187SAPI   O1421455   5.425   1.971   6.213 -0.5347  0.5995 -0.1569
  187SAPI   O1221456   5.336   2.170   6.105 -0.5528  0.3218  1.0017
  187SAPI   O1121457   5.253   2.107   6.325  0.2683  0.2749  0.1519
  187SAPI    C121458   5.223   2.221   6.399 -0.3665 -0.3024  0.0598
  187SAPI    HA21459   5.290   2.308   6.383  0.4992 -0.9535  0.0258
  187SAPI    HB21460   5.122   2.252   6.365 -0.6416  0.5696  1.6301
  187SAPI    C221461   5.213   2.176   6.546  0.1673  0.5489  0.7962
  187SAPI    HS21462   5.126   2.231   6.589 -1.5802 -2.5147  1.5116
  187SAPI   O2121463   5.334   2.205   6.615 -1.5792  0.0838 -0.2681
  187SAPI   C2121464   5.358   2.330   6.652  0.6109 -1.3056  0.3990
  187SAPI   O2221465   5.289   2.425   6.621 -1.0312  0.5165 -0.3138
  187SAPI   C2221466   5.471   2.336   6.759 -0.6948 -0.0604  0.2946
  187SAPI   H2R21467   5.518   2.235   6.768  0.8203  0.5341 -0.5821
  187SAPI   H2S21468   5.556   2.395   6.719  0.7356 -0.0828  3.0568
  187SAPI    C321469   5.169   2.024   6.558  0.2297 -0.0056 -0.4103
  187SAPI    HX21470   5.252   1.962   6.519 -0.9231 -1.2979 -0.9312
  187SAPI    HY21471   5.078   2.007   6.496  0.3853 -1.8264 -0.1896
  187SAPI   O3121472   5.146   2.005   6.703  0.1990 -0.3503 -0.6499
  187SAPI   C3121473   5.070   1.898   6.733 -0.7710 -0.7678  0.5297
  187SAPI   O3221474   5.012   1.834   6.646 -1.0533  0.2708 -0.3449
  187SAPI   C3221475   5.070   1.882   6.884  0.0997 -0.2365 -0.4363
  187SAPI   H2X21476   5.059   1.985   6.924 -0.0745 -1.1775  2.1475
  187SAPI   H2Y21477   5.169   1.847   6.921  0.6314  2.1360  0.5558
  187SAPI   C2321478   5.431   2.391   6.894  0.1981 -0.0637  0.8386
  187SAPI   H3R21479   5.422   2.500   6.872 -1.0642 -0.3266 -0.0977
  187SAPI   H3S21480   5.513   2.387   6.968  1.5932  1.0278 -0.5833
  187SAPI   C2421481   5.306   2.340   6.963 -0.0990  0.8029  0.3636
  187SAPI   H4R21482   5.221   2.364   6.895  0.9352  1.8804 -0.5883
  187SAPI   H4S21483   5.275   2.385   7.060 -1.1719 -0.5509  0.6851
  187SAPI   C2521484   5.313   2.193   6.969  0.1157  0.3212  0.4316
  187SAPI   H5R21485   5.308   2.138   6.874 -0.8389 -0.0066  0.6579
  187SAPI   C2621486   5.320   2.119   7.083 -0.3233 -1.1037 -0.5410
  187SAPI   H6R21487   5.333   2.010   7.075 -1.0889 -1.1008 -2.1984
  187SAPI   C2721488   5.331   2.175   7.222 -0.9733  0.0654 -0.1918
  187SAPI   H7R21489   5.388   2.270   7.234 -0.2983 -0.5480  1.8662
  187SAPI   H7S21490   5.391   2.102   7.281  0.6978  2.3521  1.1204
  187SAPI   C2821491   5.197   2.213   7.277  0.2547 -0.3342 -0.3367
  187SAPI   H8R21492   5.121   2.245   7.203 -1.3351 -1.7289  0.6169
  187SAPI   C2921493   5.183   2.255   7.408  0.5791 -0.4493  0.2187
  187SAPI   H9R21494   5.086   2.296   7.441  0.5635  0.5644 -0.9859
  187SAPI  C21021495   5.292   2.240   7.515 -0.4793  0.0041  0.6760
  187SAPI  H10R21496   5.382   2.305   7.508  0.2325 -0.9163  1.1288
  187SAPI  H10S21497   5.326   2.136   7.499 -2.6271 -0.5474 -0.8298
  187SAPI  C21121498   5.234   2.249   7.649 -0.1660 -0.0859 -0.6561
  187SAPI  H11R21499   5.132   2.211   7.662 -0.2471  0.2688 -0.2384
  187SAPI  C21221500   5.300   2.261   7.763 -0.6609 -0.3685 -0.0276
  187SAPI  H12R21501   5.241   2.264   7.855  0.2871  0.0622  0.5900
  187SAPI  C21321502   5.450   2.281   7.790 -0.4908 -0.1843  0.0373
  187SAPI  H13R21503   5.484   2.376   7.836  3.7063 -1.4745  0.0256
  187SAPI  H13S21504   5.500   2.284   7.690 -2.1462 -1.1070 -0.8640
  187SAPI  C21421505   5.507   2.164   7.876  1.2199 -0.1815  0.1488
  187SAPI  H14R21506   5.509   2.068   7.822 -2.3307 -0.4470  0.2774
  187SAPI  C21521507   5.544   2.176   8.005  0.2598  0.7265 -0.8098
  187SAPI  H15R21508   5.571   2.083   8.057 -2.0039  0.5586  0.1480
  187SAPI  C21621509   5.542   2.294   8.102 -0.3951 -0.1806  0.4494
  187SAPI  H16R21510   5.505   2.383   8.047 -2.4377 -0.5102  1.1958
  187SAPI  H16S21511   5.639   2.310   8.154 -2.1495 -0.9611  4.2975
  187SAPI  C21721512   5.432   2.263   8.210 -0.0330 -0.7067 -0.0523
  187SAPI  H17R21513   5.343   2.215   8.162  0.2828 -0.9008 -0.4523
  187SAPI  H17S21514   5.406   2.358   8.261 -0.6778 -0.8367 -0.1286
  187SAPI  C21821515   5.496   2.169   8.310 -0.0819 -0.2447  0.2358
  187SAPI  H18R21516   5.594   2.211   8.340  1.4186 -2.9315 -0.6393
  187SAPI  H18S21517   5.520   2.069   8.269  0.0037 -0.7025  1.3657
  187SAPI  C21921518   5.399   2.142   8.425  0.0133  0.1180 -0.2067
  187SAPI  H19R21519   5.353   2.239   8.457  0.7004  0.6004 -0.6593
  187SAPI  H19S21520   5.453   2.105   8.515 -0.4381  1.8616  0.8389
  187SAPI  C22021521   5.292   2.041   8.394  0.0812  0.3632 -0.0486
  187SAPI  H20R21522   5.247   2.056   8.294  1.8229 -1.9284 -1.2686
  187SAPI  H20S21523   5.218   2.022   8.475 -2.0882  2.4120 -1.4265
  187SAPI  H20T21524   5.347   1.945   8.385 -1.4526 -0.3712 -2.3344
  187SAPI   C3321525   4.962   1.785   6.934  0.2058  0.0722 -0.0621
  187SAPI   H3X21526   4.993   1.684   6.899  0.5625  0.1623 -0.0142
  187SAPI   H3Y21527   4.858   1.804   6.902 -0.1853 -1.2005  0.3993
  187SAPI   C3421528   4.983   1.761   7.086 -0.0146  0.1336  0.0085
  187SAPI   H4X21529   5.092   1.756   7.109 -0.3403 -1.7438  1.4237
  187SAPI   H4Y21530   4.950   1.655   7.095 -1.4670  0.5448 -0.1767
  187SAPI   C3521531   4.901   1.859   7.172 -0.3216 -0.2730 -0.0791
  187SAPI   H5X21532   4.797   1.845   7.137  0.0826  0.4912 -1.6835
  187SAPI   H5Y21533   4.937   1.963   7.154 -3.3252  1.0052  0.6719
  187SAPI   C3621534   4.900   1.825   7.326 -0.0891 -0.1084 -0.1093
  187SAPI   H6X21535   4.876   1.717   7.333 -0.9009  0.0930  0.3661
  187SAPI   H6Y21536   4.818   1.879   7.378 -2.1681 -0.4119 -2.8055
  187SAPI   C3721537   5.033   1.853   7.391  0.3052 -0.1041 -1.0719
  187SAPI   H7X21538   5.067   1.957   7.371 -0.1376  0.4377  0.7946
  187SAPI   H7Y21539   5.102   1.773   7.356 -1.1565 -1.9800  0.1039
  187SAPI   C3821540   5.019   1.841   7.548  0.0571  0.3116  0.0610
  187SAPI   H8X21541   4.983   1.738   7.568  1.9838  0.2423  4.1457
  187SAPI   H8Y21542   4.945   1.914   7.586  1.4285  1.0624  1.3781
  187SAPI   C3921543   5.153   1.857   7.625 -0.7346  0.1975  1.4105
  187SAPI   H9X21544   5.192   1.961   7.621 -1.3213  0.4165  1.1839
  187SAPI   H9Y21545   5.220   1.789   7.569 -1.3699 -1.9459  3.1289
  187SAPI  C31021546   5.141   1.811   7.774  0.6217 -0.4890 -0.6079
  187SAPI  H10X21547   5.127   1.702   7.785 -1.5406 -0.0288  2.5939
  187SAPI  H10Y21548   5.072   1.868   7.840  2.3021  1.5336 -0.4739
  187SAPI  C31121549   5.276   1.848   7.847  0.2553 -0.0025  0.6401
  187SAPI  H11X21550   5.279   1.958   7.864  1.3096  0.2064 -0.7963
  187SAPI  H11Y21551   5.354   1.825   7.772  0.2115  2.4074 -0.2102
  187SAPI  C31221552   5.301   1.773   7.978 -0.3129  0.6363 -0.5873
  187SAPI  H12X21553   5.314   1.668   7.945 -0.2329 -0.0439  1.4792
  187SAPI  H12Y21554   5.211   1.778   8.043 -0.8235 -0.6082 -1.1766
  187SAPI  C31321555   5.430   1.818   8.056  0.9227 -0.3107  0.2778
  187SAPI  H13X21556   5.408   1.925   8.077  0.3155  0.1998 -2.5761
  187SAPI  H13Y21557   5.507   1.802   7.978 -1.6808 -2.1785 -2.0706
  187SAPI  C31421558   5.454   1.738   8.187 -0.2862 -0.0130  0.4727
  187SAPI  H14X21559   5.417   1.634   8.176  2.1974 -1.0919  1.4944
  187SAPI  H14Y21560   5.396   1.786   8.269  1.9578 -0.6942  2.6290
  187SAPI  C31521561   5.603   1.750   8.242  0.4277  0.1604  0.0385
  187SAPI  H15X21562   5.635   1.855   8.229  0.0041  0.6809  2.7681
  187SAPI  H15Y21563   5.669   1.683   8.182  2.5710  0.0494  2.3910
  187SAPI  C31621564   5.614   1.698   8.384  0.0096  0.3122 -0.4350
  187SAPI  H16X21565   5.579   1.593   8.378  2.7200 -0.5835 -2.3912
  187SAPI  H16Y21566   5.554   1.749   8.463 -1.4569 -3.0954  0.8487
  187SAPI  C31721567   5.760   1.691   8.428  0.1550 -0.3249  0.6273
  187SAPI  H17X21568   5.801   1.794   8.423  1.5047 -0.8967 -1.7111
  187SAPI  H17Y21569   5.805   1.625   8.351 -0.9023  2.1885 -2.3077
  187SAPI  C31821570   5.761   1.630   8.570 -0.3075  0.6136  0.0983
  187SAPI  H18X21571   5.730   1.524   8.579 -3.0839  1.4464  1.3846
  187SAPI  H18Y21572   5.696   1.694   8.633 -0.0136  0.2324  0.7961
  187SAPI  H18Z21573   5.865   1.634   8.610 -0.6271 -1.0468  1.2248
  188SAPI   C1221574   0.363   6.113   6.455  1.1065  0.5341  0.5440
  188SAPI    H221575   0.395   6.053   6.543  0.2008 -1.9576 -0.7319
  188SAPI    O221576   0.255   6.037   6.390  0.2226  0.2032  0.5462
  188SAPI   HO221577   0.289   5.960   6.344  3.2868  1.2137  0.9029
  188SAPI   C1321578   0.321   6.252   6.500  0.1709  0.4987  0.6025
  188SAPI    H321579   0.404   6.296   6.559  1.1321 -0.2296 -0.1674
  188SAPI    O321580   0.208   6.249   6.588  0.0000  0.2076  0.2350
  188SAPI   HO321581   0.136   6.290   6.539  0.2650 -1.8281 -2.0360
  188SAPI   C1421582   0.300   6.347   6.378 -0.4506  0.1703  0.5039
  188SAPI    H421583   0.220   6.311   6.309  0.1199  2.3532 -1.4013
  188SAPI    O421584   0.261   6.478   6.414  0.2294 -0.2673 -0.1349
  188SAPI   HO421585   0.165   6.486   6.406  0.2188  0.5521  0.5816
  188SAPI   C1521586   0.428   6.350   6.286 -0.4465  0.7257  0.4160
  188SAPI    H521587   0.513   6.390   6.346 -0.7946  1.4166  0.4612
  188SAPI    O521588   0.417   6.433   6.172 -0.4498  0.0431 -0.4934
  188SAPI   HO521589   0.475   6.510   6.178 -1.0339  0.5833 -1.4235
  188SAPI   C1621590   0.457   6.201   6.250 -0.3268 -0.2672  0.2703
  188SAPI    H621591   0.385   6.149   6.184  0.4384 -2.3776  1.0077
  188SAPI    O621592   0.580   6.202   6.166  0.8175  0.0198  0.0081
  188SAPI   HO621593   0.651   6.234   6.222  0.8277 -2.3972  1.4981
  188SAPI   C1121594   0.486   6.128   6.371  0.4944  0.2803 -0.5430
  188SAPI    H121595   0.558   6.193   6.424 -0.5939  1.9701 -1.0628
  188SAPI     P21596   0.653   5.942   6.433 -0.1026  0.3445  0.0607
  188SAPI   O1321597   0.733   6.051   6.483 -0.7086 -0.0614 -0.3359
  188SAPI   O1421598   0.723   5.836   6.359 -0.0380  0.6035  0.5876
  188SAPI   O1221599   0.532   5.994   6.336  0.3259 -0.4885  0.2176
  188SAPI   O1121600   0.572   5.876   6.553 -0.5895  0.5427  0.0717
  188SAPI    C121601   0.488   5.764   6.555  0.2172 -0.1312 -0.4070
  188SAPI    HA21602   0.382   5.796   6.544  0.6911  1.6894 -0.1174
  188SAPI    HB21603   0.505   5.702   6.465 -0.4646 -0.9200 -0.0061
  188SAPI    C221604   0.506   5.688   6.687 -0.8584  0.6415 -0.2697
  188SAPI    HS21605   0.414   5.627   6.705  0.5139 -1.2924  0.4964
  188SAPI   O2121606   0.537   5.776   6.801  0.0643 -0.0657  0.6183
  188SAPI   C2121607   0.437   5.845   6.835 -0.1522  0.2072 -0.4516
  188SAPI   O2221608   0.324   5.847   6.795 -0.4736  0.2705 -0.3448
  188SAPI   C2221609   0.491   5.931   6.947  0.4670 -0.7810 -0.0243
  188SAPI   H2R21610   0.571   5.990   6.897  0.6894 -1.7227 -0.8042
  188SAPI   H2S21611   0.410   6.001   6.977  1.5858 -0.2773  2.0186
  188SAPI    C321612   0.622   5.591   6.660 -0.4755  0.1348 -0.0274
  188SAPI    HX21613   0.711   5.656   6.673 -0.1424 -0.8800  3.7094
  188SAPI    HY21614   0.626   5.544   6.559  0.9457  0.2281 -0.0376
  188SAPI   O3121615   0.628   5.482   6.754 -0.0113 -0.2255 -0.1546
  188SAPI   C3121616   0.539   5.382   6.743  0.6047 -0.0884  0.8232
  188SAPI   O3221617   0.445   5.377   6.665  0.0131 -0.2191 -0.4286
  188SAPI   C3221618   0.572   5.268   6.844  0.3105 -0.3605  0.2196
  188SAPI   H2X21619   0.631   5.323   6.920 -0.2126 -0.3794  0.6478
  188SAPI   H2Y21620   0.640   5.202   6.786  0.4069  0.6035 -0.8098
  188SAPI   C2321621   0.544   5.862   7.076  0.5343 -0.5821  0.1122
  188SAPI   H3R21622   0.591   5.948   7.128 -1.3150 -1.2988  3.2339
  188SAPI   H3S21623   0.617   5.783   7.050  0.6468  0.0075 -1.5046
  188SAPI   C2421624   0.423   5.811   7.160 -0.0169 -0.5670 -0.4125
  188SAPI   H4R21625   0.360   5.749   7.094 -0.1294  0.5117 -1.3480
  188SAPI   H4S21626   0.367   5.904   7.185  3.1128  1.5299 -0.5412
  188SAPI   C2521627   0.471   5.748   7.287 -0.2389  0.7040 -0.1587
  188SAPI   H5R21628   0.517   5.648   7.280  1.2459  1.3287  0.3249
  188SAPI   C2621629   0.445   5.791   7.411 -0.3690 -0.4980 -0.4227
  188SAPI   H6R21630   0.490   5.737   7.496  1.9275  1.1363 -0.4864
  188SAPI   C2721631   0.378   5.923   7.453 -0.0898  0.6911  0.0315
  188SAPI   H7R21632   0.317   5.964   7.369  0.5063 -1.1325 -1.3619
  188SAPI   H7S21633   0.464   5.987   7.483  0.0654  0.2345  0.5677
  188SAPI   C2821634   0.304   5.887   7.576  0.4405  0.6621  0.0291
  188SAPI   H8R21635   0.201   5.849   7.568  1.7689 -3.5760  0.2825
  188SAPI   C2921636   0.341   5.899   7.703  0.1724 -0.6621 -1.3524
  188SAPI   H9R21637   0.277   5.874   7.789  0.9307 -2.9889 -1.3995
  188SAPI  C21021638   0.474   5.951   7.757 -0.0745  0.4201  0.9517
  188SAPI  H10R21639   0.554   5.903   7.696 -0.6778  2.0704 -1.2595
  188SAPI  H10S21640   0.497   5.912   7.859  0.4428 -1.0940  0.2931
  188SAPI  C21121641   0.476   6.096   7.754 -0.1157  0.5655  0.0530
  188SAPI  H11R21642   0.449   6.136   7.655  1.5735  0.1298 -0.6108
  188SAPI  C21221643   0.535   6.181   7.841  0.1571 -0.2033 -0.1317
  188SAPI  H12R21644   0.525   6.290   7.824 -0.8597 -0.0964  1.0049
  188SAPI  C21321645   0.607   6.149   7.974  0.4863  0.8899 -0.0530
  188SAPI  H13R21646   0.677   6.232   7.997  0.5058  0.6068  0.9340
  188SAPI  H13S21647   0.659   6.054   7.948 -1.0162  0.3138 -1.1467
  188SAPI  C21421648   0.510   6.119   8.093  0.1723  0.6285  0.2286
  188SAPI  H14R21649   0.403   6.116   8.068  0.0979 -3.6070  0.3616
  188SAPI  C21521650   0.557   6.074   8.212  0.3227  0.1495 -0.2888
  188SAPI  H15R21651   0.488   6.050   8.294  0.9954  0.5501  0.4116
  188SAPI  C21621652   0.703   6.045   8.244  1.0758 -0.0555  0.1665
  188SAPI  H16R21653   0.739   6.134   8.301 -0.8219  1.0977 -0.3382
  188SAPI  H16S21654   0.762   6.032   8.150 -0.5979 -0.7000 -0.8380
  188SAPI  C21721655   0.725   5.918   8.328  0.1514  1.0317  0.3466
  188SAPI  H17R21656   0.834   5.900   8.322 -0.2554 -1.3528 -1.0741
  188SAPI  H17S21657   0.676   5.834   8.274 -0.7427  1.2633  0.7674
  188SAPI  C21821658   0.675   5.911   8.470 -0.0727 -0.1459 -0.5741
  188SAPI  H18R21659   0.564   5.913   8.475 -0.1847 -1.6728 -1.8204
  188SAPI  H18S21660   0.713   6.001   8.523  1.0486 -3.4400  5.1191
  188SAPI  C21921661   0.725   5.782   8.545 -0.1019  0.0732 -0.0214
  188SAPI  H19R21662   0.833   5.803   8.559 -0.1187  0.6488 -0.7532
  188SAPI  H19S21663   0.719   5.693   8.478 -0.4468 -0.6605  0.9536
  188SAPI  C22021664   0.672   5.748   8.685 -0.5800 -0.5812 -0.2443
  188SAPI  H20R21665   0.562   5.746   8.673 -0.9731  0.9530  2.4229
  188SAPI  H20S21666   0.682   5.826   8.763 -2.9850 -0.8057  0.3588
  188SAPI  H20T21667   0.699   5.647   8.724 -0.5586  0.1291  1.6456
  188SAPI   C3321668   0.444   5.209   6.906  0.5875  0.1224 -0.0416
  188SAPI   H3X21669   0.465   5.122   6.971  1.8140  0.5928  0.2155
  188SAPI   H3Y21670   0.377   5.166   6.828  0.3686 -0.8936  0.6886
  188SAPI   C3421671   0.366   5.319   6.990  1.1309  0.4724 -0.2613
  188SAPI   H4X21672   0.280   5.265   7.033 -0.7333  1.3865 -2.6310
  188SAPI   H4Y21673   0.320   5.398   6.926 -0.5584 -0.2864 -0.0176
  188SAPI   C3521674   0.451   5.389   7.101 -0.1276 -0.2855  0.2961
  188SAPI   H5X21675   0.372   5.439   7.161 -1.6539 -0.9427 -1.0856
  188SAPI   H5Y21676   0.513   5.468   7.053 -1.6196  1.4294  1.0692
  188SAPI   C3621677   0.537   5.297   7.193  0.1861  0.3567  0.5309
  188SAPI   H6X21678   0.612   5.250   7.126  1.0625  2.3731  0.0276
  188SAPI   H6Y21679   0.470   5.215   7.226  0.2005 -1.1643 -2.8443
  188SAPI   C3721680   0.602   5.371   7.309  0.0386 -0.0752 -0.6860
  188SAPI   H7X21681   0.660   5.463   7.287 -1.4846  0.8861 -0.8367
  188SAPI   H7Y21682   0.673   5.296   7.349  2.6408  0.8245 -3.2494
  188SAPI   C3821683   0.504   5.399   7.414  0.1214  0.6664 -0.2576
  188SAPI   H8X21684   0.446   5.311   7.449 -1.2969  1.8543  0.4714
  188SAPI   H8Y21685   0.424   5.467   7.380 -0.6923 -0.1147  0.0675
  188SAPI   C3921686   0.571   5.469   7.535  0.6794 -0.1033 -0.2302
  188SAPI   H9X21687   0.611   5.567   7.503  0.8165 -0.0357  0.1357
  188SAPI   H9Y21688   0.661   5.411   7.565 -0.1168 -0.1332  2.4192
  188SAPI  C31021689   0.470   5.499   7.649  0.0052  0.1091 -0.5424
  188SAPI  H10X21690   0.452   5.396   7.687 -0.1615 -0.3023 -1.6998
  188SAPI  H10Y21691   0.383   5.555   7.610  0.2546  2.4844  1.9447
  188SAPI  C31121692   0.525   5.567   7.776 -0.5792  0.5380 -0.0842
  188SAPI  H11X21693   0.550   5.674   7.763  2.3935 -0.1730 -1.1350
  188SAPI  H11Y21694   0.618   5.508   7.793  1.3232  3.9347  2.4306
  188SAPI  C31221695   0.443   5.527   7.903 -0.3897 -0.2532 -0.6316
  188SAPI  H12X21696   0.428   5.417   7.910  0.0528 -0.2226  1.4946
  188SAPI  H12Y21697   0.343   5.570   7.881 -0.2397 -0.1454 -1.1115
  188SAPI  C31321698   0.491   5.599   8.030  0.4563  0.1305 -0.5986
  188SAPI  H13X21699   0.506   5.704   7.999 -3.0110  0.5867 -1.1221
  188SAPI  H13Y21700   0.588   5.553   8.059  1.7449  1.5153 -2.5222
  188SAPI  C31421701   0.384   5.586   8.146 -0.2853  0.0567  0.5269
  188SAPI  H14X21702   0.378   5.485   8.192 -1.0665 -0.2003 -0.1163
  188SAPI  H14Y21703   0.285   5.593   8.097 -0.2092 -0.5583  0.2714
  188SAPI  C31521704   0.404   5.687   8.268  0.5836  0.2847 -0.1019
  188SAPI  H15X21705   0.427   5.788   8.226 -0.0987  0.1231 -0.8872
  188SAPI  H15Y21706   0.482   5.650   8.338  1.0669  0.4420 -0.5431
  188SAPI  C31621707   0.266   5.706   8.339 -0.6350  0.3012 -0.3602
  188SAPI  H16X21708   0.245   5.603   8.376 -0.2532 -0.0884 -1.1870
  188SAPI  H16Y21709   0.185   5.735   8.269 -2.1612 -0.8432  0.8540
  188SAPI  C31721710   0.276   5.818   8.448 -0.0782  0.4410 -0.4009
  188SAPI  H17X21711   0.282   5.918   8.399  1.0688 -0.5250 -2.3603
  188SAPI  H17Y21712   0.370   5.801   8.504  0.9561  2.5711 -1.3713
  188SAPI  C31821713   0.163   5.839   8.547 -0.4485 -0.1728 -0.6619
  188SAPI  H18X21714   0.138   5.758   8.618  0.0791 -0.2915 -0.6043
  188SAPI  H18Y21715   0.070   5.850   8.487 -0.8554 -0.6455 -0.1230
  188SAPI  H18Z21716   0.184   5.935   8.600 -0.4511 -0.8685  0.6363
  189POPC     N21717   2.675   6.440  10.951  0.2524  0.1420  0.5221
  189POPC   C1221718   2.650   6.590  10.918  0.0252  0.5166 -0.4674
  189POPC  H12A21719   2.747   6.630  10.893  0.3547  1.6725  2.2826
  189POPC  H12B21720   2.627   6.646  11.007  0.6645 -0.2612  0.2014
  189POPC   C1321721   2.799   6.437  11.035 -0.7949  0.3294 -0.5098
  189POPC  H13A21722   2.826   6.337  11.064  0.9636  0.6252 -1.0385
  189POPC  H13B21723   2.886   6.471  10.981 -0.1899  0.2211  0.3686
  189POPC  H13C21724   2.790   6.491  11.128  0.5532 -1.1773  0.5423
  189POPC   C1421725   2.565   6.376  11.020 -0.3865 -0.4663 -0.4940
  189POPC  H14A21726   2.554   6.427  11.114  1.9909  1.0361 -0.9538
  189POPC  H14B21727   2.475   6.398  10.964  0.4180  1.7301 -1.0453
  189POPC  H14C21728   2.577   6.272  11.043 -0.5283 -0.3719  0.0151
  189POPC   C1521729   2.708   6.354  10.829  0.8300  0.2992  0.2144
  189POPC  H15A21730   2.712   6.251  10.862  0.8620  0.5315  0.9364
  189POPC  H15B21731   2.801   6.376  10.779  1.3555 -1.6777  0.2487
  189POPC  H15C21732   2.629   6.342  10.756  2.3804  0.4845 -1.5718
  189POPC   C1121733   2.539   6.608  10.813  0.7340 -0.2353 -0.8958
  189POPC  H11A21734   2.559   6.552  10.719 -0.6009  0.9323 -1.9296
  189POPC  H11B21735   2.537   6.713  10.775 -1.8796 -0.1357 -0.6475
  189POPC     P21736   2.297   6.684  10.888 -0.4384  0.0132 -0.5564
  189POPC   O1321737   2.357   6.817  10.906  0.8060  0.2168 -0.1608
  189POPC   O1421738   2.207   6.628  10.995 -0.2230 -0.2120  0.0148
  189POPC   O1221739   2.409   6.574  10.860  0.5105  0.6838 -0.0604
  189POPC   O1121740   2.215   6.698  10.761 -0.5812  0.1827  0.0807
  189POPC    C121741   2.276   6.683  10.633  0.2569 -0.3320  0.0955
  189POPC    HA21742   2.262   6.577  10.603  0.8092 -0.5577  0.6116
  189POPC    HB21743   2.386   6.699  10.626  0.0777  0.2771 -2.1216
  189POPC    C221744   2.226   6.786  10.531  0.0295 -0.2494 -0.2974
  189POPC    HS21745   2.236   6.884  10.582 -0.5272  0.2569 -1.1405
  189POPC   O2121746   2.089   6.763  10.491  0.2158 -0.1134  0.0442
  189POPC   C2121747   2.028   6.860  10.415 -0.0248  0.4977  0.0718
  189POPC   O2221748   2.081   6.967  10.390  0.2308  0.0562  0.2570
  189POPC   C2221749   1.890   6.812  10.401  0.7788 -0.1345  0.1489
  189POPC   H2R21750   1.838   6.848  10.492  1.1685  1.0560 -0.0820
  189POPC   H2S21751   1.877   6.702  10.392  0.5014 -0.0656 -0.3167
  189POPC    C321752   2.323   6.787  10.405  0.2750  0.3790 -0.9059
  189POPC    HX21753   2.419   6.829  10.442 -0.2588  1.0937 -0.2913
  189POPC    HY21754   2.293   6.864  10.330  0.1741  0.1337 -1.1199
  189POPC   O3121755   2.354   6.661  10.346  0.2541  0.4767 -0.0537
  189POPC   C3121756   2.256   6.608  10.266 -0.5784  0.6050 -0.6825
  189POPC   O3221757   2.168   6.667  10.215 -0.2760 -0.4761  0.0471
  189POPC   C3221758   2.294   6.466  10.241  1.1041  0.3491 -0.2742
  189POPC   H2X21759   2.207   6.400  10.227 -0.4127  1.7164  2.0762
  189POPC   H2Y21760   2.337   6.433  10.338 -1.8733  1.2105  1.4716
  189POPC   C2321761   1.818   6.882  10.283 -0.6406  0.0473 -1.0038
  189POPC   H3R21762   1.847   6.987  10.302  0.4726  0.1706 -3.0635
  189POPC   H3S21763   1.712   6.856  10.306 -0.8024  1.7867  0.4054
  189POPC   C2421764   1.874   6.841  10.141 -0.4733 -0.8497 -0.1479
  189POPC   H4R21765   1.863   6.731  10.133 -0.4652 -0.9790  1.3736
  189POPC   H4S21766   1.984   6.855  10.150 -0.2706 -2.9605  1.3745
  189POPC   C2521767   1.806   6.909  10.022 -0.0409 -0.4915 -0.7354
  189POPC   H5R21768   1.814   7.018  10.039 -1.1927 -0.3680 -0.9386
  189POPC   H5S21769   1.700   6.877  10.021 -0.1414 -0.1561 -0.8009
  189POPC   C2621770   1.871   6.868   9.892  0.2195 -0.5664 -0.3720
  189POPC   H6R21771   1.870   6.758   9.883  1.9215 -0.4485 -3.6684
  189POPC   H6S21772   1.978   6.898   9.888  0.0059  0.1063 -2.8267
  189POPC   C2721773   1.793   6.926   9.775 -0.1093  0.4021 -0.6206
  189POPC   H7R21774   1.796   7.034   9.801  1.2501  0.2316  0.0400
  189POPC   H7S21775   1.687   6.893   9.776  0.2784 -0.9173  0.4799
  189POPC   C2821776   1.864   6.904   9.634  0.1308 -0.4225 -0.4993
  189POPC   H8R21777   1.830   6.803   9.603  0.4911 -0.5117 -0.6090
  189POPC   H8S21778   1.974   6.908   9.643  0.1214 -1.1235 -0.0033
  189POPC   C2921779   1.816   7.004   9.534  0.2726  0.4530  0.7975
  189POPC   H9121780   1.803   7.109   9.563  3.8532  1.0739  0.5339
  189POPC  C21021781   1.768   6.964   9.412  0.2132  0.5024  0.4231
  189POPC  H10121782   1.737   7.043   9.343  0.5350 -0.7891 -1.2789
  189POPC  C21121783   1.760   6.829   9.341 -0.1639  0.0984  0.4499
  189POPC  H11R21784   1.657   6.794   9.317 -0.5366 -1.3902  3.6677
  189POPC  H11S21785   1.792   6.748   9.411  0.8492  0.2771  0.2067
  189POPC  C21221786   1.852   6.815   9.216  0.3253 -0.8791 -0.1049
  189POPC  H12R21787   1.853   6.708   9.187 -1.2190 -1.0375  0.3049
  189POPC  H12S21788   1.959   6.834   9.235  0.4919  1.0286 -2.4919
  189POPC  C21321789   1.810   6.909   9.101 -0.4294  0.0468  0.3979
  189POPC  H13R21790   1.825   7.016   9.129  1.9756 -0.0054 -0.4492
  189POPC  H13S21791   1.703   6.882   9.089 -0.1075 -0.8828 -0.4017
  189POPC  C21421792   1.886   6.880   8.971  0.6617 -1.0235 -0.2118
  189POPC  H14R21793   1.872   6.772   8.953 -2.0334 -0.5386 -1.6331
  189POPC  H14S21794   1.992   6.906   8.993  0.9078  0.4209 -2.7779
  189POPC  C21521795   1.825   6.957   8.851 -0.3411  0.2040 -0.0920
  189POPC  H15R21796   1.838   7.064   8.877  0.1310  0.1587 -0.1328
  189POPC  H15S21797   1.716   6.938   8.860 -0.2759 -2.0540 -2.9907
  189POPC  C21621798   1.877   6.926   8.712  0.1136  0.8366 -0.1428
  189POPC  H16R21799   1.987   6.941   8.712  0.2997 -0.4649  0.1040
  189POPC  H16S21800   1.831   6.994   8.637  0.4327  2.2986  0.9555
  189POPC  C21721801   1.861   6.780   8.674  0.1423  0.8533  0.0283
  189POPC  H17R21802   1.756   6.746   8.677  0.0565  1.0869 -0.3423
  189POPC  H17S21803   1.925   6.714   8.738  0.2858 -0.3687 -1.3287
  189POPC  C21821804   1.901   6.769   8.529  0.2262  0.2765 -0.2354
  189POPC  H18R21805   1.839   6.826   8.456  0.3115  2.1824  1.1104
  189POPC  H18S21806   1.896   6.664   8.492 -3.2344  0.3037 -0.1407
  189POPC  H18T21807   2.005   6.806   8.519  0.8943 -1.3864  0.1237
  189POPC   C3321808   2.393   6.446  10.127  0.0451  0.1157 -0.1230
  189POPC   H3X21809   2.457   6.367  10.172 -2.1703 -0.4855  2.1874
  189POPC   H3Y21810   2.465   6.530  10.114  1.2267 -0.9061 -0.4969
  189POPC   C3421811   2.339   6.396   9.992  0.4467 -0.2395 -1.0730
  189POPC   H4X21812   2.287   6.298  10.002  0.1864  0.0656  1.0416
  189POPC   H4Y21813   2.417   6.380   9.914 -0.6188 -0.1636 -2.1847
  189POPC   C3521814   2.225   6.482   9.948 -0.2865 -0.4245 -0.1159
  189POPC   H5X21815   2.263   6.586   9.955  1.4318 -1.0500  0.3892
  189POPC   H5Y21816   2.141   6.477  10.020 -0.9235 -0.5525 -0.8538
  189POPC   C3621817   2.192   6.456   9.799  0.4853  0.8800 -0.0187
  189POPC   H6X21818   2.173   6.347   9.789  2.3676  0.6191 -1.2546
  189POPC   H6Y21819   2.273   6.495   9.734  0.6078  0.6041 -0.0335
  189POPC   C3721820   2.071   6.542   9.761 -0.0243  0.0450  0.0969
  189POPC   H7X21821   2.089   6.651   9.751  1.9064 -0.2045  0.5902
  189POPC   H7Y21822   1.995   6.526   9.840 -1.8313  1.3247 -1.2866
  189POPC   C3821823   2.014   6.483   9.637  1.0428  0.7461 -0.6839
  189POPC   H8X21824   1.916   6.535   9.627  0.8106 -0.0271 -3.0632
  189POPC   H8Y21825   2.005   6.373   9.648  3.1093  0.7055  1.4254
  189POPC   C3921826   2.100   6.516   9.510  0.0128  0.3878 -0.2918
  189POPC   H9X21827   2.198   6.476   9.544 -0.3578  1.5147  2.2866
  189POPC   H9Y21828   2.105   6.623   9.480  2.4094  0.1429 -0.9946
  189POPC  C31021829   2.048   6.427   9.394 -0.2371 -0.0317 -0.0728
  189POPC  H10X21830   1.948   6.462   9.362 -0.0131  3.0066  2.1228
  189POPC  H10Y21831   2.038   6.321   9.426  0.1789  0.2997  1.2107
  189POPC  C31121832   2.140   6.443   9.274  0.0701  0.1815 -0.7187
  189POPC  H11X21833   2.228   6.376   9.282 -1.1373 -1.4600 -0.8531
  189POPC  H11Y21834   2.183   6.546   9.280 -0.9820  0.7560 -2.5217
  189POPC  C31221835   2.069   6.426   9.136  0.0132 -0.3887 -0.4214
  189POPC  H12X21836   1.980   6.493   9.137  0.3403  0.0936 -1.9473
  189POPC  H12Y21837   2.031   6.322   9.143  0.1082 -0.3700  0.6925
  189POPC  C31321838   2.165   6.424   9.010 -0.2288  0.0431  0.0881
  189POPC  H13X21839   2.250   6.353   9.018 -1.1036 -1.6244 -3.4729
  189POPC  H13Y21840   2.205   6.527   9.000 -1.2623  0.6151  1.5124
  189POPC  C31421841   2.087   6.378   8.882 -0.2501 -0.4042 -0.5735
  189POPC  H14X21842   1.992   6.436   8.880 -0.6943 -0.9397  1.7591
  189POPC  H14Y21843   2.072   6.269   8.895  4.9421 -1.1979  1.0427
  189POPC  C31521844   2.163   6.400   8.749 -0.2100 -0.1090 -0.6512
  189POPC  H15X21845   2.250   6.331   8.750 -0.5862 -0.5930 -0.5949
  189POPC  H15Y21846   2.177   6.510   8.744  0.4566 -0.2355 -1.7696
  189POPC  C31621847   2.088   6.363   8.620  0.3556  0.1966 -0.0308
  189POPC  H16X21848   1.998   6.426   8.604  0.3711  1.2352  3.2799
  189POPC  H16Y21849   2.055   6.259   8.636  1.6464  0.0423  1.9774
  189POPC  H16Z21850   2.164   6.368   8.538  0.3023 -1.1098 -0.1708
  190POPC     N21851   5.224   3.949  11.187 -0.5452  0.0455 -0.6756
  190POPC   C1221852   5.272   3.806  11.164  0.0895 -0.2347 -0.8162
  190POPC  H12A21853   5.343   3.788  11.243  0.7007  1.7254 -0.8430
  190POPC  H12B21854   5.332   3.804  11.075  0.2044  2.0731 -0.8523
  190POPC   C1321855   5.106   3.974  11.096 -0.2951 -0.6271 -0.0359
  190POPC  H13A21856   5.029   3.899  11.111 -1.0687  0.3609  1.0209
  190POPC  H13B21857   5.074   4.074  11.119 -0.2409 -0.5262 -0.4042
  190POPC  H13C21858   5.137   3.981  10.993  1.1890  1.4099  0.4912
  190POPC   C1421859   5.180   3.954  11.330 -0.4506  0.5811  0.6179
  190POPC  H14A21860   5.123   3.864  11.344 -0.0993  0.3471  0.5757
  190POPC  H14B21861   5.260   3.960  11.403 -0.8294 -1.9431  1.3387
  190POPC  H14C21862   5.123   4.039  11.362  0.9737  1.2896  1.3728
  190POPC   C1521863   5.330   4.049  11.165 -0.1258 -0.6943  0.1270
  190POPC  H15A21864   5.282   4.145  11.179  0.5257 -0.4759  0.9616
  190POPC  H15B21865   5.368   4.047  11.064  1.8699 -1.8287  0.8343
  190POPC  H15C21866   5.406   4.055  11.242 -1.3111  2.6355  1.2569
  190POPC   C1121867   5.174   3.690  11.161 -0.3098 -0.1734  0.4506
  190POPC  H11A21868   5.097   3.709  11.238 -1.4627  0.9948 -0.9224
  190POPC  H11B21869   5.220   3.593  11.191 -2.9477 -1.2748  1.1900
  190POPC     P21870   4.978   3.599  10.998 -0.0541  0.0918 -0.0024
  190POPC   O1321871   4.854   3.677  10.981 -0.3739  0.5928 -0.5458
  190POPC   O1421872   4.973   3.501  11.109 -0.4016  0.1761 -0.4833
  190POPC   O1221873   5.104   3.688  11.032 -0.6096  0.0381  0.5586
  190POPC   O1121874   5.005   3.524  10.867  0.1157 -1.1244 -0.0054
  190POPC    C121875   5.133   3.469  10.834 -0.3033 -0.3947 -0.2627
  190POPC    HA21876   5.206   3.475  10.917  1.9279  2.2253 -2.1997
  190POPC    HB21877   5.198   3.529  10.767  1.0157 -0.8042  0.6091
  190POPC    C221878   5.119   3.324  10.798 -0.4134  0.1350 -0.2151
  190POPC    HS21879   5.218   3.294  10.755 -0.3186  0.2666 -0.0885
  190POPC   O2121880   5.010   3.298  10.707  0.2863  0.1402 -0.3385
  190POPC   C2121881   5.045   3.202  10.616  0.0875 -0.6394  0.1534
  190POPC   O2221882   5.150   3.138  10.620 -0.6414 -0.1914 -0.3825
  190POPC   C2221883   4.935   3.175  10.521 -0.6397 -0.3597 -0.9033
  190POPC   H2R21884   4.872   3.267  10.521 -0.6988 -0.3965 -0.3221
  190POPC   H2S21885   4.873   3.092  10.561 -0.7487 -0.3775 -1.1090
  190POPC    C321886   5.096   3.249  10.930 -0.6897  0.2129 -0.0341
  190POPC    HX21887   4.992   3.274  10.960 -0.9997 -0.2076 -0.7153
  190POPC    HY21888   5.154   3.295  11.012 -0.0713 -0.9452  0.1968
  190POPC   O3121889   5.132   3.108  10.916  0.1327 -0.3159 -0.1154
  190POPC   C3121890   5.032   3.032  10.869  0.1557  0.1322 -0.6114
  190POPC   O3221891   4.919   3.076  10.845 -0.0275 -0.7160  0.3618
  190POPC   C3221892   5.084   2.888  10.859 -0.2874 -0.3939  0.4632
  190POPC   H2X21893   5.118   2.857  10.960  0.4406  0.2383  0.4147
  190POPC   H2Y21894   5.171   2.885  10.789 -1.4318 -1.6761 -1.0147
  190POPC   C2321895   4.989   3.153  10.380  0.2279 -0.3197  0.1357
  190POPC   H3R21896   5.046   3.057  10.379  0.4227 -0.2023 -0.0126
  190POPC   H3S21897   5.065   3.229  10.354  1.2198 -1.1383  0.5682
  190POPC   C2421898   4.873   3.142  10.277 -0.0837 -0.5605 -0.5011
  190POPC   H4R21899   4.811   3.233  10.293  0.2487 -0.2396 -0.9758
  190POPC   H4S21900   4.808   3.057  10.304  0.2039 -0.8515 -0.7198
  190POPC   C2521901   4.918   3.129  10.129  0.0685  0.5265  0.4435
  190POPC   H5R21902   4.984   3.039  10.133 -2.5133 -1.4279  2.5632
  190POPC   H5S21903   4.979   3.220  10.108 -0.2748  0.6426 -0.0569
  190POPC   C2621904   4.803   3.094  10.042  0.8624 -0.1298  0.2835
  190POPC   H6R21905   4.740   3.184  10.030  1.7234  0.3643 -0.7509
  190POPC   H6S21906   4.740   3.015  10.088  1.9369 -0.2417  1.6326
  190POPC   C2721907   4.831   3.056   9.897 -0.4070  0.0116  0.4299
  190POPC   H7R21908   4.905   2.974   9.896 -2.1370 -1.6307 -1.4010
  190POPC   H7S21909   4.881   3.147   9.855  0.3966 -0.6289 -0.0375
  190POPC   C2821910   4.702   3.025   9.824  0.4548 -0.7118 -0.5151
  190POPC   H8R21911   4.636   3.113   9.812  1.5537  0.8287  3.2983
  190POPC   H8S21912   4.630   2.955   9.872 -2.9248  0.4360 -3.4940
  190POPC   C2921913   4.741   2.967   9.695 -0.9392 -0.1000 -0.2253
  190POPC   H9121914   4.775   2.863   9.702 -0.4834  0.1311  1.3507
  190POPC  C21021915   4.734   3.021   9.572  0.1073 -0.2744  0.5004
  190POPC  H10121916   4.752   2.945   9.494  1.0284  0.6816 -0.2347
  190POPC  C21121917   4.697   3.157   9.530 -0.0201 -0.3699  0.2183
  190POPC  H11R21918   4.771   3.213   9.469 -0.6902  0.0891 -0.1912
  190POPC  H11S21919   4.674   3.217   9.620 -1.4978 -0.2899 -0.1755
  190POPC  C21221920   4.574   3.150   9.449  0.2217  0.5440  0.6789
  190POPC  H12R21921   4.527   3.251   9.451  0.4826  0.6922 -0.2804
  190POPC  H12S21922   4.495   3.091   9.499 -1.7457  0.6199 -2.1283
  190POPC  C21321923   4.597   3.099   9.305 -0.1888  0.1965 -0.2732
  190POPC  H13R21924   4.503   3.099   9.246  0.2739 -0.5705 -1.0328
  190POPC  H13S21925   4.626   2.992   9.313  0.3069  0.4553  2.9052
  190POPC  C21421926   4.698   3.182   9.223  0.2546 -0.0917  0.3657
  190POPC  H14R21927   4.800   3.184   9.268  0.5273  0.9590 -0.2670
  190POPC  H14S21928   4.654   3.284   9.230 -1.2069 -0.5451 -1.4660
  190POPC  C21521929   4.707   3.132   9.084  0.6094  0.0845  0.1081
  190POPC  H15R21930   4.612   3.116   9.029  1.4240 -2.6401 -0.6562
  190POPC  H15S21931   4.759   3.034   9.085  0.6751  0.1174  0.9127
  190POPC  C21621932   4.797   3.229   9.002 -0.0179  0.6428  0.1835
  190POPC  H16R21933   4.895   3.242   9.052  1.1284  0.8567 -2.0106
  190POPC  H16S21934   4.746   3.326   8.984  1.0655  0.9815 -1.2802
  190POPC  C21721935   4.828   3.166   8.854  0.1908 -0.6435  0.1762
  190POPC  H17R21936   4.729   3.157   8.803 -0.4103  1.2075  0.9269
  190POPC  H17S21937   4.867   3.065   8.880  1.4230 -0.1563  0.2530
  190POPC  C21821938   4.926   3.252   8.774 -0.0125  0.5215 -0.5492
  190POPC  H18R21939   4.889   3.356   8.781  1.3591  1.0521 -0.9248
  190POPC  H18S21940   4.920   3.232   8.665  0.0124 -2.6707 -0.0557
  190POPC  H18T21941   5.034   3.240   8.793  0.0955  0.9473 -0.8843
  190POPC   C3321942   4.977   2.793  10.799  0.7271  0.0924  0.5316
  190POPC   H3X21943   4.879   2.795  10.852 -0.7321  1.7152 -2.0403
  190POPC   H3Y21944   5.012   2.691  10.826 -0.4851  0.2557  3.0370
  190POPC   C3421945   4.955   2.811  10.653 -0.6011  0.5370  0.1728
  190POPC   H4X21946   5.053   2.797  10.603 -0.0411 -2.9519  1.9263
  190POPC   H4Y21947   4.923   2.916  10.632  2.8210  1.9189  1.2593
  190POPC   C3521948   4.859   2.702  10.599 -0.1816 -0.3821  0.4448
  190POPC   H5X21949   4.753   2.719  10.630 -0.9343  0.2859 -2.2353
  190POPC   H5Y21950   4.893   2.601  10.628 -2.4958 -1.2945  0.2071
  190POPC   C3621951   4.852   2.690  10.440  0.1466 -0.3262 -0.5930
  190POPC   H6X21952   4.957   2.662  10.419  0.1215 -0.4227 -0.5919
  190POPC   H6Y21953   4.830   2.791  10.399 -0.6021 -1.1100 -2.2159
  190POPC   C3721954   4.759   2.579  10.379  0.5457 -0.5854 -0.0853
  190POPC   H7X21955   4.654   2.616  10.377  1.4231  2.0975 -0.0741
  190POPC   H7Y21956   4.762   2.482  10.433  1.7426 -0.8330 -0.5654
  190POPC   C3821957   4.776   2.558  10.228 -0.6725  0.4443  0.7492
  190POPC   H8X21958   4.709   2.473  10.202 -0.8289  0.3524  1.4329
  190POPC   H8Y21959   4.885   2.535  10.223 -0.1699  1.9641  3.1393
  190POPC   C3921960   4.745   2.674  10.126  0.2525 -0.1213 -0.1860
  190POPC   H9X21961   4.837   2.735  10.114  1.7100 -2.0992  0.4500
  190POPC   H9Y21962   4.646   2.722  10.144 -0.2245 -0.0886 -2.6262
  190POPC  C31021963   4.726   2.601   9.989 -0.3241  0.0377 -0.0089
  190POPC  H10X21964   4.682   2.668   9.912  1.1749  2.7073  1.3066
  190POPC  H10Y21965   4.646   2.524   9.994 -1.0400  0.5746 -2.0304
  190POPC  C31121966   4.859   2.545   9.933  0.9966  0.2662  0.0908
  190POPC  H11X21967   4.935   2.533  10.013 -0.5908  0.4308  1.7081
  190POPC  H11Y21968   4.907   2.619   9.866  0.1024 -0.7427 -1.7510
  190POPC  C31221969   4.838   2.417   9.851 -0.0906 -0.3992  0.0205
  190POPC  H12X21970   4.802   2.341   9.923  3.4196  0.1236  2.5717
  190POPC  H12Y21971   4.938   2.386   9.815 -0.4391 -0.1437 -1.2289
  190POPC  C31321972   4.753   2.431   9.726 -0.0959  0.6974  0.1027
  190POPC  H13X21973   4.664   2.497   9.737  1.1035  2.2021  1.3063
  190POPC  H13Y21974   4.721   2.329   9.695  1.7928  0.6114 -1.7941
  190POPC  C31421975   4.845   2.482   9.611  0.4506 -0.0046 -0.3488
  190POPC  H14X21976   4.924   2.404   9.603 -1.0852 -1.5441 -1.1425
  190POPC  H14Y21977   4.901   2.574   9.639  0.0307  0.3062 -0.5254
  190POPC  C31521978   4.770   2.492   9.476 -0.0095  0.4191 -0.6441
  190POPC  H15X21979   4.675   2.541   9.504 -1.1616 -2.3718  0.6727
  190POPC  H15Y21980   4.742   2.389   9.445  1.8253 -1.0872  2.2352
  190POPC  C31621981   4.849   2.574   9.367  0.0506  0.3040 -0.1885
  190POPC  H16X21982   4.797   2.551   9.272 -0.9578 -0.7168  0.5853
  190POPC  H16Y21983   4.957   2.550   9.383 -0.2711 -0.0304  1.8693
  190POPC  H16Z21984   4.839   2.682   9.390  0.7709  0.3733 -0.1576
  191POPC     N21985   2.658   3.538   6.155 -0.0782 -0.0479  0.0663
  191POPC   C1221986   2.785   3.470   6.102  0.6881 -0.0863 -0.2153
  191POPC  H12A21987   2.835   3.549   6.048 -0.4260 -0.0209 -1.1896
  191POPC  H12B21988   2.758   3.385   6.042  0.8651 -0.1963 -0.1401
  191POPC   C1321989   2.695   3.658   6.242  0.2341  0.2998  0.2973
  191POPC  H13A21990   2.767   3.717   6.186 -1.9795  1.4482 -1.5288
  191POPC  H13B21991   2.609   3.722   6.253 -0.5395 -0.7524  0.4586
  191POPC  H13C21992   2.727   3.629   6.340  2.3310  1.6656  0.0970
  191POPC   C1421993   2.568   3.592   6.044  0.8291 -0.0210  0.0040
  191POPC  H14A21994   2.562   3.511   5.971  4.0991 -0.9156  0.5627
  191POPC  H14B21995   2.467   3.605   6.081  0.5174 -1.8502 -0.0974
  191POPC  H14C21996   2.615   3.673   5.991  1.5402 -0.6080 -0.2904
  191POPC   C1521997   2.585   3.440   6.235 -0.1693 -0.2629 -0.3800
  191POPC  H15A21998   2.648   3.410   6.317  2.4995  2.2709 -1.3518
  191POPC  H15B21999   2.567   3.352   6.175  1.1907  0.0401 -1.2698
  191POPC  H15C22000   2.491   3.478   6.274  0.7214  0.5825  1.0354
  191POPC   C1122001   2.889   3.409   6.197 -0.0018  0.0111 -0.4548
  191POPC  H11A22002   2.964   3.367   6.127  0.7949 -0.4811  0.6648
  191POPC  H11B22003   2.857   3.326   6.263 -0.9538  0.7184 -0.0008
  191POPC     P22004   3.084   3.584   6.251 -0.0382  0.2117  0.5695
  191POPC   O1322005   3.063   3.648   6.115  0.0800  0.7600 -0.6377
  191POPC   O1422006   3.199   3.490   6.260 -0.1160  0.6756 -0.3259
  191POPC   O1222007   2.951   3.508   6.286 -0.2541  0.2033  0.4214
  191POPC   O1122008   3.071   3.693   6.358  0.5126  0.0807  0.3601
  191POPC    C122009   3.111   3.684   6.493  0.7466  0.3723  0.3172
  191POPC    HA22010   3.174   3.769   6.525 -1.2497  2.0932 -0.0611
  191POPC    HB22011   3.170   3.595   6.521  0.0078 -0.6338 -1.1995
  191POPC    C222012   2.979   3.689   6.586 -0.4010 -0.2357  0.4862
  191POPC    HS22013   2.901   3.749   6.533 -0.1593 -0.4712 -0.1463
  191POPC   O2122014   3.020   3.737   6.717  0.2185  0.2442 -0.4121
  191POPC   C2122015   2.936   3.823   6.782  0.2250 -0.2314  0.0464
  191POPC   O2222016   2.833   3.865   6.726 -0.0979  0.0837  0.1195
  191POPC   C2222017   2.997   3.873   6.911 -0.5309  0.6271 -0.4430
  191POPC   H2R22018   3.050   3.971   6.899  2.4981 -0.6263  1.4290
  191POPC   H2S22019   3.086   3.806   6.919 -0.6806  0.3383 -1.1198
  191POPC    C322020   2.911   3.545   6.602  0.4101 -0.3389  0.7744
  191POPC    HX22021   2.985   3.468   6.630  0.6643 -0.2532  0.3485
  191POPC    HY22022   2.871   3.508   6.505  1.9745 -1.2055  0.4276
  191POPC   O3122023   2.798   3.549   6.692 -0.0644  0.2937  0.1699
  191POPC   C3122024   2.677   3.595   6.648  0.1852 -0.1995  0.1253
  191POPC   O3222025   2.652   3.640   6.541 -0.0539 -0.1369  0.0342
  191POPC   C3222026   2.568   3.609   6.762 -0.8077  0.2901 -0.2777
  191POPC   H2X22027   2.600   3.544   6.847  0.2628  0.1069 -0.8132
  191POPC   H2Y22028   2.477   3.566   6.714 -0.7810 -0.1675  0.0696
  191POPC   C2322029   2.903   3.866   7.032 -0.0783 -0.3559  0.2334
  191POPC   H3R22030   2.852   3.767   7.036  0.9732 -1.0607 -2.1559
  191POPC   H3S22031   2.830   3.949   7.023 -0.2729 -0.5340  0.1694
  191POPC   C2422032   2.982   3.872   7.158  0.3192 -0.3671 -0.4034
  191POPC   H4R22033   3.011   3.976   7.182  0.1070 -0.9487  2.7347
  191POPC   H4S22034   3.076   3.814   7.142  0.0312  0.0154 -4.5348
  191POPC   C2522035   2.901   3.828   7.273  0.5019  0.1209  0.0309
  191POPC   H5R22036   2.862   3.724   7.269  1.0312 -0.1322  1.0605
  191POPC   H5S22037   2.809   3.889   7.266 -0.0696 -0.8944 -2.3796
  191POPC   C2622038   2.984   3.861   7.402  0.7357  0.4779 -0.0037
  191POPC   H6R22039   2.912   3.858   7.487 -1.0931  2.6603 -1.3397
  191POPC   H6S22040   3.023   3.965   7.411  0.0759  0.6772  0.7540
  191POPC   C2722041   3.090   3.763   7.444 -0.3667 -0.2096 -0.3284
  191POPC   H7R22042   3.187   3.777   7.391 -1.0952 -1.2085 -2.0113
  191POPC   H7S22043   3.064   3.659   7.415  1.7579 -0.7434 -0.5052
  191POPC   C2822044   3.118   3.780   7.596 -0.3848 -0.3635  0.4745
  191POPC   H8R22045   3.024   3.762   7.652 -0.9807  2.8787  0.7092
  191POPC   H8S22046   3.149   3.886   7.613 -0.0057 -0.3574 -0.2222
  191POPC   C2922047   3.236   3.696   7.648  0.2875  0.2363  0.5206
  191POPC   H9122048   3.297   3.653   7.566  0.2037  0.4802  0.3282
  191POPC  C21022049   3.288   3.699   7.776 -0.3530 -0.0173  0.1574
  191POPC  H10122050   3.363   3.625   7.807 -0.7245 -0.7793 -0.7305
  191POPC  C21122051   3.227   3.784   7.886  0.7787 -0.3897  1.1461
  191POPC  H11R22052   3.214   3.733   7.984 -1.6680  1.6115  1.9831
  191POPC  H11S22053   3.125   3.818   7.857  1.2415  0.0261 -0.0123
  191POPC  C21222054   3.307   3.912   7.933 -0.1548  0.7908  0.4438
  191POPC  H12R22055   3.339   3.965   7.840 -0.6393  0.4521  0.0813
  191POPC  H12S22056   3.400   3.874   7.981  0.1150  0.0931 -0.5910
  191POPC  C21322057   3.228   4.016   8.015 -0.2827  0.3709  0.2375
  191POPC  H13R22058   3.165   3.972   8.095 -0.7458  0.4932 -0.0552
  191POPC  H13S22059   3.163   4.060   7.936 -0.8527 -2.1758 -0.8211
  191POPC  C21422060   3.312   4.134   8.079  0.3861 -0.0058  0.3385
  191POPC  H14R22061   3.246   4.215   8.118  2.0006  0.6734  1.8024
  191POPC  H14S22062   3.382   4.158   7.996  0.3566 -0.9079  0.0411
  191POPC  C21522063   3.391   4.088   8.200 -0.0988  0.2142 -0.1521
  191POPC  H15R22064   3.470   4.163   8.219 -1.7476  2.1028 -0.4031
  191POPC  H15S22065   3.435   3.988   8.182  0.6584  0.6650 -0.8444
  191POPC  C21622066   3.305   4.077   8.323  0.7717  0.8009 -0.1575
  191POPC  H16R22067   3.222   4.005   8.304  1.0737  0.2025  0.7130
  191POPC  H16S22068   3.266   4.179   8.346 -0.1075  0.4623 -0.1169
  191POPC  C21722069   3.387   4.039   8.451  0.3855 -0.4918 -0.1315
  191POPC  H17R22070   3.453   4.126   8.475 -0.2559  0.2633 -1.0087
  191POPC  H17S22071   3.456   3.954   8.433  1.6206  0.2758  0.7785
  191POPC  C21822072   3.280   4.000   8.564 -0.4499 -0.4354  0.5126
  191POPC  H18R22073   3.339   3.960   8.649  1.1209  0.8082  0.0672
  191POPC  H18S22074   3.226   3.912   8.522 -0.2508 -0.6109  0.6213
  191POPC  H18T22075   3.213   4.088   8.577  1.6890  1.3557  0.0400
  191POPC   C3322076   2.544   3.755   6.804  0.4865 -0.0335 -0.2170
  191POPC   H3X22077   2.538   3.816   6.712  0.7916  0.9595  0.4011
  191POPC   H3Y22078   2.625   3.794   6.869  1.4098 -2.4891  0.2455
  191POPC   C3422079   2.410   3.760   6.884 -0.6327 -0.7074  0.1128
  191POPC   H4X22080   2.318   3.739   6.825  0.3445 -0.0933 -1.7245
  191POPC   H4Y22081   2.393   3.867   6.908 -2.1541  0.0069 -3.4557
  191POPC   C3522082   2.422   3.676   7.008  0.1938  0.0974 -0.7405
  191POPC   H5X22083   2.523   3.698   7.049 -0.7615  1.6466  0.9258
  191POPC   H5Y22084   2.421   3.568   6.983 -1.7371 -0.7460  2.3784
  191POPC   C3622085   2.305   3.709   7.109  0.1248 -0.5983 -0.0723
  191POPC   H6X22086   2.204   3.688   7.067 -0.9307  4.5111 -0.7948
  191POPC   H6Y22087   2.307   3.818   7.127 -3.1977 -0.8732  3.0768
  191POPC   C3722088   2.312   3.641   7.245 -0.2401  0.1415 -0.0182
  191POPC   H7X22089   2.407   3.662   7.299  1.9993 -1.7787 -2.9109
  191POPC   H7Y22090   2.310   3.530   7.236 -0.6843  0.0737  0.8406
  191POPC   C3822091   2.187   3.672   7.327  0.3354 -0.2305  0.1399
  191POPC   H8X22092   2.094   3.632   7.281 -0.3912 -0.2452  1.5654
  191POPC   H8Y22093   2.178   3.781   7.347  0.1740 -0.0773 -0.7226
  191POPC   C3922094   2.190   3.606   7.470  0.6966 -0.4820 -0.5493
  191POPC   H9X22095   2.281   3.641   7.524  1.9650 -1.0176 -2.2567
  191POPC   H9Y22096   2.205   3.496   7.467  0.6735 -0.4925 -0.2749
  191POPC  C31022097   2.066   3.631   7.555 -0.3380 -0.2844  0.2163
  191POPC  H10X22098   1.969   3.580   7.532 -0.9076  0.4760  0.8841
  191POPC  H10Y22099   2.042   3.737   7.536  0.8729  0.1414  0.9674
  191POPC  C31122100   2.092   3.622   7.702 -0.6547 -0.2963  0.5388
  191POPC  H11X22101   2.172   3.697   7.721 -1.1689  0.2813  0.4473
  191POPC  H11Y22102   2.122   3.516   7.715 -1.6123 -0.3970  2.2686
  191POPC  C31222103   1.965   3.659   7.788  0.1216 -0.4636 -0.0617
  191POPC  H12X22104   1.891   3.579   7.767  0.1696 -1.6945  3.7093
  191POPC  H12Y22105   1.916   3.743   7.733  0.8872  0.1607  0.1832
  191POPC  C31322106   2.002   3.666   7.936  0.3450 -0.4812  0.1476
  191POPC  H13X22107   1.952   3.754   7.982  1.0857 -0.0372  0.1181
  191POPC  H13Y22108   2.109   3.693   7.951 -0.1641  0.9678  1.4720
  191POPC  C31422109   1.961   3.542   8.008  0.3686 -0.2108  0.0458
  191POPC  H14X22110   1.979   3.451   7.947  1.2036 -0.9664  1.3477
  191POPC  H14Y22111   1.850   3.546   8.007  0.3463 -0.8331 -1.3876
  191POPC  C31522112   2.002   3.529   8.149 -0.0757  0.2388 -0.0054
  191POPC  H15X22113   1.974   3.623   8.200  1.7678  0.5693  0.4905
  191POPC  H15Y22114   2.110   3.504   8.141  0.0465  0.2884  1.2548
  191POPC  C31622115   1.928   3.415   8.222 -0.0288 -0.9591  0.3149
  191POPC  H16X22116   1.819   3.436   8.220 -0.1529 -1.1461  2.4451
  191POPC  H16Y22117   1.955   3.410   8.330  3.5025  2.2206 -0.2062
  191POPC  H16Z22118   1.946   3.322   8.165 -0.9117 -0.4526 -0.8240
  192POPC     N22119   1.913   5.463   5.954  0.5964  0.3699  0.1800
  192POPC   C1222120   1.924   5.462   6.106  0.2429 -0.1819 -0.4883
  192POPC  H12A22121   2.024   5.423   6.113  0.4419  0.4445  0.1661
  192POPC  H12B22122   1.851   5.394   6.148 -1.0543 -0.7787 -3.4183
  192POPC   C1322123   1.794   5.532   5.922  0.1117  0.1165  0.3236
  192POPC  H13A22124   1.804   5.621   5.983 -1.3382  0.2043  0.4611
  192POPC  H13B22125   1.784   5.564   5.820 -0.3637 -0.1528  0.2843
  192POPC  H13C22126   1.709   5.474   5.955 -0.0173  0.7300  1.1249
  192POPC   C1422127   2.032   5.532   5.892 -0.6106 -0.6621 -0.9329
  192POPC  H14A22128   2.016   5.532   5.785 -0.7407 -3.6854 -1.0064
  192POPC  H14B22129   2.042   5.634   5.926 -0.5591 -0.7545 -0.6758
  192POPC  H14C22130   2.125   5.483   5.915 -0.2717  0.7850  1.0431
  192POPC   C1522131   1.909   5.323   5.901 -0.2825  1.0914 -0.2900
  192POPC  H15A22132   2.009   5.283   5.912 -0.2680  1.4908  1.3254
  192POPC  H15B22133   1.886   5.316   5.796  0.5387 -2.0427 -0.3716
  192POPC  H15C22134   1.843   5.255   5.953  2.1063  0.3023  1.9699
  192POPC   C1122135   1.923   5.597   6.192  0.0283 -0.4540 -0.4786
  192POPC  H11A22136   1.944   5.560   6.294  0.3423 -0.1559 -0.4338
  192POPC  H11B22137   1.818   5.632   6.176  0.5030  0.9160 -0.7491
  192POPC     P22138   1.998   5.843   6.143  0.1469 -0.1802  0.4153
  192POPC   O1322139   1.916   5.885   6.028 -0.2911  0.1084 -0.0870
  192POPC   O1422140   2.125   5.922   6.158 -0.4793 -0.1760 -0.0836
  192POPC   O1222141   2.028   5.692   6.149  0.3829  0.4741  0.3544
  192POPC   O1122142   1.912   5.869   6.275  0.2825  0.2636 -0.8084
  192POPC    C122143   1.971   5.852   6.401  0.4063 -0.7249 -0.1174
  192POPC    HA22144   2.075   5.814   6.388  0.1119 -1.3057 -0.8584
  192POPC    HB22145   1.909   5.775   6.451 -1.5283 -0.3953 -1.8858
  192POPC    C222146   1.987   5.995   6.478  0.2246  0.2904  0.2273
  192POPC    HS22147   2.048   6.056   6.408  0.1223 -0.8510 -0.9015
  192POPC   O2122148   2.048   5.970   6.612 -0.2196  0.5710  0.3870
  192POPC   C2122149   2.129   6.066   6.648  0.5732  0.1200  0.1769
  192POPC   O2222150   2.158   6.167   6.585 -0.1800  0.7628  0.2525
  192POPC   C2222151   2.173   6.044   6.793  0.2859 -0.3970 -0.5278
  192POPC   H2R22152   2.212   5.942   6.812 -1.4429 -0.6576  2.0945
  192POPC   H2S22153   2.078   6.035   6.849  0.4557 -0.1120 -0.1888
  192POPC    C322154   1.843   6.054   6.485  0.4432 -0.0104 -0.2937
  192POPC    HX22155   1.787   5.988   6.554 -1.1895  2.1136  0.5135
  192POPC    HY22156   1.788   6.051   6.388  2.3131 -1.3962 -1.4003
  192POPC   O3122157   1.842   6.184   6.550  0.0779  0.3891 -1.3259
  192POPC   C3122158   1.856   6.284   6.472 -0.4804 -0.3835  0.0670
  192POPC   O3222159   1.900   6.280   6.360  0.6017 -0.9322 -0.3287
  192POPC   C3222160   1.798   6.421   6.536 -0.2506  0.1575 -0.1142
  192POPC   H2X22161   1.719   6.388   6.607 -0.2090 -0.5412 -0.3773
  192POPC   H2Y22162   1.767   6.495   6.459  0.9875  0.1317 -0.6564
  192POPC   C2322163   2.254   6.155   6.857  0.4067  0.4286 -1.3475
  192POPC   H3R22164   2.194   6.248   6.865  1.8086  1.2787 -0.4309
  192POPC   H3S22165   2.344   6.193   6.805 -0.0745  4.0597  0.1462
  192POPC   C2422166   2.316   6.123   6.999  0.0076 -1.0080  0.6968
  192POPC   H4R22167   2.376   6.212   7.024 -1.2973  1.1255 -2.9311
  192POPC   H4S22168   2.382   6.034   6.989  2.5798  0.8573  0.0380
  192POPC   C2522169   2.216   6.115   7.107 -0.1461  0.7804 -0.1029
  192POPC   H5R22170   2.145   6.032   7.082  0.1009  0.5727 -0.1192
  192POPC   H5S22171   2.168   6.215   7.109  2.6111  2.1848  0.3067
  192POPC   C2622172   2.290   6.085   7.241 -0.7111 -0.6137  0.4038
  192POPC   H6R22173   2.392   6.055   7.210 -1.0653 -1.2376 -0.2029
  192POPC   H6S22174   2.244   5.996   7.289 -0.9351 -0.7384 -0.0338
  192POPC   C2722175   2.286   6.197   7.340  0.2495  0.0799 -0.0630
  192POPC   H7R22176   2.182   6.210   7.377  0.8110  0.9805  1.2451
  192POPC   H7S22177   2.302   6.296   7.292 -0.5542 -0.8079 -2.3131
  192POPC   C2822178   2.379   6.187   7.456 -0.2763  0.3294 -0.1159
  192POPC   H8R22179   2.486   6.181   7.429 -0.5546  2.5141 -1.9651
  192POPC   H8S22180   2.348   6.101   7.520 -0.1789  1.4354  1.4861
  192POPC   C2922181   2.367   6.313   7.539  0.8623  0.2005  0.2516
  192POPC   H9122182   2.403   6.404   7.488 -0.4402  1.9463  2.2620
  192POPC  C21022183   2.304   6.327   7.654  0.5911 -0.0004 -0.1056
  192POPC  H10122184   2.306   6.428   7.695 -1.1865  0.5966 -1.4015
  192POPC  C21122185   2.227   6.227   7.738 -0.2362 -0.1716 -0.4090
  192POPC  H11R22186   2.218   6.125   7.696  1.9957 -0.9724  0.9252
  192POPC  H11S22187   2.120   6.256   7.725  0.1656  1.8439  0.4317
  192POPC  C21222188   2.272   6.224   7.886  0.0353 -0.3774  0.3609
  192POPC  H12R22189   2.200   6.153   7.932  0.9777 -1.8276 -0.3301
  192POPC  H12S22190   2.251   6.321   7.935  2.0900 -0.2617  1.0854
  192POPC  C21322191   2.420   6.186   7.909 -0.1971  0.5175  0.1640
  192POPC  H13R22192   2.486   6.252   7.850 -0.2189 -0.0998 -0.5619
  192POPC  H13S22193   2.445   6.089   7.861  0.0758 -0.4733  2.2006
  192POPC  C21422194   2.461   6.194   8.056 -0.9779  0.0812  0.1370
  192POPC  H14R22195   2.555   6.138   8.077 -0.7502  0.0212 -0.9953
  192POPC  H14S22196   2.394   6.140   8.126  1.0887 -0.5648  1.7097
  192POPC  C21522197   2.488   6.334   8.127 -0.0358  0.4731  0.0169
  192POPC  H15R22198   2.397   6.396   8.112 -2.9318 -3.5985 -1.0861
  192POPC  H15S22199   2.572   6.391   8.081  1.3975 -1.5322  0.0334
  192POPC  C21622200   2.539   6.322   8.271 -0.0870  0.0556 -0.3713
  192POPC  H16R22201   2.595   6.409   8.312 -0.9085 -1.1850  3.9317
  192POPC  H16S22202   2.622   6.247   8.273 -0.6954 -0.6219  1.1314
  192POPC  C21722203   2.443   6.276   8.372 -0.1818 -0.5096 -0.2623
  192POPC  H17R22204   2.382   6.187   8.345 -0.3176 -0.7729  0.8783
  192POPC  H17S22205   2.367   6.355   8.391  0.2243  0.3902 -2.1113
  192POPC  C21822206   2.510   6.230   8.506 -0.1776  0.5765 -0.4035
  192POPC  H18R22207   2.439   6.210   8.589  0.2541  1.6840  0.2579
  192POPC  H18S22208   2.586   6.307   8.530  0.3294  0.2015 -0.7739
  192POPC  H18T22209   2.570   6.139   8.480  0.2318  0.3243  1.2846
  192POPC   C3322210   1.916   6.489   6.609 -0.3246  0.0669 -0.7204
  192POPC   H3X22211   1.888   6.591   6.645 -1.3934 -1.3531  2.8801
  192POPC   H3Y22212   2.009   6.512   6.552 -0.2576  1.9131  0.0590
  192POPC   C3422213   1.966   6.415   6.739  0.1130 -0.4437  0.6847
  192POPC   H4X22214   2.048   6.474   6.786  1.4399 -0.9415 -0.8903
  192POPC   H4Y22215   2.004   6.315   6.710  0.1067  0.3193 -2.1937
  192POPC   C3522216   1.863   6.407   6.851 -0.0092  0.6159 -0.3662
  192POPC   H5X22217   1.772   6.358   6.810  0.6941 -0.3883 -0.7762
  192POPC   H5Y22218   1.834   6.506   6.891 -0.3274  0.4151 -0.0943
  192POPC   C3622219   1.923   6.330   6.966  0.3413  0.0698 -0.5702
  192POPC   H6X22220   2.018   6.364   7.011  1.0228 -1.1571 -1.0486
  192POPC   H6Y22221   1.944   6.225   6.937  0.8682 -0.6951  2.2813
  192POPC   C3722222   1.816   6.324   7.084  0.4530 -0.3388  0.5935
  192POPC   H7X22223   1.760   6.230   7.066  0.8018 -0.5375  0.5271
  192POPC   H7Y22224   1.738   6.402   7.072 -1.3842 -1.8833  1.8413
  192POPC   C3822225   1.878   6.337   7.229  0.0388 -0.1265 -0.1824
  192POPC   H8X22226   1.939   6.429   7.226  0.9141 -0.6688  0.5399
  192POPC   H8Y22227   1.938   6.244   7.239 -0.6350 -0.5695 -0.1787
  192POPC   C3922228   1.768   6.354   7.332 -0.6163 -0.6525  0.0532
  192POPC   H9X22229   1.707   6.261   7.335 -0.6942 -0.9247 -3.9812
  192POPC   H9Y22230   1.697   6.435   7.306  0.7648  0.7178  0.4217
  192POPC  C31022231   1.829   6.389   7.471  0.0901 -0.2233 -0.0067
  192POPC  H10X22232   1.892   6.480   7.464  1.9570 -1.2907  1.5508
  192POPC  H10Y22233   1.884   6.294   7.490 -0.5900 -0.6857 -0.3388
  192POPC  C31122234   1.720   6.423   7.577 -0.2798  0.1531  1.1430
  192POPC  H11X22235   1.659   6.330   7.582 -0.4351  0.2571  1.1963
  192POPC  H11Y22236   1.662   6.508   7.535  0.7071  1.2383  1.8995
  192POPC  C31222237   1.787   6.469   7.707  0.3634  0.0666  0.2468
  192POPC  H12X22238   1.721   6.525   7.777  1.0074  2.0856 -0.7195
  192POPC  H12Y22239   1.866   6.542   7.681  0.7349  0.2869  1.9110
  192POPC  C31322240   1.848   6.361   7.794 -0.0915 -0.0594 -0.2313
  192POPC  H13X22241   1.927   6.394   7.865 -0.3603 -0.2849  0.1849
  192POPC  H13Y22242   1.887   6.275   7.735 -1.2378 -0.4762 -0.4293
  192POPC  C31422243   1.738   6.303   7.885  0.1584 -0.2994  0.2970
  192POPC  H14X22244   1.650   6.278   7.822 -0.2919  0.3979  0.6457
  192POPC  H14Y22245   1.706   6.387   7.950  0.8152  0.7464 -0.6947
  192POPC  C31522246   1.779   6.193   7.980 -0.3181  0.2383  0.6563
  192POPC  H15X22247   1.883   6.212   8.016  0.3203 -0.5124 -0.6897
  192POPC  H15Y22248   1.783   6.095   7.928  0.1802  0.1765  0.8060
  192POPC  C31622249   1.691   6.184   8.101 -0.2619  0.4098 -0.1030
  192POPC  H16X22250   1.728   6.113   8.178  1.5116  2.2743  0.8707
  192POPC  H16Y22251   1.588   6.157   8.071 -0.0850 -1.5096  0.8574
  192POPC  H16Z22252   1.695   6.283   8.151  0.0128 -0.5563  1.8473
  193SOD    SOD22253   0.610   6.243  12.552 -0.2041  0.2005 -0.4923
  194SOD    SOD22254   3.752   1.143   5.637  0.3083 -0.4397 -0.3227
  195SOD    SOD22255   4.752   5.810   5.729  0.1663  0.6809  0.5232
  196SOD    SOD22256   3.655   0.359   1.022 -0.2148 -0.0562 -0.4316
  197SOD    SOD22257   3.862   3.259  11.230 -0.0714  0.3597 -0.1668
  198SOD    SOD22258   6.320   2.517   4.872  0.4631  0.2933 -0.2137
  199SOD    SOD22259   2.030   0.961   0.420 -0.4112  0.3756  0.0187
  200SOD    SOD22260   0.853   2.861   4.385  0.0442 -0.0917  0.2135
  201SOD    SOD22261   2.386   3.670  10.473  0.6613 -0.3459 -0.3723
  202SOD    SOD22262   1.363   0.871  15.407  0.2133 -0.1592  0.1624
  203SOD    SOD22263   3.821   5.389   3.494 -0.5341  0.4557  0.1289
  204SOD    SOD22264   0.625   3.492   3.898  0.1279 -0.0877 -0.4017
  205SOD    SOD22265   2.002   3.399  16.728  0.0159 -0.5952  0.0542
  206SOD    SOD22266   4.151   2.329  11.970  0.3980 -0.0339  0.1317
  207SOD    SOD22267   5.199   0.644  14.737  0.2288 -0.4551  0.1246
  208SOD    SOD22268   4.088   4.397   3.712 -0.5424  0.0137 -0.6716
  209SOD    SOD22269   4.289   5.310   4.786  0.4792 -0.2181  0.4221
  210SOD    SOD22270   0.602   1.873   2.510  0.4699  0.1128 -0.2915
  211SOD    SOD22271   0.725   0.527   5.419  0.3204  0.1100 -0.4376
  212SOD    SOD22272   2.972   5.329  11.894 -0.0861  0.0517 -0.6119
  213SOD    SOD22273   4.843   6.570  15.383  0.2360  0.2700  0.2581
  214SOD    SOD22274   6.704   6.439   3.216  0.0781 -0.2633 -0.5783
  215SOD    SOD22275   3.251   4.385  13.851  0.1347 -0.1600  0.0764
  216SOD    SOD22276   1.873   6.324   6.141  0.6087 -0.6502  0.3673
  217SOD    SOD22277   5.022   5.324  15.439  0.4555  0.1369  0.6920
  218SOD    SOD22278   2.576   4.890   4.758 -0.0241 -0.5639 -0.0247
  219SOD    SOD22279   6.796   5.356  14.750 -0.2088  0.1687 -0.3029
  220SOD    SOD22280   5.913   2.723   5.863 -0.1489 -0.2026  0.5920
  221SOD    SOD22281   0.812   6.169  16.202  0.2750 -0.5288 -0.3116
  222SOD    SOD22282   3.210   1.792  15.721  0.0849 -0.0971 -0.1793
  223SOD    SOD22283   1.521   3.817   5.468 -0.1808 -0.3398  0.1442
  224SOD    SOD22284   6.581   1.539  16.754  0.0011  0.4009  0.1422
  225SOD    SOD22285   5.060   3.101  15.621 -0.3688  0.0214  0.2845
  226SOD    SOD22286   1.894   5.072  12.245 -0.4488 -0.1213 -0.0792
  227SOD    SOD22287   4.215   0.312   5.139 -0.5781  0.3495 -0.1632
  228SOD    SOD22288   1.257   5.065   5.275  0.2217 -0.8267 -0.1617
  229SOD    SOD22289   0.302   6.432  11.478  0.0212 -0.6455  0.4373
  230SOD    SOD22290   3.891   0.930   1.435 -0.1148 -0.4359 -0.4420
  231SOD    SOD22291   5.460   0.538  11.600 -0.2760  0.5209 -0.3399
  232SOD    SOD22292   6.763   0.485   6.273  0.1379 -0.1690 -0.1688
  233SOD    SOD22293   6.551   0.746  14.823  0.1001  0.1395 -0.0138
  234SOD    SOD22294   1.558   2.398  14.908 -0.1052 -0.1467  0.5878
  235SOD    SOD22295   0.677   0.390  12.048 -0.0217 -0.1306  0.3378
  236SOD    SOD22296   4.568   1.535   5.087  0.4199 -0.2579  0.1454
  237SOD    SOD22297   3.735   4.836  11.510  0.1955  0.2047 -0.2188
  238SOD    SOD22298   0.448   2.151  10.553  0.1162  0.1986  0.0935
  239SOD    SOD22299   2.288   3.226  12.344  0.0798  0.0949 -0.0149
  240SOD    SOD22300   4.551   4.117  11.489  0.1540  0.1646  0.2691
  241SOD    SOD22301   6.423   4.182  14.834  0.0994  0.0467  0.4679
  242SOD    SOD22302   0.981   0.289  14.532  0.0080  0.5639  0.4950
  243SOD    SOD22303   5.745   3.376   4.133  0.7325 -0.1835  0.5495
  244SOD    SOD22304   6.455   3.558  13.092  0.3840  0.0687  0.3488
  245SOD    SOD22305   3.755   6.348   4.207 -0.0969 -0.0416 -0.6395
  246SOD    SOD22306   5.852   1.683  15.735  0.1492 -0.1822  0.3148
  247SOD    SOD22307   2.639   6.269  14.869 -0.1157  0.0797 -0.2373
  248SOD    SOD22308   0.031   0.060  10.540 -0.2810 -0.1376  0.0481
  249SOD    SOD22309   5.927   0.632   6.371  0.0844 -0.0306 -0.9483
  250SOD    SOD22310   3.060   0.662   2.092  0.2720  0.2710  0.1333
  251SOD    SOD22311   6.063   1.863   3.182  0.4378 -0.0949  0.1896
  252SOD    SOD22312   0.088   1.064   2.420  0.0689  0.6380  0.3132
  253SOD    SOD22313   4.858   0.256  10.408  0.1805 -0.0439  0.0223
  254SOD    SOD22314   4.952   3.797  15.829 -0.2678  0.3222 -0.6709
  255SOD    SOD22315   5.169   0.198   5.118  0.3565  0.4425  0.4289
  256SOD    SOD22316   0.995   0.832  13.062  0.4331 -0.0192 -0.1245
  257SOD    SOD22317   3.456   3.270   6.650  0.1884  0.2986 -0.2875
  258SOD    SOD22318   5.035   2.755  13.876 -0.1272 -0.5280 -0.2184
  259SOD    SOD22319   2.591   2.374   3.873 -0.0237  0.0006 -0.0065
  260SOD    SOD22320   4.322   2.752   2.345  0.1047  0.2057  0.0569
  261SOD    SOD22321   0.111   5.047  13.297 -0.3809  0.5720 -0.5038
  262SOD    SOD22322   5.404   0.928  10.720 -0.4141  0.2643  0.1460
  263SOD    SOD22323   5.616   5.192   3.971  0.3318  0.2593 -0.0429
  264SOD    SOD22324   6.373   2.800  12.396  0.0218  0.4959 -0.3367
  265SOD    SOD22325   5.442   5.555   6.488  0.1587 -0.4406 -0.0847
  266SOD    SOD22326   5.920   4.599   0.374  0.1410  0.0209 -0.1677
  267SOD    SOD22327   6.178   3.273   2.752 -0.1852 -0.0379 -0.2746
  268SOD    SOD22328   5.791   4.152  11.379 -0.3631  0.2843  0.7378
  269SOD    SOD22329   6.477   5.811   5.289 -0.1234  0.1518  0.3689
  270CLA    CLA22330   6.762   1.623   2.845 -0.0656  0.0407  0.0913
  271CLA    CLA22331   0.400   1.203  14.099  0.0485  0.1707 -0.3010
  272CLA    CLA22332   5.616   0.116  14.572  0.5220 -0.3104  0.3695
  273CLA    CLA22333   0.469   5.280  11.620 -0.1309 -0.2620  0.0585
  274CLA    CLA22334   3.354   5.666  12.980 -0.2107  0.0099 -0.1877
  275CLA    CLA22335   0.178   5.986  12.996 -0.0115  0.3725 -0.0072
  276CLA    CLA22336   4.462   5.684   4.517 -0.1855  0.2253  0.3291
  277CLA    CLA22337   2.852   3.531   3.304 -0.2898  0.1292  0.3451
  278CLA    CLA22338   4.960   5.720   2.925  0.1054  0.0984 -0.5589
  279CLA    CLA22339   4.209   2.873  16.671 -0.1596 -0.3758  0.0705
  280CLA    CLA22340   2.851   4.213   5.248 -0.0840  0.2875  0.2050
  281CLA    CLA22341   3.744   2.566  15.421  0.1262 -0.0938  0.1027
  282CLA    CLA22342   0.528   2.961   3.399 -0.2832 -0.1756  0.1088
  283CLA    CLA22343   0.261   6.363  16.732  0.3574  0.2263 -0.1143
  284CLA    CLA22344   0.035   1.349  15.320 -0.1919 -0.0327  0.3035
  285CLA    CLA22345   6.181   4.665  13.595 -0.2166  0.0576 -0.3429
  286CLA    CLA22346   0.704   0.543  12.473 -0.1265 -0.0475  0.1415
  287CLA    CLA22347   3.655   0.906   0.653 -0.0279 -0.1680  0.3248
  288CLA    CLA22348   5.302   6.380  17.125  0.2575 -0.2136 -0.0130
  289CLA    CLA22349   6.517   3.204   3.612  0.1783  0.2465  0.0643
  290CLA    CLA22350   6.367   5.408   4.434 -0.4940 -0.2582  0.0205
  291CLA    CLA22351   0.404   4.886  15.581 -0.2595  0.1737  0.0726
  292CLA    CLA22352   6.328   1.514  16.199  0.1995 -0.0263 -0.1400
  293CLA    CLA22353   4.866   3.802  12.612 -0.6508 -0.2101 -0.4879
  294CLA    CLA22354   0.952   6.571  15.996 -0.1292  0.1024  0.1599
  295CLA    CLA22355   3.254   1.450   3.050 -0.0454 -0.2123  0.3407
  296CLA    CLA22356   3.723   6.246   1.601  0.5491  0.1020 -0.1114
  297CLA    CLA22357   5.527   5.063   2.136  0.0203  0.2416  0.1005
  298CLA    CLA22358   2.895   3.186  15.129  0.2950  0.0799  0.0523
  299CLA    CLA22359   0.625   5.995  14.474  0.2056  0.3314  0.4693
  300CLA    CLA22360   2.606   0.609   1.865  0.4114 -0.0707  0.0945
  301CLA    CLA22361   2.268   2.848   5.351  0.0906 -0.3363 -0.0419
  302CLA    CLA22362   4.079   4.965   3.077  0.1532 -0.1197 -0.0068
  303CLA    CLA22363   5.101   3.820  16.540 -0.6269 -0.2583 -0.1172
  304CLA    CLA22364   0.130   4.876   4.096  0.0461  0.3541  0.3963
  305CLA    CLA22365   3.068   4.883  11.964  0.1441 -0.0757 -0.3830
  306CLA    CLA22366   6.779   3.589  12.440  0.2109 -0.2059 -0.1081
  307CLA    CLA22367   5.241   5.039  14.310  0.0588 -0.3602  0.2751
  308CLA    CLA22368   5.290   1.096   1.397  0.5102 -0.1107 -0.1424
  309CLA    CLA22369   1.530   1.634   4.525 -0.0764 -0.1156  0.5156
  310CLA    CLA22370   1.344   2.804  14.726  0.2763  0.2206 -0.0861
  311CLA    CLA22371   3.746   4.975  13.524 -0.0424 -0.2866  0.5702
  312CLA    CLA22372   2.351   2.925  15.011  0.1539  0.1449  0.1072
  313CLA    CLA22373   2.053   0.295   0.224 -0.0584 -0.0848  0.1711
  314CLA    CLA22374   4.523   3.401   3.911  0.3593 -0.7084  0.2618
  315CLA    CLA22375   4.633   2.627   4.265 -0.0223  0.1509  0.0468
  316CLA    CLA22376   6.616   0.097  13.096 -0.3060 -0.3525  0.1566
  317CLA    CLA22377   1.484   2.722   0.857  0.1396  0.0201 -0.2624
  318CLA    CLA22378   4.167   0.125  14.989 -0.0590  0.0715 -0.3942
  319CLA    CLA22379   2.773   3.305  12.209 -0.1202  0.5935 -0.3370
  320CLA    CLA22380   1.208   1.899   5.150 -0.0450 -0.0675 -0.1219
  321CLA    CLA22381   3.026   4.681   3.123 -0.4569  0.9703 -0.2520
  322CLA    CLA22382   2.666   0.444   4.265  0.1120 -0.0660  0.1377
  323TIP3   OH222383   1.048   3.783  14.054  0.0793  0.3080 -0.3167
  323TIP3    H122384   1.070   3.866  14.013 -0.9451 -0.5470 -2.8135
  323TIP3    H222385   1.121   3.765  14.113  0.7663  2.5021 -0.4063
  324TIP3   OH222386   4.247   2.553   0.861 -0.8225  0.0928  0.5809
  324TIP3    H122387   4.178   2.491   0.837 -0.3593 -0.3882  0.4674
  324TIP3    H222388   4.296   2.567   0.779 -1.1437  0.8937  0.5200
  325TIP3   OH222389   0.226   5.667  11.631 -0.8584  0.5357  0.2942
  325TIP3    H122390   0.270   5.611  11.695 -0.6965  0.4288  0.0921
  325TIP3    H222391   0.273   5.750  11.635 -1.5718  0.9092  1.1288
  326TIP3   OH222392   5.983   3.661   2.663  0.2092 -0.1376  0.0395
  326TIP3    H122393   6.012   3.750   2.639 -0.7928  0.1376 -0.1770
  326TIP3    H222394   5.972   3.664   2.758 -0.9260  0.3050 -0.1009
  327TIP3   OH222395   4.849   1.726  16.549 -0.0465 -0.1920  0.0604
  327TIP3    H122396   4.901   1.647  16.534 -2.4131 -1.6867 -0.8284
  327TIP3    H222397   4.841   1.731  16.644 -0.5770 -1.5680  0.1133
  328TIP3   OH222398   0.194   5.748  12.278  0.1755  0.2539 -0.2591
  328TIP3    H122399   0.161   5.668  12.320  1.7500 -0.3649 -0.1397
  328TIP3    H222400   0.204   5.725  12.186  0.1809  0.4621 -0.3112
  329TIP3   OH222401   5.491   4.099   3.567  0.1504  0.1961 -0.7203
  329TIP3    H122402   5.576   4.122   3.528  0.2618  1.3603  0.1509
  329TIP3    H222403   5.430   4.163   3.530  0.2178  1.1834  0.7790
  330TIP3   OH222404   5.459   5.522  17.076  0.8819  0.5189 -0.4514
  330TIP3    H122405   5.479   5.609  17.041  1.9019  0.1171 -0.9191
  330TIP3    H222406   5.445   5.468  16.999  0.5862  0.1925 -0.1715
  331TIP3   OH222407   2.302   3.009   1.059 -0.3956 -0.0206 -0.1115
  331TIP3    H122408   2.343   2.935   1.103 -0.2862 -0.1680 -0.4607
  331TIP3    H222409   2.347   3.015   0.974 -1.5931 -0.6369 -0.8052
  332TIP3   OH222410   1.032   5.548  14.656 -0.1724  0.4231  0.0205
  332TIP3    H122411   1.071   5.627  14.694 -1.7237  0.3669  1.8589
  332TIP3    H222412   1.064   5.477  14.712  0.9580 -0.2606 -1.4294
  333TIP3   OH222413   2.661   2.716   2.145 -0.0754  0.6378  0.3133
  333TIP3    H122414   2.669   2.789   2.084 -0.3600 -0.0346 -0.5575
  333TIP3    H222415   2.577   2.731   2.188 -1.1574 -0.2471 -1.3721
  334TIP3   OH222416   3.737   3.981  11.864 -0.2466  0.1553 -0.0415
  334TIP3    H122417   3.815   3.929  11.886  0.0151  0.6546  0.2483
  334TIP3    H222418   3.740   3.989  11.769 -0.2700 -0.3323 -0.0842
  335TIP3   OH222419   4.254   5.366   5.760  0.1512 -0.0486 -0.2781
  335TIP3    H122420   4.205   5.337   5.837  3.1439  0.4499  2.0075
  335TIP3    H222421   4.245   5.294   5.697 -0.4487 -1.6074  1.4990
  336TIP3   OH222422   4.317   5.884  14.828 -0.2079 -0.0643 -0.3749
  336TIP3    H122423   4.412   5.872  14.833 -0.1935  0.6220  2.3061
  336TIP3    H222424   4.281   5.796  14.821  0.5800 -0.3946 -0.2628
  337TIP3   OH222425   5.361   1.541   1.674  0.0261 -0.7523  0.3206
  337TIP3    H122426   5.441   1.556   1.623 -1.7415  1.4966 -2.0086
  337TIP3    H222427   5.346   1.447   1.667  1.2242 -0.8819 -1.1558
  338TIP3   OH222428   2.800   5.399  14.003 -0.1005  0.1447  0.1975
  338TIP3    H122429   2.894   5.392  14.018 -0.0746 -1.5813 -0.5151
  338TIP3    H222430   2.790   5.389  13.908 -1.0765 -0.9785  0.3884
  339TIP3   OH222431   1.174   4.585  12.585 -0.1156  0.2997 -0.2974
  339TIP3    H122432   1.173   4.518  12.653 -0.8187  0.2511 -0.3442
  339TIP3    H222433   1.126   4.546  12.512  1.5702 -0.0787 -1.2573
  340TIP3   OH222434   1.025   0.313   4.665  0.0939  0.7462 -0.1306
  340TIP3    H122435   1.065   0.228   4.685 -1.3124  0.5223  2.1483
  340TIP3    H222436   0.950   0.291   4.610 -0.3995  0.4505  0.6416
  341TIP3   OH222437   1.957   2.044   5.686  0.0039  0.2497  0.0778
  341TIP3    H122438   1.970   2.046   5.781  2.8772  1.0072 -0.2195
  341TIP3    H222439   1.960   2.136   5.659 -1.2056  0.0768 -0.7290
  342TIP3   OH222440   4.830   0.219   3.735  0.6522  0.3435  0.2122
  342TIP3    H122441   4.859   0.303   3.698  1.5428  0.4101  1.0052
  342TIP3    H222442   4.885   0.154   3.693  1.0471  0.3312  0.7257
  343TIP3   OH222443   4.136   6.576  13.290  0.0118 -0.0557  0.1557
  343TIP3    H122444   4.113   6.505  13.350 -1.7576 -0.9858 -1.5045
  343TIP3    H222445   4.090   6.652  13.324 -0.1358 -0.3232  0.5604
  344TIP3   OH222446   5.272   3.208  15.632 -0.3307 -0.5633  0.2208
  344TIP3    H122447   5.314   3.255  15.704  0.9530 -0.0172 -0.8535
  344TIP3    H222448   5.296   3.257  15.553 -2.1105 -0.8651 -0.5663
  345TIP3   OH222449   5.139   5.531  15.434  0.0610  0.6123 -1.0573
  345TIP3    H122450   5.110   5.611  15.391 -0.7386  0.5338 -0.6782
  345TIP3    H222451   5.233   5.544  15.447 -0.0518  1.4651 -1.0387
  346TIP3   OH222452   4.922   5.721   5.879  0.6982 -0.0973 -0.1974
  346TIP3    H122453   4.914   5.774   5.959  1.2623  0.0132 -0.2093
  346TIP3    H222454   5.004   5.751   5.839 -1.1386  2.2263 -2.5655
  347TIP3   OH222455   1.070   4.004  15.162 -0.5166  0.0298  0.1140
  347TIP3    H122456   1.145   3.950  15.186  0.3280  0.5270 -1.2636
  347TIP3    H222457   1.007   3.942  15.124 -1.0741 -0.4689  1.7691
  348TIP3   OH222458   5.189   6.634  16.170 -0.0253  0.0976 -0.0508
  348TIP3    H122459   5.185   6.618  16.264 -0.2882  0.8624  0.0764
  348TIP3    H222460   5.097   6.638  16.143  0.0461  0.3661 -0.2541
  349TIP3   OH222461   2.905   6.711  14.316 -0.1550  0.1141  0.7409
  349TIP3    H122462   2.958   6.633  14.300 -2.6222 -1.1093 -2.5518
  349TIP3    H222463   2.861   6.728  14.233 -1.0998  4.0589  1.8127
  350TIP3   OH222464   0.420   5.911  16.038  0.3279  0.1518  0.7266
  350TIP3    H122465   0.412   5.882  15.947 -0.2827 -1.2904  1.1976
  350TIP3    H222466   0.505   5.877  16.066  2.2612  3.6991 -0.2838
  351TIP3   OH222467   2.771   1.564   3.170 -0.4565 -0.6000  0.3506
  351TIP3    H122468   2.804   1.529   3.253  2.7348 -1.3887 -1.0801
  351TIP3    H222469   2.708   1.500   3.139 -0.1390 -1.3442  1.2197
  352TIP3   OH222470   3.897   2.054  13.910  0.3585  0.0174 -0.0531
  352TIP3    H122471   3.927   2.118  13.845  0.9442  0.7167  0.8685
  352TIP3    H222472   3.848   2.106  13.974 -1.4591 -0.8811 -0.6680
  353TIP3   OH222473   4.796   1.839  15.636 -0.4417  0.3094 -0.0185
  353TIP3    H122474   4.761   1.768  15.691  0.6362 -0.2091  0.0345
  353TIP3    H222475   4.768   1.919  15.680 -1.8082 -0.0627 -0.1598
  354TIP3   OH222476   3.754   1.742   0.595 -0.3476 -0.0044  0.5749
  354TIP3    H122477   3.797   1.688   0.662  0.2131 -0.3447 -0.0421
  354TIP3    H222478   3.803   1.824   0.596 -0.8873  0.3146  1.1724
  355TIP3   OH222479   4.993   4.842  11.630 -0.6465  0.1304  0.0513
  355TIP3    H122480   5.086   4.819  11.633  0.0714  2.7205 -0.0642
  355TIP3    H222481   4.962   4.828  11.720 -0.5023 -1.7889 -0.1374
  356TIP3   OH222482   1.894   2.744   2.901  0.1408  0.3394 -0.1040
  356TIP3    H122483   1.928   2.806   2.836  1.1831 -0.2457 -0.1305
  356TIP3    H222484   1.843   2.799   2.961  0.7623  1.1743 -0.3198
  357TIP3   OH222485   0.963   2.837  12.205 -0.5529  0.0847  0.3215
  357TIP3    H122486   0.924   2.896  12.141 -0.5162 -0.9493 -0.6794
  357TIP3    H222487   0.972   2.753  12.159 -0.0331 -0.5415  1.5087
  358TIP3   OH222488   3.277   6.347   2.293  0.3954  0.5285 -0.0823
  358TIP3    H122489   3.209   6.370   2.358 -0.1701  1.3403 -0.9418
  358TIP3    H222490   3.291   6.427   2.243  1.0919  0.0124 -0.7377
  359TIP3   OH222491   0.483   1.374  14.730  0.5953  0.2288  0.2513
  359TIP3    H122492   0.521   1.332  14.653  0.9819  0.4854  0.2967
  359TIP3    H222493   0.470   1.465  14.704 -1.8115 -0.2390 -0.4180
  360TIP3   OH222494   1.602   0.459   2.239 -0.3408  0.2865 -0.6187
  360TIP3    H122495   1.597   0.368   2.210 -1.7213 -0.0074  0.4448
  360TIP3    H222496   1.527   0.501   2.198 -0.6695  0.5340  0.2104
  361TIP3   OH222497   1.249   4.489  10.583  0.2006  0.5738  0.1691
  361TIP3    H122498   1.335   4.531  10.587  0.0577  0.8103  0.8268
  361TIP3    H222499   1.229   4.465  10.674 -0.2443  0.1398 -0.0351
  362TIP3   OH222500   4.574   4.964   5.685  0.7122  0.2400 -0.3847
  362TIP3    H122501   4.632   4.896   5.720  0.7575  0.4622 -0.0264
  362TIP3    H222502   4.576   4.950   5.590  0.3386 -0.5689 -0.2826
  363TIP3   OH222503   2.112   2.282  14.192  0.1882 -0.5267 -0.0398
  363TIP3    H122504   2.149   2.221  14.129  1.0147  0.3612 -0.4449
  363TIP3    H222505   2.187   2.332  14.224 -0.4173  0.0296  0.5452
  364TIP3   OH222506   5.210   5.563  11.759 -0.2766  0.3097  0.0649
  364TIP3    H122507   5.245   5.541  11.673 -2.3624  0.4555 -0.8776
  364TIP3    H222508   5.124   5.521  11.762 -0.5411  0.8666  1.8271
  365TIP3   OH222509   0.521   3.287  13.661  0.4542  0.0058  0.4641
  365TIP3    H122510   0.428   3.291  13.640  0.7234 -0.6091 -0.9184
  365TIP3    H222511   0.552   3.377  13.653  0.3324 -0.0549 -0.8491
  366TIP3   OH222512   3.123   3.657  12.068  0.2207 -0.2188 -0.1105
  366TIP3    H122513   3.094   3.715  11.998  0.4620 -1.1472 -1.0003
  366TIP3    H222514   3.204   3.618  12.035  0.2859 -0.7528  0.6391
  367TIP3   OH222515   4.378   1.040  16.843  0.8611  0.2765  0.7322
  367TIP3    H122516   4.346   1.031  16.753  1.9591  1.9317  0.1296
  367TIP3    H222517   4.326   1.110  16.881 -1.6643 -2.3033  2.4805
  368TIP3   OH222518   2.052   5.241  13.690  0.4273  0.0235 -0.5792
  368TIP3    H122519   2.066   5.336  13.692  0.1285  0.0644  0.5465
  368TIP3    H222520   2.073   5.212  13.779  1.3041 -1.0951 -1.1361
  369TIP3   OH222521   5.657   3.433   0.903  0.1960  0.0406  0.6243
  369TIP3    H122522   5.678   3.362   0.963  3.0194  1.3844  1.4314
  369TIP3    H222523   5.619   3.501   0.959  0.5092  0.3683  0.4418
  370TIP3   OH222524   0.840   6.469  17.081  0.2141  0.5304  0.3903
  370TIP3    H122525   0.788   6.486  17.002 -1.4288  0.9789  1.5051
  370TIP3    H222526   0.882   6.384  17.064 -0.0340  0.6616 -0.9847
  371TIP3   OH222527   2.424   0.736  11.156 -0.4431 -0.0901  0.3498
  371TIP3    H122528   2.436   0.685  11.236 -2.4522  0.4419  1.0549
  371TIP3    H222529   2.480   0.813  11.168 -0.5572 -0.1276  1.1460
  372TIP3   OH222530   1.014   0.586  15.653  0.4141  0.1328 -0.1753
  372TIP3    H122531   1.017   0.490  15.654 -0.6549  0.0286 -2.2048
  372TIP3    H222532   1.101   0.612  15.623  0.1664 -0.2960 -1.3170
  373TIP3   OH222533   5.884   2.604   2.659 -0.1225 -0.4238 -0.1882
  373TIP3    H122534   5.972   2.598   2.697  0.0280 -1.3673 -0.6779
  373TIP3    H222535   5.898   2.598   2.565 -0.4648  2.2457 -0.4962
  374TIP3   OH222536   5.785   5.396  16.942  0.6134  0.2437 -0.0866
  374TIP3    H122537   5.817   5.468  16.888 -0.0556  0.5415 -0.1042
  374TIP3    H222538   5.849   5.388  17.013  0.6418  0.9346 -0.0258
  375TIP3   OH222539   0.690   6.643  10.627  0.4900 -0.5200  0.2228
  375TIP3    H122540   0.702   6.730  10.665 -0.8382 -0.2791  0.1525
  375TIP3    H222541   0.776   6.603  10.631  1.2554  0.9814 -0.1956
  376TIP3   OH222542   2.945   2.474   3.047 -0.4565 -0.4376  0.4947
  376TIP3    H122543   2.939   2.439   2.958  0.8138  0.1640  0.1460
  376TIP3    H222544   2.863   2.446   3.089 -1.0650 -0.7757 -0.8375
  377TIP3   OH222545   4.568   6.519   1.182  0.1534  0.2073  0.6052
  377TIP3    H122546   4.621   6.452   1.224 -0.3177  0.1955  1.1883
  377TIP3    H222547   4.532   6.571   1.254 -1.9467 -0.7593  0.3446
  378TIP3   OH222548   3.316   3.840   2.230 -0.2442  0.3001 -0.8606
  378TIP3    H122549   3.411   3.853   2.237 -0.4591  1.5144  0.2516
  378TIP3    H222550   3.282   3.873   2.313 -1.4739 -2.0620 -0.3465
  379TIP3   OH222551   1.241   2.183  13.641 -0.4861 -0.3038 -0.1492
  379TIP3    H122552   1.259   2.134  13.722  0.3515 -0.0115 -0.1448
  379TIP3    H222553   1.280   2.129  13.572 -3.3282 -1.8260 -0.7228
  380TIP3   OH222554   2.065   1.491  16.152  0.1188 -0.5067  0.8964
  380TIP3    H122555   2.060   1.484  16.057 -2.6057 -1.8845  1.0410
  380TIP3    H222556   2.003   1.426  16.184  0.9613 -0.0869  3.6500
  381TIP3   OH222557   0.540   3.774   1.294  0.0054 -0.7120 -0.0850
  381TIP3    H122558   0.527   3.837   1.365 -0.1774  0.0215 -0.7473
  381TIP3    H222559   0.634   3.756   1.294  0.4928  1.4381 -1.3915
  382TIP3   OH222560   2.660   2.142   6.044  0.1808 -0.2390  0.2492
  382TIP3    H122561   2.641   2.234   6.031  1.7132  0.0805  0.0499
  382TIP3    H222562   2.656   2.129   6.138 -0.8852 -0.1808  0.2187
  383TIP3   OH222563   2.625   2.387  15.802  0.2337  0.1577 -0.1861
  383TIP3    H122564   2.713   2.406  15.834  0.4161  0.3950 -0.8033
  383TIP3    H222565   2.595   2.469  15.763  1.0389 -0.7100 -2.8810
  384TIP3   OH222566   2.188   0.286   3.722 -0.0409  0.0152  0.4539
  384TIP3    H122567   2.146   0.204   3.697  1.0318 -0.3975 -0.0748
  384TIP3    H222568   2.204   0.331   3.639 -1.6851  1.3328  0.8008
  385TIP3   OH222569   1.936   5.613   3.350 -0.3067 -0.1152 -0.3659
  385TIP3    H122570   1.906   5.524   3.333 -1.1854  0.1802 -0.4099
  385TIP3    H222571   2.013   5.623   3.295 -1.4617 -0.1265 -2.0502
  386TIP3   OH222572   3.828   0.745   1.564  0.4917 -0.7916 -0.7836
  386TIP3    H122573   3.875   0.755   1.647  1.5619  0.1137 -1.4745
  386TIP3    H222574   3.739   0.722   1.590  0.4629  0.7511  0.6724
  387TIP3   OH222575   1.120   0.351   1.567  0.0251 -0.2800 -0.2655
  387TIP3    H122576   1.111   0.256   1.578  0.3524 -0.4218 -1.1636
  387TIP3    H222577   1.192   0.361   1.505  0.8232  0.6005  0.7512
  388TIP3   OH222578   6.005   6.487   6.522 -0.6343 -0.2788 -0.5162
  388TIP3    H122579   5.970   6.507   6.435 -1.2049  2.7512  0.2862
  388TIP3    H222580   6.098   6.473   6.508 -0.7526 -0.0580 -1.6480
  389TIP3   OH222581   5.543   2.007   5.179  0.4363  0.0765 -0.1716
  389TIP3    H122582   5.632   2.023   5.208  1.0103 -0.6066 -1.4395
  389TIP3    H222583   5.495   2.088   5.199  1.3955  0.5310  0.3123
  390TIP3   OH222584   4.402   2.532   4.729 -0.2660 -0.3229  0.3023
  390TIP3    H122585   4.454   2.607   4.758 -0.4953  0.7166 -1.7881
  390TIP3    H222586   4.325   2.571   4.688 -1.1463 -1.7644  0.5260
  391TIP3   OH222587   4.868   0.039   5.961  0.0647  0.1063 -0.3418
  391TIP3    H122588   4.868   0.127   5.999  1.5149 -0.6058  1.4156
  391TIP3    H222589   4.919   0.048   5.881 -0.8696  1.1060 -0.8566
  392TIP3   OH222590   2.609   4.941  11.291  0.4144  0.1428  0.0912
  392TIP3    H122591   2.688   4.986  11.262 -0.1567  0.2772 -1.3634
  392TIP3    H222592   2.582   4.889  11.215 -1.0770  0.3641  0.4290
  393TIP3   OH222593   6.082   1.514  11.297  0.0809 -0.0590 -0.6548
  393TIP3    H122594   6.107   1.606  11.288 -0.4433  0.1386 -0.1963
  393TIP3    H222595   6.070   1.484  11.207  1.0723  0.0794 -0.8465
  394TIP3   OH222596   3.575   6.201   4.308 -0.3588  0.7399 -0.6997
  394TIP3    H122597   3.543   6.248   4.385  1.8878  1.1703  0.0525
  394TIP3    H222598   3.586   6.111   4.339 -0.3034  0.7174 -0.7857
  395TIP3   OH222599   4.711   3.502   4.613 -0.3693 -0.1280  0.0528
  395TIP3    H122600   4.678   3.413   4.607  0.2035 -0.4873  1.6146
  395TIP3    H222601   4.663   3.551   4.546 -0.0992 -1.7603 -1.4075
  396TIP3   OH222602   1.047   1.119   2.030 -0.0856  0.0808  0.1969
  396TIP3    H122603   0.963   1.086   2.063 -1.0161  0.4091 -1.7252
  396TIP3    H222604   1.025   1.168   1.951  1.7736  1.4540  0.4587
  397TIP3   OH222605   3.749   5.271   3.701  0.4821  0.1664  0.1017
  397TIP3    H122606   3.778   5.205   3.765 -0.1437  0.5693  0.8129
  397TIP3    H222607   3.675   5.315   3.743  1.3422  1.8368 -0.0228
  398TIP3   OH222608   5.047   3.367   1.830  0.2137  0.0386  0.5505
  398TIP3    H122609   5.097   3.363   1.912  0.0641 -0.3070  0.6276
  398TIP3    H222610   5.114   3.374   1.762  0.3175  1.2325  0.7484
  399TIP3   OH222611   5.633   0.680  12.206  0.0216 -0.0301  0.1212
  399TIP3    H122612   5.600   0.737  12.276 -1.6910  1.9371 -2.1145
  399TIP3    H222613   5.679   0.740  12.147  0.6254 -1.4864 -0.9405
  400TIP3   OH222614   2.726   5.441   1.527 -0.4810 -0.6065 -0.4720
  400TIP3    H122615   2.694   5.468   1.613 -2.6588 -0.7097 -1.2124
  400TIP3    H222616   2.817   5.415   1.543 -0.2485  1.1517  1.4243
  401TIP3   OH222617   1.457   5.089   4.150  0.9905  0.1657 -0.5227
  401TIP3    H122618   1.448   5.183   4.135 -0.5926  0.3949  1.5134
  401TIP3    H222619   1.436   5.050   4.065 -0.7057  1.5856 -0.8226
  402TIP3   OH222620   0.810   5.812  14.188  0.1086 -0.3115 -0.2601
  402TIP3    H122621   0.782   5.812  14.279  1.7695 -0.6980  0.2813
  402TIP3    H222622   0.862   5.892  14.179 -0.7253  0.1560 -1.1094
  403TIP3   OH222623   4.041   1.046  17.131  0.0425 -0.5840  0.0378
  403TIP3    H122624   3.994   1.034  17.214 -0.0020 -0.3477  0.0499
  403TIP3    H222625   4.056   0.958  17.099 -0.7420 -0.6586 -0.1523
  404TIP3   OH222626   6.733   2.505  13.624  0.0970 -0.9984 -0.2430
  404TIP3    H122627   6.659   2.461  13.667 -1.1287  0.1743 -1.0817
  404TIP3    H222628   6.724   2.480  13.532  0.2174 -0.1343 -0.4920
  405TIP3   OH222629   4.542   5.002  13.033  0.6248  0.0566  0.4500
  405TIP3    H122630   4.624   4.967  13.068 -0.4567 -1.0107  2.0425
  405TIP3    H222631   4.558   5.096  13.022  3.1474 -0.5450 -2.5816
  406TIP3   OH222632   6.238   0.770   0.629  0.5578 -0.2620  0.0767
  406TIP3    H122633   6.185   0.781   0.550 -0.7834  1.7634  1.1980
  406TIP3    H222634   6.192   0.703   0.679 -0.8848  1.2988  0.9244
  407TIP3   OH222635   0.255   2.111   2.862 -0.1213 -0.7363 -0.2478
  407TIP3    H122636   0.222   2.072   2.781  0.4435 -1.9022  0.0596
  407TIP3    H222637   0.244   2.205   2.850 -0.0238 -0.8916 -1.6970
  408TIP3   OH222638   4.730   2.054  11.630 -0.0484  0.0468  0.1109
  408TIP3    H122639   4.681   2.050  11.548  0.7744  0.2591 -0.3958
  408TIP3    H222640   4.704   1.974  11.677 -1.1363  0.3192  0.0094
  409TIP3   OH222641   1.451   0.087   0.422  0.4358  0.7430  0.4775
  409TIP3    H122642   1.371   0.072   0.472  0.8838  1.0858  1.3147
  409TIP3    H222643   1.507   0.013   0.444 -0.9784 -1.6554 -3.0343
  410TIP3   OH222644   5.474   2.137   1.585  0.4763  0.0548 -0.2011
  410TIP3    H122645   5.517   2.219   1.608 -1.0099  0.5944  0.7872
  410TIP3    H222646   5.470   2.088   1.668 -0.1602 -0.2877 -0.4261
  411TIP3   OH222647   2.617   1.708   0.358  0.0619 -0.8588 -0.4753
  411TIP3    H122648   2.712   1.710   0.345  0.1366  0.6564  0.1072
  411TIP3    H222649   2.606   1.680   0.449  0.0615  0.8671  0.0917
  412TIP3   OH222650   2.152   2.364  16.302 -0.0483  0.1590  0.0118
  412TIP3    H122651   2.217   2.295  16.317 -0.4505  0.0967  1.7713
  412TIP3    H222652   2.139   2.365  16.208  2.5910  0.2684 -0.4209
  413TIP3   OH222653   5.497   5.756   3.658 -0.6060  0.5015 -0.2988
  413TIP3    H122654   5.447   5.769   3.738 -1.5913 -1.2650 -0.5712
  413TIP3    H222655   5.446   5.800   3.590 -1.8395 -1.1918 -0.5551
  414TIP3   OH222656   5.495   5.602   5.082  0.4328 -0.4130  0.1845
  414TIP3    H122657   5.509   5.534   5.147  0.3070  0.7103  1.4221
  414TIP3    H222658   5.428   5.566   5.023  0.5753 -1.4549  0.6503
  415TIP3   OH222659   0.544   3.647   1.943  0.6453  0.0594 -0.0476
  415TIP3    H122660   0.588   3.732   1.948 -0.1443  0.4269  2.6993
  415TIP3    H222661   0.461   3.666   1.899 -0.3098  1.1918  2.0682
  416TIP3   OH222662   5.559   3.758  13.737 -0.1257 -0.2362 -0.1814
  416TIP3    H122663   5.543   3.852  13.727  2.6514  0.2337 -1.3393
  416TIP3    H222664   5.559   3.724  13.647  4.7340 -0.0326 -0.5497
  417TIP3   OH222665   2.156   3.930  12.821 -0.1194  0.0957 -0.7240
  417TIP3    H122666   2.182   4.017  12.790  0.1067  0.1848 -0.2923
  417TIP3    H222667   2.145   3.879  12.741  1.9456 -0.1039 -0.9176
  418TIP3   OH222668   2.063   4.834   2.811  0.5067 -0.0714  0.0891
  418TIP3    H122669   2.159   4.835   2.816  0.5284 -0.2175 -0.2978
  418TIP3    H222670   2.035   4.865   2.897  0.9011 -0.0660  0.2196
  419TIP3   OH222671   0.294   3.931   1.368  0.3858  0.1334 -0.2274
  419TIP3    H122672   0.322   3.852   1.321 -1.2457 -1.0279  0.6359
  419TIP3    H222673   0.373   3.983   1.378  2.2144 -2.7765  1.7851
  420TIP3   OH222674   1.859   3.982  15.884  0.3851 -0.5608 -0.0830
  420TIP3    H122675   1.874   3.995  15.977  0.2755 -1.7274  0.1152
  420TIP3    H222676   1.945   3.995  15.844  0.2956  0.6373  0.0818
  421TIP3   OH222677   6.682   6.672   5.137  0.8932  0.7614 -0.1602
  421TIP3    H122678   6.608   6.727   5.164  1.0834  1.5910 -1.2205
  421TIP3    H222679   6.649   6.583   5.143 -0.1611  1.1126 -0.4926
  422TIP3   OH222680   4.629   1.938   2.028 -0.1024 -0.5818  0.5305
  422TIP3    H122681   4.656   1.924   1.937 -1.1376 -0.3022  0.1739
  422TIP3    H222682   4.637   2.032   2.041  0.9712 -0.7266  1.0446
  423TIP3   OH222683   6.518   5.539   1.504 -0.1307  0.3918  0.6401
  423TIP3    H122684   6.444   5.521   1.562 -0.2220  1.9801  1.0535
  423TIP3    H222685   6.520   5.634   1.496  1.1783  0.3137 -0.2831
  424TIP3   OH222686   4.490   5.776  10.666  0.3903  0.2563  0.1950
  424TIP3    H122687   4.509   5.719  10.592 -1.7546  1.6685 -1.5734
  424TIP3    H222688   4.540   5.856  10.648 -1.5106  1.2831 -0.7376
  425TIP3   OH222689   2.537   2.062   5.039 -0.4339  0.3420 -0.5552
  425TIP3    H122690   2.513   2.153   5.021  1.7951  1.2253  0.6186
  425TIP3    H222691   2.621   2.050   4.994  0.0335 -0.6679  0.5467
  426TIP3   OH222692   1.140   0.091   5.783  0.0114 -0.2233  0.3614
  426TIP3    H122693   1.131   0.155   5.713  1.7086  0.7921  1.0352
  426TIP3    H222694   1.222   0.112   5.826  1.2830 -3.5486 -0.0926
  427TIP3   OH222695   1.743   1.054  16.481  0.2010 -0.1958 -0.3147
  427TIP3    H122696   1.655   1.089  16.469 -0.4371 -1.4934  0.4062
  427TIP3    H222697   1.781   1.054  16.393 -1.0568 -0.9901 -0.8918
  428TIP3   OH222698   2.960   3.136  14.789 -0.1138 -0.3563 -0.0122
  428TIP3    H122699   2.890   3.092  14.837  0.5056 -0.3024  0.9603
  428TIP3    H222700   3.009   3.184  14.856  0.5829 -0.0244 -0.7398
  429TIP3   OH222701   4.394   0.354  15.360  0.8521 -0.1521 -1.0279
  429TIP3    H122702   4.323   0.417  15.346 -0.2430 -0.8559  1.0103
  429TIP3    H222703   4.367   0.277  15.310  1.4038  0.3758 -2.1964
  430TIP3   OH222704   1.164   3.602  15.211  0.4390 -0.6698 -0.0955
  430TIP3    H122705   1.182   3.509  15.222 -1.0790 -1.3173 -2.3037
  430TIP3    H222706   1.130   3.609  15.121 -2.1065  1.5515  0.9078
  431TIP3   OH222707   0.512   3.933  11.717  0.4686 -0.1771  0.0905
  431TIP3    H122708   0.539   3.841  11.716 -0.4053 -0.5827 -3.7741
  431TIP3    H222709   0.450   3.939  11.789 -0.6711 -3.1054 -0.4719
  432TIP3   OH222710   5.756   0.461  15.281  0.1643  0.0383  0.5348
  432TIP3    H122711   5.683   0.475  15.220 -0.6803  0.8936  1.7043
  432TIP3    H222712   5.790   0.549  15.299  1.1384 -0.3046  0.4477
  433TIP3   OH222713   2.680   1.656  12.735 -0.1858 -0.1505 -0.5596
  433TIP3    H122714   2.639   1.717  12.796 -0.4271 -1.5241  0.7348
  433TIP3    H222715   2.681   1.573  12.783 -0.9089 -1.4347 -2.6505
  434TIP3   OH222716   1.224   2.059  12.357  0.0094  0.1599  0.1245
  434TIP3    H122717   1.227   1.986  12.419 -0.6295 -0.2796 -0.3454
  434TIP3    H222718   1.297   2.115  12.382  0.0169 -0.2252  1.0049
  435TIP3   OH222719   0.744   1.719   5.235  0.2702 -0.2431 -0.2721
  435TIP3    H122720   0.717   1.801   5.194  0.7450 -0.0604 -0.2279
  435TIP3    H222721   0.830   1.700   5.198 -0.2756 -1.2819 -1.0774
  436TIP3   OH222722   3.557   3.130  11.059 -0.6967 -1.0729 -0.1048
  436TIP3    H122723   3.650   3.118  11.042 -0.3147 -0.3792  1.3151
  436TIP3    H222724   3.524   3.177  10.983  0.3963 -0.1913 -0.0543
  437TIP3   OH222725   2.819   5.767  12.793 -0.0910  0.4766  0.1472
  437TIP3    H122726   2.828   5.839  12.732  1.6146  1.6618  1.6892
  437TIP3    H222727   2.830   5.688  12.740  0.2694  1.4146 -1.2070
  438TIP3   OH222728   5.903   0.597   5.679 -0.3986  0.0683  0.7960
  438TIP3    H122729   5.936   0.525   5.625 -0.3517  0.3843  0.3943
  438TIP3    H222730   5.809   0.578   5.688 -0.8771  1.1565 -1.2744
  439TIP3   OH222731   1.222   2.502   0.050  0.3537 -0.1118  0.2658
  439TIP3    H122732   1.185   2.535  -0.032  1.1030 -0.0700 -0.0648
  439TIP3    H222733   1.146   2.486   0.106 -0.3451 -1.9065 -1.0816
  440TIP3   OH222734   0.653   4.305  16.672  0.6030  0.2820  0.2511
  440TIP3    H122735   0.700   4.363  16.731 -0.6766 -1.2383  2.9444
  440TIP3    H222736   0.703   4.307  16.591  1.4865  3.8363  0.7315
  441TIP3   OH222737   1.991   0.062  12.455 -0.0514  0.3003 -0.9331
  441TIP3    H122738   1.987   0.145  12.408  1.6315  1.3958  0.7365
  441TIP3    H222739   2.037   0.082  12.536  1.9427 -2.5651 -1.1894
  442TIP3   OH222740   5.401   3.877  13.137  0.1720  0.0316  0.1882
  442TIP3    H122741   5.416   3.900  13.228  0.4802  1.4421 -0.1943
  442TIP3    H222742   5.485   3.894  13.094 -0.2054  0.1770 -0.5049
  443TIP3   OH222743   4.388   4.045  13.589 -0.8530  0.5583 -0.2255
  443TIP3    H122744   4.339   4.027  13.669  0.5764 -1.2656  0.3038
  443TIP3    H222745   4.354   3.983  13.525  0.1285 -0.1389 -0.0944
  444TIP3   OH222746   2.552   5.483   5.735 -0.8860  0.2428 -0.7783
  444TIP3    H122747   2.525   5.513   5.822  1.4334  0.3092 -0.0379
  444TIP3    H222748   2.567   5.563   5.685 -1.0804  0.2142 -0.8853
  445TIP3   OH222749   6.347   0.822  15.221  0.4209 -0.3128 -0.2014
  445TIP3    H122750   6.308   0.779  15.297  2.2354 -0.5893  0.6208
  445TIP3    H222751   6.440   0.801  15.227  0.7629  0.5912 -1.8981
  446TIP3   OH222752   6.618   3.157  14.930 -0.6553  0.1211  0.1092
  446TIP3    H122753   6.557   3.100  14.882 -0.7179  0.6996 -0.5150
  446TIP3    H222754   6.630   3.233  14.872  0.0669  0.3614  0.5671
  447TIP3   OH222755   1.097   3.431   6.886 -0.1547  0.3878 -0.1856
  447TIP3    H122756   1.069   3.510   6.840 -2.1441  0.0374  0.3317
  447TIP3    H222757   1.177   3.457   6.931 -0.8849  2.2051  0.1587
  448TIP3   OH222758   0.056   4.519  16.911 -0.0928  0.4015 -0.2251
  448TIP3    H122759   0.033   4.524  17.003  0.8842 -2.0950  0.2545
  448TIP3    H222760  -0.009   4.460  16.873  0.8471 -0.4631 -0.5635
  449TIP3   OH222761   5.823   3.211  11.870  0.0775  0.0785  0.0896
  449TIP3    H122762   5.777   3.294  11.884 -0.4316 -0.1835 -0.0018
  449TIP3    H222763   5.907   3.222  11.914  0.9548  1.4557 -1.7958
  450TIP3   OH222764   6.705   6.123  15.122 -0.1157 -0.4154  0.0230
  450TIP3    H122765   6.704   6.038  15.078  0.1951  0.1509 -1.0963
  450TIP3    H222766   6.798   6.144  15.131 -0.1175 -0.9970  1.9451
  451TIP3   OH222767   0.048   0.176   2.299  0.3377  0.2157  0.5894
  451TIP3    H122768   0.133   0.185   2.256  0.2379 -0.5244  0.2392
  451TIP3    H222769   0.068   0.145   2.388  0.3716 -1.1548  0.1192
  452TIP3   OH222770   2.261   4.872   5.947  0.0725  0.3577  0.1079
  452TIP3    H122771   2.175   4.831   5.938  0.2305 -0.4066  1.8175
  452TIP3    H222772   2.242   4.959   5.983 -0.0017  0.2457  0.3427
  453TIP3   OH222773   5.368   3.103  16.936  0.1514  0.2348  0.2466
  453TIP3    H122774   5.402   3.181  16.980 -0.1388 -0.1164  1.1175
  453TIP3    H222775   5.441   3.042  16.934 -0.3089 -0.4354  1.9165
  454TIP3   OH222776   5.614   3.133   0.359  0.0224  0.2046  0.3112
  454TIP3    H122777   5.569   3.147   0.275 -0.4514  0.1341  0.5494
  454TIP3    H222778   5.704   3.160   0.342  0.4846 -1.8266 -0.8441
  455TIP3   OH222779   2.727   5.671   0.812  0.0395  0.3208 -0.1615
  455TIP3    H122780   2.709   5.611   0.739 -0.5373  1.2453 -0.7997
  455TIP3    H222781   2.815   5.704   0.795 -0.1292  0.6043 -0.4949
  456TIP3   OH222782   0.857   1.306  12.524 -0.0479  0.3702 -0.1535
  456TIP3    H122783   0.867   1.341  12.435 -0.1367  0.8309  0.0145
  456TIP3    H222784   0.787   1.241  12.517  1.5505 -1.3772 -0.9202
  457TIP3   OH222785   4.738   5.182  11.786 -1.0046  0.0846 -0.8793
  457TIP3    H122786   4.705   5.114  11.845  0.6014 -0.5997 -0.7122
  457TIP3    H222787   4.812   5.141  11.741 -0.5109  1.4537 -1.3762
  458TIP3   OH222788   1.670   4.251  13.511 -0.0953  0.2949  0.3664
  458TIP3    H122789   1.758   4.256  13.474 -0.2531 -0.8448 -0.2191
  458TIP3    H222790   1.679   4.286  13.599  0.4963  2.1778 -0.3839
  459TIP3   OH222791   0.152   0.364   5.622 -0.1199  0.3372  0.9012
  459TIP3    H122792   0.161   0.424   5.548  2.0526 -0.3341  0.5292
  459TIP3    H222793   0.150   0.277   5.582 -1.6151  0.0633  1.5176
  460TIP3   OH222794   5.109   3.118  16.782 -0.1613  0.0586 -0.1972
  460TIP3    H122795   5.047   3.055  16.819  0.4184 -0.9394 -0.8723
  460TIP3    H222796   5.193   3.094  16.822 -0.2133  1.5514  0.8956
  461TIP3   OH222797   6.296   2.561   3.009 -0.1119  0.6965 -0.2528
  461TIP3    H122798   6.339   2.484   3.047 -0.4622 -0.8736 -2.7823
  461TIP3    H222799   6.230   2.585   3.073  0.2211 -0.9165  0.7746
  462TIP3   OH222800   3.284   5.786   1.312 -0.2023  0.2945 -0.0076
  462TIP3    H122801   3.335   5.861   1.282  1.7255 -0.6853  0.6266
  462TIP3    H222802   3.229   5.820   1.383  1.7104  0.8743  1.2768
  463TIP3   OH222803   3.806   3.784  14.442  0.5627 -0.2313 -0.0521
  463TIP3    H122804   3.764   3.829  14.369 -0.6852 -1.6138 -0.2317
  463TIP3    H222805   3.831   3.699  14.407  2.4827  0.0829  0.4044
  464TIP3   OH222806   4.042   5.391  14.853 -0.5032 -0.4893  0.0084
  464TIP3    H122807   3.962   5.346  14.824 -0.8461 -0.7387  1.2687
  464TIP3    H222808   4.102   5.320  14.877 -0.1558 -0.2965 -0.2896
  465TIP3   OH222809   2.857   2.070  14.666 -0.6411  0.6993 -0.5755
  465TIP3    H122810   2.804   2.140  14.706 -1.0685  0.7199 -1.1536
  465TIP3    H222811   2.893   2.110  14.587  1.1199  1.0118  0.3397
  466TIP3   OH222812   2.862   0.150  14.760  0.1322  0.4843 -0.1365
  466TIP3    H122813   2.835   0.165  14.851 -0.2276  0.5295 -0.2494
  466TIP3    H222814   2.898   0.234  14.731  0.9056  0.2690  0.1900
  467TIP3   OH222815   3.121   4.326  12.427 -0.1175 -0.4733 -0.0836
  467TIP3    H122816   3.091   4.236  12.442 -0.2628 -0.3902  0.1319
  467TIP3    H222817   3.147   4.358  12.514  1.6989 -0.9221 -0.4269
  468TIP3   OH222818   2.263   0.568   5.764 -0.2081  0.3312 -0.1878
  468TIP3    H122819   2.199   0.497   5.773  1.3511 -1.2204 -0.7599
  468TIP3    H222820   2.297   0.581   5.852  1.5569 -1.7212 -0.4790
  469TIP3   OH222821   2.201   0.813   1.573  0.5061  0.4736 -0.7563
  469TIP3    H122822   2.199   0.762   1.655 -0.2952  1.2604 -0.2746
  469TIP3    H222823   2.288   0.794   1.536  1.4968  1.2453  1.0187
  470TIP3   OH222824   5.132   5.395  11.105  1.0962 -0.1293  0.1162
  470TIP3    H122825   5.151   5.476  11.057  0.9222 -0.4742 -0.5416
  470TIP3    H222826   5.041   5.376  11.085  1.1189 -0.4592  0.3248
  471TIP3   OH222827   1.135   6.634   5.538  0.1435  0.0084 -0.0968
  471TIP3    H122828   1.202   6.701   5.528  0.6837 -0.4149  0.5478
  471TIP3    H222829   1.143   6.579   5.460  0.1874  0.2711 -0.2770
  472TIP3   OH222830   5.680   3.583   0.417  0.1381  0.0823  0.5697
  472TIP3    H122831   5.591   3.550   0.410  0.1058  0.4240 -1.3455
  472TIP3    H222832   5.712   3.550   0.501 -1.7658 -0.0614  1.2812
  473TIP3   OH222833   0.378   2.638  11.214 -0.7662  0.0127  0.0597
  473TIP3    H122834   0.386   2.589  11.296  2.8825  3.1574  1.9346
  473TIP3    H222835   0.407   2.577  11.146 -0.9933 -1.8158  1.5364
  474TIP3   OH222836   0.853   0.721   2.594 -0.1944  0.9392  0.0484
  474TIP3    H122837   0.856   0.678   2.509 -1.1732  0.4580  0.2423
  474TIP3    H222838   0.944   0.722   2.623 -0.2048 -2.0432  0.5276
  475TIP3   OH222839   1.089   6.282  15.898 -0.4161  0.1292 -0.6053
  475TIP3    H122840   1.040   6.362  15.918 -0.9816 -0.0329 -1.3054
  475TIP3    H222841   1.143   6.305  15.824  0.9757  0.4526  0.4705
  476TIP3   OH222842   2.112   3.646   0.272 -0.5791 -0.0704 -0.0180
  476TIP3    H122843   2.122   3.719   0.334 -0.9773 -0.5471  0.6134
  476TIP3    H222844   2.040   3.594   0.307 -1.7069  0.3731 -1.6148
  477TIP3   OH222845   1.590   3.466   3.683 -0.3660 -0.1456 -0.6378
  477TIP3    H122846   1.650   3.529   3.723  0.5434 -0.7939 -0.9508
  477TIP3    H222847   1.504   3.506   3.693 -0.0178  0.3164  0.7732
  478TIP3   OH222848   4.812   4.267  17.059 -0.7504  0.1022  0.1662
  478TIP3    H122849   4.814   4.255  16.964  0.0573 -1.3797  0.3499
  478TIP3    H222850   4.719   4.264  17.082 -0.8845 -0.6866 -0.4570
  479TIP3   OH222851   4.972   0.262   2.174  0.1381  0.5285 -0.3113
  479TIP3    H122852   4.897   0.316   2.147 -0.1728  0.1469 -0.2077
  479TIP3    H222853   5.037   0.325   2.206  0.3853  0.9776 -1.6204
  480TIP3   OH222854   1.131   0.010   0.759 -0.6893  0.6375  0.0631
  480TIP3    H122855   1.095   0.029   0.672  0.5195 -1.5228 -0.9777
  480TIP3    H222856   1.089  -0.071   0.786  1.7110 -0.8121 -0.2669
  481TIP3   OH222857   3.238   4.543   3.955 -0.4048  0.3791 -0.4155
  481TIP3    H122858   3.321   4.545   3.907  0.2767  3.2740  0.6370
  481TIP3    H222859   3.174   4.579   3.894 -1.0477 -2.2037 -1.3576
  482TIP3   OH222860   0.150   6.532  12.514  0.1375 -0.5743 -0.1764
  482TIP3    H122861   0.188   6.604  12.463  1.6851 -0.0627  1.5941
  482TIP3    H222862   0.057   6.536  12.495  0.5296  0.1468 -2.2343
  483TIP3   OH222863   2.633   5.219   3.998 -0.0021 -0.3327  0.4647
  483TIP3    H122864   2.672   5.228   4.084 -0.9127 -0.6752  0.9274
  483TIP3    H222865   2.692   5.160   3.950  0.2937 -0.4655  0.9874
  484TIP3   OH222866   6.598   5.329   3.152 -0.9191 -0.3421 -0.0296
  484TIP3    H122867   6.586   5.328   3.057  0.0320 -1.8090 -0.1675
  484TIP3    H222868   6.666   5.394   3.167  1.2432 -2.3181 -0.7261
  485TIP3   OH222869   2.448   4.270  16.905 -0.1779 -0.1828  0.0852
  485TIP3    H122870   2.405   4.354  16.918 -1.8890 -0.7080 -1.7025
  485TIP3    H222871   2.479   4.245  16.992 -1.7875  1.1626  1.0983
  486TIP3   OH222872   5.929   5.734   3.778  0.0822 -0.2252  0.2022
  486TIP3    H122873   5.883   5.711   3.697  1.3760 -2.9350  0.1241
  486TIP3    H222874   6.022   5.722   3.756  0.4798 -0.5868  1.9752
  487TIP3   OH222875   3.198   4.991   6.357  0.1079  0.2309 -0.1325
  487TIP3    H122876   3.183   5.061   6.420  0.3276  2.1393 -2.0793
  487TIP3    H222877   3.253   4.928   6.403 -0.5575  1.0506  1.8668
  488TIP3   OH222878   0.830   4.002   2.262 -0.4775 -0.1032  0.5518
  488TIP3    H122879   0.782   4.051   2.328  1.2362  0.2864  1.5611
  488TIP3    H222880   0.922   4.025   2.276  0.0627 -0.9860 -1.1584
  489TIP3   OH222881   1.998   2.350  12.006 -0.2617  0.2337 -0.0382
  489TIP3    H122882   1.928   2.407  12.035 -1.3706 -1.8489  1.6469
  489TIP3    H222883   1.961   2.301  11.933 -0.4985 -0.6517  0.6579
  490TIP3   OH222884   1.508   4.631   4.590  0.2418 -0.4698  0.2783
  490TIP3    H122885   1.554   4.627   4.506 -0.2820 -1.0790  0.0167
  490TIP3    H222886   1.552   4.702   4.638  0.3977  0.0372 -0.5964
  491TIP3   OH222887   2.425   3.262  12.545  0.2648  0.4801  0.2436
  491TIP3    H122888   2.502   3.319  12.548 -0.0637  0.9291  0.1757
  491TIP3    H222889   2.401   3.250  12.637  1.2653 -0.8332  0.3648
  492TIP3   OH222890   0.151   3.300  13.561  0.5848  0.6368 -0.0499
  492TIP3    H122891   0.113   3.272  13.477 -1.3736  0.1406  0.9312
  492TIP3    H222892   0.093   3.261  13.627  1.7219  1.5162  1.5290
  493TIP3   OH222893   6.026   0.096   1.405  0.0134 -0.2283  0.3913
  493TIP3    H122894   5.998   0.160   1.470 -0.0314 -1.7015  1.8979
  493TIP3    H222895   6.095   0.140   1.355  0.2137  0.8779  1.6041
  494TIP3   OH222896   5.685   2.391   1.511 -0.7025 -0.1087 -0.6562
  494TIP3    H122897   5.768   2.347   1.490  0.2940  1.7342 -0.8479
  494TIP3    H222898   5.645   2.408   1.426 -0.7948 -0.1120 -0.6137
  495TIP3   OH222899   6.552   0.572  13.735 -0.3457  0.0660 -0.2224
  495TIP3    H122900   6.497   0.533  13.803 -0.8862  1.6504  0.3039
  495TIP3    H222901   6.600   0.498  13.698 -0.2855 -0.9082  1.6483
  496TIP3   OH222902   3.802   3.948  11.086 -0.6888 -0.3034  0.0205
  496TIP3    H122903   3.719   3.966  11.132 -1.0397 -1.0984 -0.2784
  496TIP3    H222904   3.853   4.028  11.096 -0.7452 -0.4333  1.8084
  497TIP3   OH222905   2.578   2.719  12.657  0.3548 -0.1292  0.2546
  497TIP3    H122906   2.651   2.658  12.666 -0.2491 -0.6846  1.5870
  497TIP3    H222907   2.609   2.798  12.702  0.6077  0.0846 -0.2817
  498TIP3   OH222908   2.319   4.953  13.607  0.2737  0.4491 -0.5477
  498TIP3    H122909   2.257   4.918  13.671 -0.9677 -1.0732 -2.4534
  498TIP3    H222910   2.297   5.045  13.600  0.3700  0.6328  1.0856
  499TIP3   OH222911   6.180   2.886   2.955  0.5448  0.1101  0.0594
  499TIP3    H122912   6.177   2.966   2.902 -0.5832  0.6146  0.8410
  499TIP3    H222913   6.174   2.918   3.045 -0.7297 -0.8950  0.3519
  500TIP3   OH222914   0.350   6.320  14.168 -0.4985  0.2160 -0.6714
  500TIP3    H122915   0.258   6.338  14.186 -0.2809  2.3238 -1.4531
  500TIP3    H222916   0.349   6.269  14.087 -0.9937 -0.6334 -0.1459
  501TIP3   OH222917   3.173   6.721   6.028  0.5445 -0.8196 -0.4254
  501TIP3    H122918   3.088   6.680   6.017 -0.3164  0.2634  1.5235
  501TIP3    H222919   3.226   6.656   6.074 -0.1938 -0.5139  0.9226
  502TIP3   OH222920   5.262   4.371   5.257 -0.3553 -0.4042  1.1651
  502TIP3    H122921   5.186   4.323   5.225 -0.5181  0.4555  0.2000
  502TIP3    H222922   5.258   4.362   5.352 -1.3403 -0.8437  1.0940
  503TIP3   OH222923   1.674   2.416  14.343 -0.2227  0.4163 -0.1013
  503TIP3    H122924   1.619   2.487  14.379 -1.0409 -0.4144  0.3277
  503TIP3    H222925   1.655   2.417  14.250 -0.4580  0.5690 -0.0552
  504TIP3   OH222926   2.396   3.596  12.177 -0.1246  0.2113  0.6772
  504TIP3    H122927   2.491   3.605  12.173 -0.2633  1.3141 -1.3010
  504TIP3    H222928   2.365   3.683  12.201 -0.6635 -0.0885  1.0874
  505TIP3   OH222929   1.040   1.226   0.107  0.4798  0.1448 -0.0896
  505TIP3    H122930   0.957   1.206   0.065  0.9413 -1.0950 -0.4774
  505TIP3    H222931   1.057   1.318   0.087 -0.9050  0.4726  0.2061
  506TIP3   OH222932   5.011   2.016   4.591 -0.0109 -0.2293 -0.1969
  506TIP3    H122933   5.082   1.963   4.629  0.3369  0.2705 -0.1301
  506TIP3    H222934   4.979   1.964   4.518  0.4710 -0.4388 -0.2674
  507TIP3   OH222935   3.433   0.046  13.685 -0.1673 -0.7640 -0.1196
  507TIP3    H122936   3.509   0.046  13.626 -0.4379  1.7386 -0.5657
  507TIP3    H222937   3.468   0.073  13.770 -0.2302 -1.7742  0.2461
  508TIP3   OH222938   1.289   2.715  16.077  0.2383 -0.6909 -0.0486
  508TIP3    H122939   1.244   2.797  16.099 -1.6781 -1.2427 -1.6142
  508TIP3    H222940   1.358   2.742  16.016  0.2075 -0.1337  0.1554
  509TIP3   OH222941   6.476   1.009   4.201 -0.0469 -0.4512 -0.1862
  509TIP3    H122942   6.564   0.982   4.228  0.5333 -0.1089 -1.6385
  509TIP3    H222943   6.468   1.099   4.232  0.8282  0.1325 -1.5287
  510TIP3   OH222944   4.245   5.383   1.360  0.6467  0.2701  0.3605
  510TIP3    H122945   4.234   5.417   1.449  1.8748  1.4406  0.0869
  510TIP3    H222946   4.339   5.383   1.344  0.3889  2.9426 -1.9711
  511TIP3   OH222947   6.115   5.916  13.718  0.5360  0.1362  0.3725
  511TIP3    H122948   6.030   5.886  13.685  0.7572 -0.4057  0.2848
  511TIP3    H222949   6.165   5.937  13.640 -0.0210  1.9073  0.4578
  512TIP3   OH222950   5.218   0.278   1.098 -0.4807  0.3410 -0.1479
  512TIP3    H122951   5.173   0.239   1.174 -2.0525 -0.9067 -1.6414
  512TIP3    H222952   5.261   0.355   1.134 -0.0431 -0.9261  2.2780
  513TIP3   OH222953   0.104   1.058  14.909  0.2055  0.4211  0.2759
  513TIP3    H122954   0.060   1.089  14.830  0.8294  0.9337  0.1213
  513TIP3    H222955   0.065   1.108  14.980 -1.0861 -0.7618  0.4423
  514TIP3   OH222956   2.023   6.073   2.101  0.1744 -0.5686 -0.4269
  514TIP3    H122957   1.941   6.036   2.133 -0.5616  3.2984  3.1005
  514TIP3    H222958   1.998   6.155   2.059  2.0507 -1.1417 -2.9232
  515TIP3   OH222959   1.012   2.650   3.072  0.5848  0.8098 -0.5160
  515TIP3    H122960   1.075   2.578   3.083  0.9752  1.4008  1.4621
  515TIP3    H222961   0.945   2.634   3.140  0.0352  1.6527 -0.8437
  516TIP3   OH222962   6.279   4.932  15.577 -0.8121 -0.3948  0.5955
  516TIP3    H122963   6.232   4.952  15.659 -1.1571  0.5233  0.1865
  516TIP3    H222964   6.317   5.016  15.551  1.1382 -1.1125  0.9354
  517TIP3   OH222965   4.100   3.148  10.603  0.1726 -0.3766  0.3712
  517TIP3    H122966   4.092   3.108  10.517  2.1970  1.1147 -0.5825
  517TIP3    H222967   4.193   3.142  10.624  0.3393  2.4220  0.8062
  518TIP3   OH222968   2.503   6.318  16.536  0.2146  0.0791  0.6327
  518TIP3    H122969   2.491   6.398  16.587  0.1692  1.3128 -1.2005
  518TIP3    H222970   2.414   6.289  16.516  0.2174 -0.8579  1.8621
  519TIP3   OH222971   3.297   1.631   0.812 -0.3360 -0.4342 -0.5505
  519TIP3    H122972   3.294   1.541   0.781  1.1606 -0.9660  0.6818
  519TIP3    H222973   3.247   1.629   0.894 -0.3295 -0.1611 -0.5406
  520TIP3   OH222974   0.120   3.705  16.131  0.1230  0.2380  0.1609
  520TIP3    H122975   0.068   3.675  16.205 -2.1095  1.2201 -0.9105
  520TIP3    H222976   0.083   3.658  16.055  0.8498  0.9177 -0.6338
  521TIP3   OH222977   5.868   2.871   2.879 -0.3793 -0.6917  0.7110
  521TIP3    H122978   5.871   2.829   2.793  0.1726  1.4986 -0.4165
  521TIP3    H222979   5.943   2.835   2.926  1.3159  0.4256 -0.9699
  522TIP3   OH222980   0.129   5.995  11.886 -0.2974 -0.2872  0.0618
  522TIP3    H122981   0.043   5.977  11.848 -0.2076 -0.3836 -0.0998
  522TIP3    H222982   0.171   5.909  11.892  0.0207 -0.1742 -0.4299
  523TIP3   OH222983   4.774   0.463  12.714  0.4539  0.2935  0.5082
  523TIP3    H122984   4.684   0.496  12.719  0.0544 -0.6148 -0.2651
  523TIP3    H222985   4.782   0.406  12.791  0.4522  0.5602  0.7078
  524TIP3   OH222986   6.634   4.118   4.126 -0.3289  0.0473  0.2132
  524TIP3    H122987   6.722   4.153   4.138 -0.7307  0.8518  0.9197
  524TIP3    H222988   6.577   4.176   4.178 -1.1788 -0.9074  0.3893
  525TIP3   OH222989   1.980   2.923   6.137  0.0775 -0.9027  0.1972
  525TIP3    H122990   1.963   2.842   6.185 -0.9177 -0.6196  0.3365
  525TIP3    H222991   1.906   2.932   6.077  1.1149 -1.0618 -1.1599
  526TIP3   OH222992   0.666   3.374   0.145  0.0379 -0.2899  0.2553
  526TIP3    H122993   0.697   3.295   0.189  0.5744  0.1831  0.7375
  526TIP3    H222994   0.597   3.343   0.085 -0.0304 -1.0626  0.7267
  527TIP3   OH222995   5.908   0.460   3.725 -0.4083  0.0546 -0.6560
  527TIP3    H122996   5.840   0.527   3.727 -0.9997 -0.5396 -0.7921
  527TIP3    H222997   5.964   0.484   3.651 -0.2558  0.7401 -0.3311
  528TIP3   OH222998   5.401   6.531   1.624  0.2230 -0.4023 -0.2513
  528TIP3    H122999   5.487   6.492   1.639  0.3370 -0.3237 -0.6901
  528TIP3    H223000   5.383   6.581   1.704  1.2319  0.7780 -0.7269
  529TIP3   OH223001   3.552   3.708   1.934  0.5687 -0.2835  0.1920
  529TIP3    H123002   3.622   3.761   1.970  0.4431  1.4530 -1.8807
  529TIP3    H223003   3.472   3.747   1.968  0.5382 -0.6072  0.4918
  530TIP3   OH223004   2.610   2.326   0.197  0.6470 -0.2264 -0.2161
  530TIP3    H123005   2.680   2.261   0.209  0.2288 -0.6701 -0.1421
  530TIP3    H223006   2.579   2.345   0.286  1.2332  0.6014 -0.1811
  531TIP3   OH223007   3.720   4.158  15.405 -0.1539  0.4899  0.2351
  531TIP3    H123008   3.752   4.178  15.493  0.3769 -1.0917  0.4299
  531TIP3    H223009   3.640   4.108  15.420  0.0890 -0.0303 -0.1691
  532TIP3   OH223010   6.208   5.154  14.032 -0.1971 -0.3413 -0.4502
  532TIP3    H123011   6.183   5.063  14.011  1.7779 -0.9150 -0.5555
  532TIP3    H223012   6.228   5.153  14.125 -0.6328  0.1228 -0.3467
  533TIP3   OH223013   4.767   5.726   3.726 -0.7095  0.4464 -0.1119
  533TIP3    H123014   4.722   5.786   3.665  0.0799  2.1579  0.9141
  533TIP3    H223015   4.783   5.780   3.804 -1.4116 -1.5806  1.5249
  534TIP3   OH223016   4.597   4.990   0.034 -0.1484 -0.2155 -0.8581
  534TIP3    H123017   4.664   5.034   0.087  0.7677 -1.3232 -1.0335
  534TIP3    H223018   4.535   4.955   0.098 -0.0723  0.0666 -0.6290
  535TIP3   OH223019   0.518   0.744   1.570 -0.0352  0.1495  0.0332
  535TIP3    H123020   0.577   0.706   1.635  0.7149  3.5140  1.5827
  535TIP3    H223021   0.431   0.718   1.598  0.4697 -2.5000 -0.5977
  536TIP3   OH223022   1.630   2.926  14.768 -0.0739  0.0085 -0.1394
  536TIP3    H123023   1.553   2.915  14.712  0.1196 -2.3930 -0.0503
  536TIP3    H223024   1.636   2.844  14.817  1.8645  0.6115  0.7509
  537TIP3   OH223025   5.717   0.056   5.734  0.0069 -0.3811 -0.2724
  537TIP3    H123026   5.775   0.130   5.753  1.1798 -1.4290  0.3472
  537TIP3    H223027   5.768  -0.000   5.676 -1.3949 -0.0584 -1.9133
  538TIP3   OH223028   1.981   5.273   2.042 -0.6245  0.4494 -0.1794
  538TIP3    H123029   2.071   5.253   2.018 -0.5017  1.9051 -1.0532
  538TIP3    H223030   1.929   5.205   1.999  0.0310 -0.4228  0.3643
  539TIP3   OH223031   0.929   0.909  15.184  0.3543  0.6916 -0.0808
  539TIP3    H123032   0.872   0.897  15.261  0.9101  1.3575  0.4508
  539TIP3    H223033   0.873   0.887  15.110 -0.0634 -0.4313  0.5346
  540TIP3   OH223034   4.300   6.105   0.094 -0.1503  0.0727  1.1572
  540TIP3    H123035   4.387   6.095   0.133  0.2390  0.7972  0.5106
  540TIP3    H223036   4.263   6.183   0.137 -0.3733 -0.0850  1.2500
  541TIP3   OH223037   3.598   4.332   6.125  0.7370  0.6515  0.3537
  541TIP3    H123038   3.654   4.320   6.202  0.8226 -0.6121  0.1183
  541TIP3    H223039   3.509   4.323   6.158  0.7148  1.2951  0.4912
  542TIP3   OH223040   2.306   3.698  15.783  0.7858  0.4917  0.0131
  542TIP3    H123041   2.257   3.747  15.717  0.9581 -0.9463 -1.2692
  542TIP3    H223042   2.365   3.643  15.731  0.3912 -1.2538  1.3268
  543TIP3   OH223043   3.339   1.285  13.972 -0.2306 -0.1980 -0.0991
  543TIP3    H123044   3.278   1.232  13.921 -0.1026  0.4960 -0.9988
  543TIP3    H223045   3.411   1.226  13.993  0.1996 -0.2408 -1.6110
  544TIP3   OH223046   2.910   4.476   0.388  0.0641 -0.4964  0.0254
  544TIP3    H123047   2.907   4.571   0.384  0.4868 -0.5085 -0.9227
  544TIP3    H223048   2.820   4.449   0.403 -0.7620 -0.0645 -3.4517
  545TIP3   OH223049   4.336   4.280  13.386  0.1964 -0.5481  0.3896
  545TIP3    H123050   4.397   4.340  13.343 -0.4250 -0.0124  0.2461
  545TIP3    H223051   4.340   4.304  13.479 -0.6291  0.2613  0.2354
  546TIP3   OH223052   2.908   1.463  13.025 -0.4487  0.1486  0.2004
  546TIP3    H123053   2.925   1.558  13.021 -1.8324  0.4566  0.9745
  546TIP3    H223054   2.944   1.429  12.944 -0.0731  1.3798 -0.1707
  547TIP3   OH223055   6.304   2.870  17.164 -0.4071  0.0600 -0.0174
  547TIP3    H123056   6.267   2.938  17.108  1.4121  1.1527  0.0131
  547TIP3    H223057   6.320   2.796  17.105 -1.1401  0.1481 -0.3374
  548TIP3   OH223058   4.151   0.724  16.655 -0.1375  0.5753  0.5235
  548TIP3    H123059   4.103   0.644  16.678  0.2392  0.6586  1.7123
  548TIP3    H223060   4.114   0.752  16.572  0.8306 -1.7497 -0.7821
  549TIP3   OH223061   1.046   0.533  15.307  0.0622 -0.1587 -0.1240
  549TIP3    H123062   0.990   0.456  15.316 -0.3523  0.0881 -0.5521
  549TIP3    H223063   0.992   0.606  15.337  0.7494 -0.1318  1.1243
  550TIP3   OH223064   0.556   3.622  11.917  0.1963 -0.0393  0.1445
  550TIP3    H123065   0.625   3.688  11.921  0.8674 -0.7779  1.2399
  550TIP3    H223066   0.603   3.539  11.917 -0.6869 -0.5566  1.1748
  551TIP3   OH223067   0.085   3.421  12.759 -0.1075 -0.0282 -0.0656
  551TIP3    H123068   0.097   3.331  12.728  0.5852  0.5007 -1.4171
  551TIP3    H223069   0.084   3.474  12.679 -2.4712  0.9956  0.5572
  552TIP3   OH223070   6.644   3.856  13.449  0.0255  0.5537 -0.2056
  552TIP3    H123071   6.576   3.885  13.388  1.7932  2.3608 -1.4266
  552TIP3    H223072   6.726   3.877  13.405  1.4296 -1.4511  1.2645
  553TIP3   OH223073   2.258   4.583   1.510  0.4329 -0.2081 -0.2456
  553TIP3    H123074   2.191   4.522   1.479 -1.1036  2.2452 -2.2723
  553TIP3    H223075   2.228   4.609   1.597  0.5726 -1.5276  0.2181
  554TIP3   OH223076   5.045   3.010   4.724  0.5618 -0.4646 -0.7852
  554TIP3    H123077   5.024   2.953   4.798  2.1941 -1.0587 -0.7272
  554TIP3    H223078   4.965   3.059   4.708  0.5398  0.7969  2.3482
  555TIP3   OH223079   2.534   0.298   5.106 -0.0329  0.3922  0.1445
  555TIP3    H123080   2.545   0.328   5.196 -0.2367 -0.7435  0.5651
  555TIP3    H223081   2.456   0.342   5.075 -0.5145  0.0596  0.8604
  556TIP3   OH223082   5.028   5.666  14.291 -0.3592  0.2745 -0.4690
  556TIP3    H123083   5.033   5.574  14.319  1.6389  0.3057 -0.6173
  556TIP3    H223084   4.940   5.693  14.316 -1.1617 -1.8071 -0.8086
  557TIP3   OH223085   0.909   5.571  13.779  0.2831  0.2697 -0.5270
  557TIP3    H123086   0.996   5.606  13.757  1.0187 -0.1549  1.4753
  557TIP3    H223087   0.874   5.633  13.842  0.0398 -0.6595  0.2693
  558TIP3   OH223088   5.032   3.332   1.014 -0.2762 -0.3523 -0.0931
  558TIP3    H123089   5.078   3.283   0.945 -0.1888 -1.5325  0.7849
  558TIP3    H223090   5.102   3.368   1.068 -0.3437  0.6576 -0.6412
  559TIP3   OH223091   2.955   5.929   6.473  0.9005 -0.2252  0.2024
  559TIP3    H123092   2.896   5.853   6.476  1.0932 -0.3759  0.2096
  559TIP3    H223093   3.043   5.891   6.473  0.9943 -0.0641 -1.5347
  560TIP3   OH223094   6.626   0.671   6.252  0.0047  0.2887  0.2046
  560TIP3    H123095   6.636   0.762   6.279 -1.0135  0.4749 -0.0170
  560TIP3    H223096   6.544   0.669   6.203  1.1001 -0.2854 -1.7630
  561TIP3   OH223097   0.073   3.771   5.554 -0.3330 -0.1814  0.3168
  561TIP3    H123098   0.127   3.842   5.589  1.4647 -0.8290 -0.9813
  561TIP3    H223099   0.021   3.812   5.485 -0.6547  0.2236  0.7957
  562TIP3   OH223100   6.066   3.372  11.753 -0.1399 -0.1896 -0.0497
  562TIP3    H123101   6.101   3.419  11.829 -2.1036 -0.2502  0.9540
  562TIP3    H223102   6.143   3.343  11.705  1.1487  0.8032  1.3374
  563TIP3   OH223103   5.798   3.639   2.294 -0.1853 -0.0938 -0.3582
  563TIP3    H123104   5.848   3.590   2.229 -1.7955  0.2006 -1.8727
  563TIP3    H223105   5.813   3.731   2.273  1.7754  0.1441  1.6767
  564TIP3   OH223106   0.122   6.348  11.313 -0.3289 -0.4363 -0.1363
  564TIP3    H123107   0.175   6.397  11.250  0.5437 -1.6838 -0.4021
  564TIP3    H223108   0.032   6.372  11.292  0.0799  2.3472  0.8142
  565TIP3   OH223109   3.388   4.291   1.069 -0.1242  0.4036  0.0367
  565TIP3    H123110   3.363   4.365   1.013  2.0099  0.5621 -0.8219
  565TIP3    H223111   3.383   4.215   1.012  1.7951  0.5297 -0.3914
  566TIP3   OH223112   0.242   2.822  13.502  0.3913  0.3246 -0.0116
  566TIP3    H123113   0.171   2.768  13.468 -0.6485  1.6764 -0.0596
  566TIP3    H223114   0.246   2.897  13.442  1.4049  0.5955  0.3755
  567TIP3   OH223115   3.896   4.728  14.523 -0.1830 -0.1495 -0.0414
  567TIP3    H123116   3.885   4.776  14.441  2.3564  0.2633 -0.2313
  567TIP3    H223117   3.947   4.787  14.578  0.2088 -1.3567  0.9349
  568TIP3   OH223118   5.166   0.518  16.340  0.0702  0.5547 -0.1342
  568TIP3    H123119   5.251   0.552  16.310  0.9162 -1.8903 -0.7244
  568TIP3    H223120   5.111   0.520  16.261  0.0541  0.7336 -0.1191
  569TIP3   OH223121   3.179   5.205   2.793 -0.5148  0.1468  0.0148
  569TIP3    H123122   3.220   5.177   2.711 -0.7385 -1.1299  0.3143
  569TIP3    H223123   3.246   5.259   2.835 -0.7706  1.6969 -1.4492
  570TIP3   OH223124   5.592   0.923   2.233 -0.1515 -0.0044  0.2655
  570TIP3    H123125   5.674   0.908   2.280 -0.3931  0.4957  0.8629
  570TIP3    H223126   5.599   0.868   2.155  1.5653  1.4990 -0.7056
  571TIP3   OH223127   5.529   2.073   3.142  0.2863 -0.2618  0.4219
  571TIP3    H123128   5.597   2.120   3.189  0.9806 -0.8388  0.0025
  571TIP3    H223129   5.449   2.091   3.192  0.4693  1.5546  0.1414
  572TIP3   OH223130   5.120   4.833  12.402 -0.0225  0.1265 -0.0952
  572TIP3    H123131   5.163   4.840  12.317  0.6758 -0.4297  0.2073
  572TIP3    H223132   5.122   4.922  12.437 -1.4945  0.6549 -1.2009
  573TIP3   OH223133   5.774   1.396  12.918 -0.5805  0.3848 -0.2345
  573TIP3    H123134   5.760   1.310  12.958  1.3111  0.6165  1.0810
  573TIP3    H223135   5.733   1.457  12.979 -0.6684  0.5108 -0.4209
  574TIP3   OH223136   1.092   2.703   3.372  0.1519 -0.4453  0.1855
  574TIP3    H123137   1.038   2.735   3.444  0.5952 -1.1274  0.8379
  574TIP3    H223138   1.092   2.774   3.308  0.4282  0.5150  1.2213
  575TIP3   OH223139   3.048   4.365   5.749 -0.1806 -0.0671 -0.4635
  575TIP3    H123140   3.046   4.385   5.655  1.0820  1.8750 -0.1344
  575TIP3    H223141   2.958   4.376   5.778 -1.0299 -2.7568 -1.7715
  576TIP3   OH223142   6.377   4.805  13.359  0.4632 -0.0812  0.6106
  576TIP3    H123143   6.469   4.779  13.365  0.7863  1.0791  0.9161
  576TIP3    H223144   6.333   4.756  13.428  0.7685 -0.9549  0.1987
  577TIP3   OH223145   1.729   6.751  16.058 -0.3427 -0.2227 -0.1500
  577TIP3    H123146   1.694   6.690  15.994  0.0335  0.7506 -1.3049
  577TIP3    H223147   1.816   6.717  16.078  0.0386  0.1572 -1.1183
  578TIP3   OH223148   6.677   4.584   6.288 -0.0827 -0.3998  0.2872
  578TIP3    H123149   6.693   4.518   6.356  0.8406 -1.1348 -0.6234
  578TIP3    H223150   6.583   4.601   6.294  0.2307  1.0232  3.0530
  579TIP3   OH223151   4.940   5.448  11.740  0.0382 -0.5299 -0.1877
  579TIP3    H123152   4.959   5.362  11.777  0.1674 -1.4452 -2.2733
  579TIP3    H223153   4.870   5.433  11.677  0.5490  0.7472 -1.1108
  580TIP3   OH223154   4.076   3.253   0.789 -0.0707  0.4944  0.3649
  580TIP3    H123155   4.128   3.328   0.818 -0.1945  0.1910  1.4017
  580TIP3    H223156   3.989   3.269   0.827  0.2718 -0.8756  1.7964
  581TIP3   OH223157   1.156   2.204   5.081  0.3455 -0.4108 -0.3187
  581TIP3    H123158   1.094   2.162   5.021 -2.0273  0.5383  1.3066
  581TIP3    H223159   1.198   2.131   5.127 -1.6449 -1.1482  0.4712
  582TIP3   OH223160   6.478   5.422  15.810  0.2219  0.6578 -0.4562
  582TIP3    H123161   6.474   5.517  15.806  0.1932  0.6302 -1.3437
  582TIP3    H223162   6.499   5.395  15.721  0.9164 -0.1367 -0.0663
  583TIP3   OH223163   3.524   0.211  10.348  0.2615 -0.1539 -0.4392
  583TIP3    H123164   3.439   0.179  10.317  0.4092 -1.0452  0.0625
  583TIP3    H223165   3.561   0.258  10.273 -0.1197 -0.8488 -1.0661
  584TIP3   OH223166   1.713   1.795   2.712  0.3882 -0.6110 -0.1691
  584TIP3    H123167   1.653   1.736   2.756 -0.3610 -0.6497 -1.2014
  584TIP3    H223168   1.660   1.836   2.643  1.1941  0.3735 -0.2302
  585TIP3   OH223169   3.167   4.589  11.577  0.2229 -0.9461 -0.4745
  585TIP3    H123170   3.099   4.577  11.510  0.3453  0.1269 -0.8160
  585TIP3    H223171   3.123   4.571  11.660 -1.1212  1.7850 -0.4870
  586TIP3   OH223172   6.481   3.752   3.386  0.5347  0.7518 -0.4007
  586TIP3    H123173   6.483   3.660   3.411 -0.2178  0.8113 -0.1225
  586TIP3    H223174   6.527   3.754   3.302 -1.3185 -0.2346 -1.5116
  587TIP3   OH223175   4.890   6.082   4.626  0.0803 -0.0186  0.2152
  587TIP3    H123176   4.825   6.070   4.694  0.1167 -1.1636  0.0667
  587TIP3    H223177   4.914   5.993   4.599  1.7475  0.3536  0.3103
  588TIP3   OH223178   6.800   3.704  15.233  0.2187  0.1614  0.1188
  588TIP3    H123179   6.821   3.787  15.191 -1.2840 -0.7569 -2.6467
  588TIP3    H223180   6.813   3.721  15.327  1.7259  2.9279 -0.4777
  589TIP3   OH223181   5.129   1.273  12.730 -0.7220 -0.0226 -0.4158
  589TIP3    H123182   5.172   1.250  12.648 -2.1169 -0.5401 -1.0378
  589TIP3    H223183   5.158   1.362  12.748 -1.3013  0.5675 -2.1254
  590TIP3   OH223184   4.892   3.994  13.357  0.1032 -0.2880 -0.2087
  590TIP3    H123185   4.968   4.022  13.307  1.1275 -1.3312  0.7093
  590TIP3    H223186   4.829   4.066  13.348  1.4368  0.8800 -0.4342
  591TIP3   OH223187   4.105   1.172   0.404  0.1209  0.2388 -0.3118
  591TIP3    H123188   4.036   1.136   0.460 -1.9409  2.4441 -1.2324
  591TIP3    H223189   4.153   1.232   0.461 -0.5727  0.8300 -0.3349
  592TIP3   OH223190   1.773   1.619  15.172  0.2528  0.1461  0.0307
  592TIP3    H123191   1.734   1.703  15.150 -1.9365 -0.9915 -0.6684
  592TIP3    H223192   1.797   1.627  15.265 -2.1145  0.7856  0.6545
  593TIP3   OH223193   0.116   6.476   4.411  0.6054  0.2085 -0.3722
  593TIP3    H123194   0.097   6.544   4.476 -0.2252  0.3502 -0.7435
  593TIP3    H223195   0.060   6.499   4.336  0.5695 -0.6881 -0.6316
  594TIP3   OH223196   3.573   3.953  11.243 -0.5846 -0.5278  0.3297
  594TIP3    H123197   3.555   4.037  11.286  0.5754 -0.5332  0.8500
  594TIP3    H223198   3.498   3.940  11.184 -0.9202  0.7296  0.4484
  595TIP3   OH223199   0.716   0.499  13.366  0.1703 -0.3165  0.6539
  595TIP3    H123200   0.754   0.462  13.446 -2.6527  0.0798  2.3255
  595TIP3    H223201   0.665   0.574  13.397  0.1406  0.7284 -1.7454
  596TIP3   OH223202   0.872   1.195   5.543 -0.3437  0.2477  0.2517
  596TIP3    H123203   0.799   1.193   5.481 -1.5804 -0.7444  1.6657
  596TIP3    H223204   0.941   1.145   5.500  0.0469  2.2121 -1.6448
  597TIP3   OH223205   4.261   5.729  15.336 -0.0893  0.2850 -0.1428
  597TIP3    H123206   4.186   5.782  15.309  0.1349  0.2025 -0.9771
  597TIP3    H223207   4.300   5.700  15.253  0.8873  0.3679  0.2749
  598TIP3   OH223208   0.895   3.800  14.975  0.4666  0.3801  0.6678
  598TIP3    H123209   0.979   3.762  14.950  0.3816 -0.0771  1.0751
  598TIP3    H223210   0.838   3.785  14.900  0.3971 -0.4172  0.8724
  599TIP3   OH223211   2.168   3.191  12.137 -0.3408 -0.1908  0.9979
  599TIP3    H123212   2.107   3.263  12.118 -0.9305 -0.9943 -0.2306
  599TIP3    H223213   2.186   3.152  12.052  0.5232 -1.0776  1.5746
  600TIP3   OH223214   5.964   1.320   1.829  0.1997 -0.3124  0.0127
  600TIP3    H123215   5.869   1.308   1.833  0.3354 -1.2349  3.5411
  600TIP3    H223216   5.997   1.236   1.798 -0.0862 -0.3578 -0.1765
  601TIP3   OH223217   2.652   1.307   3.674 -0.2480  0.3352  0.7192
  601TIP3    H123218   2.673   1.371   3.742  1.1240  1.7523 -0.9639
  601TIP3    H223219   2.736   1.285   3.634 -0.8363 -1.6424  0.4464
  602TIP3   OH223220   3.557   6.547  11.728  0.1966 -0.3976  0.0206
  602TIP3    H123221   3.635   6.600  11.743  1.1237 -1.5326 -0.5719
  602TIP3    H223222   3.587   6.457  11.738 -0.8139 -0.9019 -1.1466
  603TIP3   OH223223   6.439   2.395  11.275 -0.4050 -0.1445 -0.4298
  603TIP3    H123224   6.495   2.414  11.200 -0.3663  0.7327 -0.1976
  603TIP3    H223225   6.351   2.388  11.238 -0.5618  1.4635 -0.4356
  604TIP3   OH223226   0.368   5.020   3.175  0.0284  0.0844 -0.4409
  604TIP3    H123227   0.312   5.037   3.100 -0.4115 -2.5147 -0.8012
  604TIP3    H223228   0.443   4.972   3.139  0.6617  0.2930  0.5438
  605TIP3   OH223229   4.753   2.322  16.753 -0.0545 -0.2318  0.1020
  605TIP3    H123230   4.688   2.271  16.801  1.1008 -1.4279  0.4369
  605TIP3    H223231   4.831   2.320  16.808  0.0123  2.0041  0.1723
  606TIP3   OH223232   0.308   5.607  16.492  0.0895  0.8711 -0.2146
  606TIP3    H123233   0.325   5.669  16.422  1.0731  0.8338 -0.0177
  606TIP3    H223234   0.217   5.623  16.517  0.0348  1.5526 -0.8311
  607TIP3   OH223235   2.084   5.505   0.289 -0.4410 -0.5741  0.2613
  607TIP3    H123236   2.026   5.434   0.318  1.1519 -1.8623  0.4737
  607TIP3    H223237   2.149   5.461   0.234  0.0446  0.8987 -0.3846
  608TIP3   OH223238   2.125   3.801   2.650 -0.1115 -0.0568  0.3267
  608TIP3    H123239   2.058   3.865   2.626 -0.9638 -1.9316 -3.0108
  608TIP3    H223240   2.174   3.787   2.569  0.4879 -3.0651  1.0873
  609TIP3   OH223241   3.627   2.127   3.129  0.1793 -0.2268  0.1009
  609TIP3    H123242   3.595   2.083   3.050 -1.5892  1.0890  0.0475
  609TIP3    H223243   3.553   2.124   3.189  1.2618 -0.5282  1.4597
  610TIP3   OH223244   3.243   6.705  13.785 -0.5998  0.6369  0.3041
  610TIP3    H123245   3.315   6.755  13.747 -1.1800  0.3170 -1.3218
  610TIP3    H223246   3.264   6.614  13.765 -1.1647  0.4982  0.3179
  611TIP3   OH223247   0.366   0.225   2.624 -0.0934  0.2134  0.2918
  611TIP3    H123248   0.390   0.318   2.624  1.4161 -0.1480  0.2735
  611TIP3    H223249   0.441   0.181   2.664 -0.6887 -1.0354  0.0902
  612TIP3   OH223250   3.000   4.454  11.079 -0.5009  0.5271 -0.3221
  612TIP3    H123251   2.996   4.388  11.010 -1.5252  1.7464 -1.4763
  612TIP3    H223252   3.084   4.499  11.065 -1.8706  2.6214 -2.6377
  613TIP3   OH223253   4.843   4.243   1.610 -0.0837  0.0766 -0.0974
  613TIP3    H123254   4.879   4.187   1.679  0.8565 -2.0031 -2.1357
  613TIP3    H223255   4.902   4.231   1.536 -0.9924  2.2953 -1.2903
  614TIP3   OH223256   4.843   5.614   0.480  0.6136 -0.0982  0.5672
  614TIP3    H123257   4.806   5.526   0.487  1.0745 -0.1941  2.2818
  614TIP3    H223258   4.934   5.600   0.455  1.1623 -0.2731  2.4467
  615TIP3   OH223259   0.255   2.746   2.808  0.0420 -0.0926 -0.0296
  615TIP3    H123260   0.212   2.732   2.892 -0.7469 -0.8099 -0.5336
  615TIP3    H223261   0.228   2.833   2.781 -0.2252 -0.1133  0.1678
  616TIP3   OH223262   4.157   6.357  15.105 -0.2302  0.1875 -0.1615
  616TIP3    H123263   4.145   6.303  15.183  0.6006 -0.2147 -0.3019
  616TIP3    H223264   4.145   6.447  15.136  0.8451  0.0911  0.6090
  617TIP3   OH223265   0.046   0.205  12.899 -0.4088  0.5657 -0.6438
  617TIP3    H123266  -0.025   0.153  12.937  0.0764 -0.2372 -0.8072
  617TIP3    H223267   0.059   0.168  12.811 -0.8985  1.7976 -1.2687
  618TIP3   OH223268   5.972   3.716   0.628 -0.3928 -0.0149  0.6301
  618TIP3    H123269   5.922   3.635   0.637 -2.3046  1.2841  2.6942
  618TIP3    H223270   5.907   3.783   0.607  1.0885  1.0849 -0.7385
  619TIP3   OH223271   5.480   3.442  10.931  0.0486 -0.3485  0.6232
  619TIP3    H123272   5.567   3.427  10.968  0.7914  0.1053 -0.8455
  619TIP3    H223273   5.489   3.522  10.880 -1.7091  0.6879  1.8109
  620TIP3   OH223274   4.263   5.056   2.847 -0.3967 -0.1348  0.2432
  620TIP3    H123275   4.209   5.038   2.924 -0.8881  0.4885  0.0502
  620TIP3    H223276   4.352   5.032   2.875 -0.8759 -2.1628  0.2226
  621TIP3   OH223277   4.141   3.334   3.691  0.0128  0.2087 -0.1155
  621TIP3    H123278   4.156   3.242   3.715  1.2411  0.0244 -1.4241
  621TIP3    H223279   4.058   3.356   3.732 -0.0375 -1.3251  0.6950
  622TIP3   OH223280   3.065   5.224  15.225  0.0045 -0.2792  0.0009
  622TIP3    H123281   3.026   5.180  15.149 -0.6050 -0.6431  0.5187
  622TIP3    H223282   2.997   5.281  15.258  0.2488 -0.1697  0.3185
  623TIP3   OH223283   5.585   1.199  16.409 -0.4215 -0.7307 -0.2229
  623TIP3    H123284   5.678   1.224  16.406 -1.1313  3.7847  3.2853
  623TIP3    H223285   5.575   1.159  16.496 -1.8042 -1.0894 -0.5321
  624TIP3   OH223286   0.850   4.952  13.168 -0.3383 -0.0069  0.1438
  624TIP3    H123287   0.814   4.931  13.082 -1.1713  0.8876  0.2548
  624TIP3    H223288   0.863   5.047  13.165  1.4111 -0.2186  0.3459
  625TIP3   OH223289   4.258   6.240   3.082 -0.5377 -0.4201  0.3436
  625TIP3    H123290   4.349   6.262   3.065 -1.4579  1.7794 -2.4810
  625TIP3    H223291   4.248   6.151   3.051  0.6921 -0.8420  1.0798
  626TIP3   OH223292   3.284   5.666  14.904 -0.1322  0.3737  0.3818
  626TIP3    H123293   3.310   5.658  14.996  0.7050 -0.1003  0.1187
  626TIP3    H223294   3.199   5.709  14.907  0.6552  1.9780  1.3194
  627TIP3   OH223295   0.397   0.498   2.611  0.0608  0.3013 -0.6360
  627TIP3    H123296   0.395   0.484   2.516 -1.0657  1.0281 -0.7376
  627TIP3    H223297   0.396   0.593   2.622 -1.8467  0.2279  0.1089
  628TIP3   OH223298   4.878   2.253  17.055 -0.5572 -0.1091  0.4087
  628TIP3    H123299   4.951   2.194  17.069 -1.2885 -1.1045  0.1394
  628TIP3    H223300   4.803   2.209  17.095 -1.8690 -1.0981 -2.7568
  629TIP3   OH223301   6.320   4.813  15.254  0.4408  0.3280  0.8327
  629TIP3    H123302   6.411   4.800  15.281  0.3973  0.6164  1.1382
  629TIP3    H223303   6.325   4.877  15.183  0.5540 -0.4068  0.1647
  630TIP3   OH223304   3.877   0.247  14.930  0.1223  0.3104 -0.7997
  630TIP3    H123305   3.965   0.224  14.960 -0.0439 -1.7402 -1.7249
  630TIP3    H223306   3.836   0.289  15.006  2.0263  1.8160 -0.5104
  631TIP3   OH223307   1.062   1.973   0.916 -0.5338 -0.1840 -0.4063
  631TIP3    H123308   1.042   1.976   0.822  0.3691 -0.1288 -0.5983
  631TIP3    H223309   0.983   2.009   0.958 -0.2670  1.4380 -1.2276
  632TIP3   OH223310   1.031   4.799  16.451 -0.1039  0.3050 -0.0402
  632TIP3    H123311   1.086   4.824  16.525  0.7582  0.9292 -0.8786
  632TIP3    H223312   0.962   4.745  16.490 -0.3511  1.5949  1.3951
  633TIP3   OH223313   4.828   3.759  12.068  0.3788 -0.6391 -0.8057
  633TIP3    H123314   4.772   3.836  12.054 -2.6654 -3.0463 -3.4095
  633TIP3    H223315   4.810   3.732  12.158 -0.6890  0.0875 -0.7834
  634TIP3   OH223316   0.767   3.862   6.876 -0.8863 -0.2682 -0.1776
  634TIP3    H123317   0.801   3.866   6.787  0.3643 -1.7032  0.1962
  634TIP3    H223318   0.808   3.784   6.914 -1.7064  0.0841  1.5232
  635TIP3   OH223319   0.027   2.319  11.816  0.7522 -0.0563  0.4078
  635TIP3    H123320   0.005   2.411  11.806  2.0202  0.2596  0.3722
  635TIP3    H223321  -0.053   2.272  11.791 -0.1108  1.0321  1.0300
  636TIP3   OH223322   5.509   5.892  12.407 -0.3339  0.1222 -0.2405
  636TIP3    H123323   5.528   5.981  12.377  0.0475 -0.6094 -2.3312
  636TIP3    H223324   5.480   5.846  12.328  1.1974 -2.0606  0.3834
  637TIP3   OH223325   3.409   1.668  15.983 -0.2816 -0.3338  0.2627
  637TIP3    H123326   3.367   1.743  15.942  0.9641  0.1035 -0.2508
  637TIP3    H223327   3.478   1.706  16.037 -1.2780 -0.9563  2.0620
  638TIP3   OH223328   5.648   1.778  14.158 -0.1089  0.1700  0.0121
  638TIP3    H123329   5.606   1.830  14.089 -1.8926  0.3355  1.1672
  638TIP3    H223330   5.637   1.830  14.237  0.1931 -0.9041  0.7753
  639TIP3   OH223331   6.449   3.206  17.161 -0.5128 -0.2408 -0.2696
  639TIP3    H123332   6.398   3.254  17.226  1.5890 -0.9077  2.0137
  639TIP3    H223333   6.491   3.136  17.210  2.2380  0.0245 -2.0308
  640TIP3   OH223334   0.109   0.056  11.831 -0.2229 -0.7452 -0.0872
  640TIP3    H123335   0.091   0.046  11.737 -2.6029  0.3520  0.1670
  640TIP3    H223336   0.068  -0.021  11.871 -1.7962  0.2262  0.2501
  641TIP3   OH223337   2.589   4.552  11.699 -0.6716 -0.8098  0.3631
  641TIP3    H123338   2.678   4.551  11.733  0.0836 -3.5057 -1.4546
  641TIP3    H223339   2.598   4.555  11.604 -2.6408  1.8151  0.1340
  642TIP3   OH223340   1.745   4.963   4.494 -0.2154  0.0110  0.2888
  642TIP3    H123341   1.659   4.960   4.453  0.7235  0.1917 -1.8303
  642TIP3    H223342   1.729   4.936   4.584 -2.6694  1.2286  0.3165
  643TIP3   OH223343   0.755   1.841  10.419  0.0786  0.5439 -0.1109
  643TIP3    H123344   0.788   1.755  10.395 -1.9970 -0.3610  0.0060
  643TIP3    H223345   0.812   1.871  10.490 -0.1032 -1.4480  0.9255
  644TIP3   OH223346   1.586   1.895   1.708 -0.0574 -0.0459  0.3736
  644TIP3    H123347   1.516   1.922   1.767  0.1293  0.6200  0.3069
  644TIP3    H223348   1.596   1.969   1.648 -0.0975 -0.6208 -0.3604
  645TIP3   OH223349   0.211   3.950   2.959  0.0130 -0.7002  0.0430
  645TIP3    H123350   0.287   3.996   2.923  0.4712 -0.0223  1.7518
  645TIP3    H223351   0.242   3.915   3.042 -1.0900 -1.8687 -0.0148
  646TIP3   OH223352   0.601   5.822  10.539  0.7450 -0.4919 -0.4061
  646TIP3    H123353   0.626   5.742  10.585  1.2121 -0.0582  0.1305
  646TIP3    H223354   0.524   5.799  10.488  1.4448 -1.5296 -1.0211
  647TIP3   OH223355   5.998   5.515  11.341  0.0760 -0.0609 -0.0719
  647TIP3    H123356   5.995   5.609  11.362  3.2236  0.2873 -0.6685
  647TIP3    H223357   6.005   5.472  11.426 -0.3612  0.3191  0.1620
  648TIP3   OH223358   6.680   6.760  10.938  0.0501 -0.1674 -0.1203
  648TIP3    H123359   6.591   6.773  10.904 -0.0340  0.0219  0.1625
  648TIP3    H223360   6.728   6.838  10.910 -0.0246 -0.0015  0.2075
  649TIP3   OH223361   0.032   4.720   5.484  0.1627 -0.2859  0.4844
  649TIP3    H123362   0.120   4.701   5.516 -0.0153  0.4961  1.5122
  649TIP3    H223363   0.019   4.813   5.505  0.0481  0.3195 -1.9615
  650TIP3   OH223364   0.956   4.130   0.575  0.2875  0.0273  0.0440
  650TIP3    H123365   1.017   4.069   0.533 -0.6978 -1.6118  0.8867
  650TIP3    H223366   0.894   4.073   0.622 -1.3381  1.6484 -0.0351
  651TIP3   OH223367   4.981   3.167  15.420  0.4762 -0.2212 -0.7795
  651TIP3    H123368   4.947   3.105  15.355 -0.7921 -0.4998  0.1107
  651TIP3    H223369   5.015   3.240  15.369 -1.1922 -0.0777 -1.7549
  652TIP3   OH223370   6.176   6.235  14.910 -0.3182 -0.5706 -0.3706
  652TIP3    H123371   6.158   6.317  14.957 -1.1791 -0.9870  0.0542
  652TIP3    H223372   6.268   6.241  14.886  0.3691 -0.6187  1.9613
  653TIP3   OH223373   0.069   0.175  13.685 -0.9070 -0.1545 -0.5366
  653TIP3    H123374   0.158   0.200  13.661  0.1097  0.2797  3.0120
  653TIP3    H223375   0.061   0.083  13.660  0.7787 -0.3551 -0.4309
  654TIP3   OH223376   0.751   3.095  15.563  0.0072 -0.0145 -0.1547
  654TIP3    H123377   0.750   3.019  15.505  2.0641 -0.3077  0.1261
  654TIP3    H223378   0.688   3.156  15.524  0.1855 -0.8357 -1.7896
  655TIP3   OH223379   2.979   0.113  16.193  0.3162 -0.1406  0.3287
  655TIP3    H123380   2.943   0.048  16.252  0.0355 -1.1227 -0.8851
  655TIP3    H223381   3.067   0.082  16.174  0.5725  0.4185  0.5826
  656TIP3   OH223382   1.772   5.476  13.950  0.0855  0.3779  0.6700
  656TIP3    H123383   1.814   5.507  13.869 -1.2050  1.1486  0.2584
  656TIP3    H223384   1.760   5.382  13.937 -3.0935  0.9326 -1.5488
  657TIP3   OH223385   3.794   3.589   5.432 -0.7229  0.2646 -0.4170
  657TIP3    H123386   3.740   3.531   5.379 -0.4573  0.7440 -1.2185
  657TIP3    H223387   3.732   3.637   5.486 -1.0046 -0.1206 -0.3933
  658TIP3   OH223388   6.247   6.720   1.694  0.0983  0.0451 -0.2786
  658TIP3    H123389   6.338   6.745   1.676  0.5690 -1.1756  0.3091
  658TIP3    H223390   6.227   6.654   1.627  0.1469 -0.7607  0.4873
  659TIP3   OH223391   1.123   2.144  15.267  0.3181 -0.3372  0.0609
  659TIP3    H123392   1.116   2.124  15.173 -0.6951  1.3700 -0.2792
  659TIP3    H223393   1.116   2.059  15.310 -1.2592 -0.9933 -1.3444
  660TIP3   OH223394   0.533   2.823  13.888  0.3019 -0.3207  0.2479
  660TIP3    H123395   0.483   2.903  13.873  3.0431  1.0715 -2.3799
  660TIP3    H223396   0.520   2.771  13.809 -1.3079 -2.5851  1.8364
  661TIP3   OH223397   5.349   6.060  15.336  0.2548 -0.1353 -0.3263
  661TIP3    H123398   5.422   6.000  15.323  0.5384  0.3107 -0.8414
  661TIP3    H223399   5.289   6.043  15.263  0.6279  0.6156 -0.8211
  662TIP3   OH223400   1.283   3.467  16.265 -0.7201 -0.0185  0.7296
  662TIP3    H123401   1.225   3.391  16.264  0.2365 -0.7628  0.7684
  662TIP3    H223402   1.356   3.443  16.208  0.8904 -0.2067  2.7502
  663TIP3   OH223403   1.611   6.425  14.833  0.0997 -0.1964  0.4887
  663TIP3    H123404   1.532   6.378  14.808  1.0732 -1.2867 -0.6829
  663TIP3    H223405   1.647   6.373  14.906  0.0889 -0.0870  0.5721
  664TIP3   OH223406   2.157   4.290  16.280  0.5593 -0.3376 -0.6458
  664TIP3    H123407   2.083   4.317  16.227  0.5374  0.9971  0.0324
  664TIP3    H223408   2.121   4.228  16.343 -0.5424  2.0122  1.2012
  665TIP3   OH223409   4.555   4.004  13.882  0.8198 -0.3762  0.1150
  665TIP3    H123410   4.542   4.063  13.808  0.3619 -0.5535  0.0559
  665TIP3    H223411   4.549   4.061  13.959 -0.3730 -0.4563  0.0990
  666TIP3   OH223412   4.786   6.065   1.559 -0.2475  0.2295 -0.1364
  666TIP3    H123413   4.691   6.055   1.560 -0.4430  1.7105 -0.9843
  666TIP3    H223414   4.813   6.056   1.650 -1.4292  1.7033  0.3854
  667TIP3   OH223415   5.493   5.515   0.712 -0.0680  0.4557  0.6101
  667TIP3    H123416   5.404   5.517   0.678  0.7101 -0.0558 -1.6350
  667TIP3    H223417   5.546   5.483   0.639  1.6761 -1.3906  2.5221
  668TIP3   OH223418   6.512   3.396   4.899 -0.1910  0.1209 -0.0473
  668TIP3    H123419   6.481   3.430   4.815  2.1775 -0.6691 -1.3615
  668TIP3    H223420   6.510   3.301   4.889 -0.7105 -0.0134  1.1533
  669TIP3   OH223421   3.878   4.396   5.643  0.1547  0.8049 -0.6976
  669TIP3    H123422   3.899   4.372   5.733 -1.7727  1.1612 -0.1057
  669TIP3    H223423   3.950   4.360   5.591  0.4001 -1.0140  0.7833
  670TIP3   OH223424   4.298   1.704   1.390  0.4408 -0.0122  0.3212
  670TIP3    H123425   4.261   1.713   1.478  0.8006  0.4914  0.4233
  670TIP3    H223426   4.339   1.788   1.373  1.4504 -0.5213  0.1647
  671TIP3   OH223427   0.765   2.758  12.401  0.4209  0.3373  0.5414
  671TIP3    H123428   0.825   2.821  12.362 -0.0954 -0.0773 -0.9611
  671TIP3    H223429   0.793   2.673  12.367 -0.8245  0.1090  0.0283
  672TIP3   OH223430   1.258   3.410   6.116 -0.0423  0.2450 -0.8839
  672TIP3    H123431   1.173   3.409   6.160  0.2112 -0.5808 -0.3705
  672TIP3    H223432   1.302   3.331   6.149  1.5524  1.4859  0.0939
  673TIP3   OH223433   2.551   5.273  14.636  0.0911  0.3798  1.0328
  673TIP3    H123434   2.466   5.277  14.680 -0.7863 -1.2812 -0.3652
  673TIP3    H223435   2.575   5.180  14.640  0.2426  0.2634 -1.4332
  674TIP3   OH223436   1.881   3.337   1.308 -0.3779  0.4119  0.1533
  674TIP3    H123437   1.845   3.255   1.276  1.1649 -0.3261  0.2048
  674TIP3    H223438   1.959   3.312   1.358 -0.3449  1.8475  0.8840
  675TIP3   OH223439   5.559   0.900  13.680  0.0607  0.2474 -0.2917
  675TIP3    H123440   5.514   0.825  13.641 -2.0114  0.6989  1.0927
  675TIP3    H223441   5.652   0.879  13.671 -0.4364 -2.7805  0.5172
  676TIP3   OH223442   4.069   4.875   3.379  0.7534 -0.1466 -0.7420
  676TIP3    H123443   4.048   4.916   3.295 -1.9968  1.6181  0.6255
  676TIP3    H223444   4.148   4.920   3.409 -0.2277  1.7583 -0.8688
  677TIP3   OH223445   4.987   0.381  14.526 -0.4772 -0.1776  0.0048
  677TIP3    H123446   5.046   0.437  14.475 -1.0365  0.1919 -0.2449
  677TIP3    H223447   5.044   0.313  14.562  0.0279 -0.0695 -0.5764
  678TIP3   OH223448   1.348   5.687   2.848  0.3184  0.8475  0.2757
  678TIP3    H123449   1.295   5.618   2.807 -1.4111  1.5643  1.1713
  678TIP3    H223450   1.285   5.757   2.866  1.8232  2.2181  0.3853
  679TIP3   OH223451   5.829   4.580   0.149  0.0122 -0.0113 -0.9229
  679TIP3    H123452   5.740   4.616   0.139 -1.3651 -3.0239 -0.4961
  679TIP3    H223453   5.845   4.532   0.068  0.4818 -0.9799 -0.2703
  680TIP3   OH223454   6.427   3.415  14.667 -0.0153 -0.0992  0.0001
  680TIP3    H123455   6.349   3.464  14.642 -0.2484 -0.1780  0.5478
  680TIP3    H223456   6.488   3.482  14.700  1.1892  0.3185 -2.7956
  681TIP3   OH223457   1.869   0.005  15.191  0.0009 -0.1900 -0.4871
  681TIP3    H123458   1.824  -0.050  15.126 -0.1255  1.0699 -1.5067
  681TIP3    H223459   1.798   0.041  15.243  0.1292 -1.5869  0.7186
  682TIP3   OH223460   3.248   0.006  13.285  0.0874  0.6588  0.5769
  682TIP3    H123461   3.303   0.050  13.351  1.3593 -2.0352  1.4353
  682TIP3    H223462   3.310  -0.022  13.218 -0.9723  1.7783 -0.9326
  683TIP3   OH223463   6.778   6.309   4.040  0.1643  0.6055  0.0803
  683TIP3    H123464   6.838   6.234   4.040  0.1071  0.4429  3.3371
  683TIP3    H223465   6.835   6.385   4.051 -0.0884  0.5932  1.5548
  684TIP3   OH223466   3.004   5.552  14.295 -0.0316 -0.0834  0.0378
  684TIP3    H123467   3.012   5.647  14.301 -2.4989  0.4358 -2.5445
  684TIP3    H223468   2.912   5.535  14.316 -0.0069 -1.6835 -0.9647
  685TIP3   OH223469   5.038   4.331  10.609 -0.0510 -0.8157  0.5482
  685TIP3    H123470   5.075   4.269  10.672 -0.5150 -1.3830  0.2798
  685TIP3    H223471   4.944   4.315  10.613 -0.1975  0.0618  0.6610
  686TIP3   OH223472   3.437   5.722  16.098 -0.0748 -0.4934  0.2832
  686TIP3    H123473   3.452   5.673  16.179  2.5626  1.8335  1.3955
  686TIP3    H223474   3.419   5.811  16.128 -2.4838 -0.2218 -1.6926
  687TIP3   OH223475   6.127   2.223  16.047  0.4790 -0.1722 -0.1439
  687TIP3    H123476   6.172   2.162  16.105  0.9160 -1.0968 -1.4220
  687TIP3    H223477   6.123   2.178  15.963 -0.0624  1.1723 -0.8647
  688TIP3   OH223478   3.807   2.089   4.357  0.0821  0.5467 -0.5492
  688TIP3    H123479   3.723   2.126   4.331  0.0626  0.3393 -0.7835
  688TIP3    H223480   3.867   2.163   4.356  0.0314  0.5860 -0.9624
  689TIP3   OH223481   1.757   2.956  11.262  0.5053 -0.0181  0.2065
  689TIP3    H123482   1.668   2.993  11.258  0.9790  1.0775 -0.7782
  689TIP3    H223483   1.797   2.998  11.339 -0.1609 -1.3754  1.3499
  690TIP3   OH223484   4.661   3.654   6.446  0.2613 -0.8312 -0.7065
  690TIP3    H123485   4.613   3.571   6.455  1.8609 -1.7702 -0.5360
  690TIP3    H223486   4.593   3.721   6.453 -1.1207 -2.1171 -1.1203
  691TIP3   OH223487   1.327   4.835  12.588  0.2490 -0.0030 -0.0748
  691TIP3    H123488   1.408   4.835  12.640  0.2400  0.5883 -0.0516
  691TIP3    H223489   1.287   4.750  12.607  0.4035  0.0755  0.6479
  692TIP3   OH223490   1.658   5.348  12.709 -0.0493 -0.1960 -0.1171
  692TIP3    H123491   1.645   5.371  12.801  2.0351  1.4308 -0.1509
  692TIP3    H223492   1.750   5.326  12.703  0.0113  0.4037 -1.9285
  693TIP3   OH223493   2.814   0.869   3.045  0.3274 -0.0706  0.2482
  693TIP3    H123494   2.840   0.942   2.989 -1.3425  0.5088  0.1633
  693TIP3    H223495   2.740   0.828   3.000  1.3924 -2.0286  0.1582
  694TIP3   OH223496   4.255   5.885   4.055 -0.2735  0.1805  0.9299
  694TIP3    H123497   4.248   5.801   4.010 -2.4543  1.4122 -1.3216
  694TIP3    H223498   4.343   5.885   4.094  0.1348 -2.7146  0.2175
  695TIP3   OH223499   2.973   0.530   0.756 -0.0578 -0.0766  0.2618
  695TIP3    H123500   3.017   0.492   0.680  3.7360 -0.5358  2.4734
  695TIP3    H223501   2.925   0.456   0.794  2.2213 -1.2347  1.0700
  696TIP3   OH223502   2.661   4.626   0.882 -0.0112 -0.1672 -0.4718
  696TIP3    H123503   2.568   4.621   0.858  0.2990  0.5538 -1.9588
  696TIP3    H223504   2.660   4.640   0.977 -1.3996 -0.6172 -0.3871
  697TIP3   OH223505   2.550   4.962  13.917  0.9789 -0.2512 -0.1618
  697TIP3    H123506   2.615   5.032  13.914  1.0734 -0.3104  0.4278
  697TIP3    H223507   2.585   4.895  13.858  1.9131 -0.6649  0.8138
  698TIP3   OH223508   0.644   4.697   2.126 -0.2812  0.0466 -0.5846
  698TIP3    H123509   0.650   4.677   2.219 -1.0503 -0.8658 -0.7212
  698TIP3    H223510   0.590   4.776   2.122 -1.1738 -0.5335 -0.3088
  699TIP3   OH223511   5.136   1.476   6.604  0.1059 -0.5115  0.3067
  699TIP3    H123512   5.102   1.393   6.569 -1.7849 -0.6089  2.1157
  699TIP3    H223513   5.057   1.524   6.631  1.2701  0.9067  1.3416
  700TIP3   OH223514   0.720   5.696   2.563  0.1381  0.0259 -0.5041
  700TIP3    H123515   0.752   5.661   2.480 -2.8317  0.0242 -1.7667
  700TIP3    H223516   0.664   5.626   2.598  1.1335  0.1327  1.4165
  701TIP3   OH223517   3.900   4.451   0.521 -0.2522 -0.3373  0.1687
  701TIP3    H123518   3.818   4.467   0.569  1.1361 -1.1445  3.0221
  701TIP3    H223519   3.936   4.538   0.505 -1.1172 -0.0272 -0.1589
  702TIP3   OH223520   4.082   4.204   1.310  0.6281  0.3427 -0.3362
  702TIP3    H123521   4.060   4.223   1.219 -1.9661 -0.2111  0.0896
  702TIP3    H223522   4.135   4.124   1.306 -2.8983 -2.1837 -1.2883
  703TIP3   OH223523   1.507   4.093  16.090  0.1367 -0.0035 -0.1681
  703TIP3    H123524   1.559   4.018  16.120 -1.8492 -1.7445 -0.7443
  703TIP3    H223525   1.443   4.107  16.160 -1.6216 -1.1091 -1.4606
  704TIP3   OH223526   0.770   5.905  12.686  0.0292  0.2319 -0.2512
  704TIP3    H123527   0.862   5.916  12.710 -0.1175 -0.2424  0.5428
  704TIP3    H223528   0.771   5.898  12.590  0.7930  0.4411 -0.2632
  705TIP3   OH223529   2.839   4.116   0.112  0.0317 -0.0752  0.2891
  705TIP3    H123530   2.769   4.163   0.158  1.3235  0.4653  1.8192
  705TIP3    H223531   2.870   4.178   0.046 -0.2177  0.1028  0.3364
  706TIP3   OH223532   3.491   3.984  15.465 -0.2530  0.6205 -0.0845
  706TIP3    H123533   3.537   3.911  15.506 -1.8456  0.4439  1.4612
  706TIP3    H223534   3.398   3.965  15.478 -0.8771  0.9422 -3.1531
  707TIP3   OH223535   2.088   1.859   0.974 -0.6490 -0.0424  0.4618
  707TIP3    H123536   2.035   1.853   0.895  1.3939  0.0642 -1.0182
  707TIP3    H223537   2.101   1.953   0.988  1.1269 -0.0774 -0.6699
  708TIP3   OH223538   0.701   6.289   0.801 -0.0233  0.1230 -0.8178
  708TIP3    H123539   0.761   6.245   0.741 -0.3782  0.2486 -1.2673
  708TIP3    H223540   0.672   6.219   0.861 -0.5148 -0.2442 -1.4701
  709TIP3   OH223541   5.811   0.253   3.504  0.1974  0.3371  0.2863
  709TIP3    H123542   5.877   0.321   3.489 -0.0543  0.5176 -0.0091
  709TIP3    H223543   5.730   0.291   3.470  0.2510 -0.5183 -0.8603
  710TIP3   OH223544   0.151   2.571  11.416  0.2681  0.0752 -0.2137
  710TIP3    H123545   0.231   2.521  11.396  0.5649  1.4948 -3.1907
  710TIP3    H223546   0.084   2.531  11.360 -1.0027 -0.5972  1.6845
  711TIP3   OH223547   1.962   5.470   3.993 -0.2909  0.2954 -0.2560
  711TIP3    H123548   1.985   5.550   4.041 -0.3436  0.4795 -0.5340
  711TIP3    H223549   1.869   5.455   4.012 -0.0640 -0.1944  0.5019
  712TIP3   OH223550   2.614   5.898  12.467  0.2654 -0.0170  0.2631
  712TIP3    H123551   2.583   5.810  12.488 -1.6569  0.7084  0.6117
  712TIP3    H223552   2.589   5.952  12.542  1.9298  0.7562  0.3236
  713TIP3   OH223553   2.302   5.257  15.673  0.1435 -0.2653  0.2139
  713TIP3    H123554   2.259   5.265  15.758  1.3892 -0.1868  0.8666
  713TIP3    H223555   2.282   5.167  15.644 -2.7949  0.6210 -0.8796
  714TIP3   OH223556   6.176   0.093   4.845  0.3880  0.1503  0.0169
  714TIP3    H123557   6.265   0.090   4.810  0.1276 -0.4807 -0.6212
  714TIP3    H223558   6.121   0.100   4.767 -0.2383 -1.7367  0.2525
  715TIP3   OH223559   5.501   0.895   0.317 -0.4518  0.0818 -0.5233
  715TIP3    H123560   5.574   0.855   0.364 -0.5301 -0.1785 -0.6218
  715TIP3    H223561   5.424   0.874   0.369 -0.5183 -0.0664 -0.6831
  716TIP3   OH223562   3.975   1.434  16.368 -0.1797 -0.2717  0.2840
  716TIP3    H123563   3.998   1.352  16.324 -0.6097  0.3807 -1.1934
  716TIP3    H223564   4.043   1.496  16.341  1.2775 -0.5714  2.9247
  717TIP3   OH223565   3.501   2.518  14.577  0.0830 -0.7517 -0.2534
  717TIP3    H123566   3.507   2.535  14.671  0.0968 -0.1676 -0.3589
  717TIP3    H223567   3.466   2.599  14.540  1.5016 -0.4283 -0.9403
  718TIP3   OH223568   5.556   4.275   2.861 -0.5080 -0.0052  0.2789
  718TIP3    H123569   5.566   4.319   2.945 -0.0433  0.2227  0.1078
  718TIP3    H223570   5.531   4.185   2.884  0.3399 -0.1517  0.6908
  719TIP3   OH223571   4.537   6.785   2.476 -0.3360  0.6479 -0.1122
  719TIP3    H123572   4.612   6.844   2.470 -0.3219  0.5613 -0.7493
  719TIP3    H223573   4.537   6.757   2.568 -0.0610  1.2643  0.0875
  720TIP3   OH223574   5.790   4.925   2.292  0.0064 -0.1739  0.2203
  720TIP3    H123575   5.732   4.878   2.352 -0.1291  0.3125  0.4705
  720TIP3    H223576   5.732   4.984   2.244  0.3969  0.8155  0.9627
  721TIP3   OH223577   0.388   6.095   2.797  0.0169  0.1581  0.0643
  721TIP3    H123578   0.352   6.016   2.837  0.4981  0.7716  1.8028
  721TIP3    H223579   0.409   6.152   2.871  0.0684  1.7562 -1.1241
  722TIP3   OH223580   1.911   5.966  16.727 -0.3505 -0.1346  0.3686
  722TIP3    H123581   1.925   6.034  16.792  1.9814  0.1316 -0.2999
  722TIP3    H223582   1.891   6.013  16.646 -1.6137 -0.3909  0.5186
  723TIP3   OH223583   0.174   5.432   4.403 -0.0927 -0.6559 -0.2910
  723TIP3    H123584   0.145   5.523   4.403  3.1106  0.4989 -0.3937
  723TIP3    H223585   0.120   5.389   4.337  0.0090  1.8313 -2.1330
  724TIP3   OH223586   2.275   0.109  13.574  0.1708  0.1471  0.1984
  724TIP3    H123587   2.191   0.123  13.618 -1.0945  0.7502 -2.2424
  724TIP3    H223588   2.332   0.177  13.610 -0.3714 -0.2011  1.8140
  725TIP3   OH223589   1.780   2.479   5.826 -0.3395  0.1934  0.2301
  725TIP3    H123590   1.840   2.407   5.806 -0.0099 -0.1939  2.3216
  725TIP3    H223591   1.694   2.438   5.834 -0.2147  0.0698  1.0434
  726TIP3   OH223592   3.569   6.219  15.531 -0.1972 -0.0275  0.1015
  726TIP3    H123593   3.564   6.229  15.626  1.0291  1.7677  0.0346
  726TIP3    H223594   3.500   6.277  15.498 -0.7781 -0.8282 -0.1278
  727TIP3   OH223595   4.338   0.968  14.995 -0.2458 -0.0774 -0.2997
  727TIP3    H123596   4.307   0.879  15.013 -0.4082  0.0624  0.1236
  727TIP3    H223597   4.411   0.981  15.055 -0.3312  0.1336 -0.2398
  728TIP3   OH223598   3.407   1.963   1.470 -0.4262  0.0161  0.0779
  728TIP3    H123599   3.382   1.878   1.434  0.0310  0.6034 -1.7474
  728TIP3    H223600   3.393   2.025   1.397 -0.9967  1.5474  1.4304
  729TIP3   OH223601   0.176   1.799  16.622  0.0220  0.4950 -0.2447
  729TIP3    H123602   0.188   1.707  16.646  0.0119  0.2999 -0.9899
  729TIP3    H223603   0.164   1.799  16.527 -1.4804  1.1159 -0.0915
  730TIP3   OH223604   3.465   4.719   4.398 -0.4262 -0.0171 -0.0412
  730TIP3    H123605   3.408   4.655   4.355  1.2978 -0.4923 -1.6971
  730TIP3    H223606   3.515   4.667   4.461  1.1591 -0.4283 -1.5655
  731TIP3   OH223607   0.305   3.287   1.999 -0.9160  0.7744  0.5788
  731TIP3    H123608   0.300   3.379   2.025 -1.8686  1.2192 -1.0463
  731TIP3    H223609   0.374   3.285   1.932 -1.0035  0.3460  0.5002
  732TIP3   OH223610   4.031   0.359  16.028  0.3864 -0.4180  0.7240
  732TIP3    H123611   4.000   0.312  16.105  0.3231 -2.9601 -0.7348
  732TIP3    H223612   3.969   0.336  15.959  0.2525  2.0375 -0.0872
  733TIP3   OH223613   0.303   1.811   5.515  0.1230 -0.1242  0.6669
  733TIP3    H123614   0.312   1.896   5.558 -3.0459  0.4788  0.4387
  733TIP3    H223615   0.272   1.832   5.427 -1.1026 -1.4653  0.7396
  734TIP3   OH223616   0.910   5.954  13.344 -0.3655  0.0590  0.0534
  734TIP3    H123617   0.892   6.013  13.418 -0.0441  0.4439 -0.1741
  734TIP3    H223618   0.830   5.902  13.335  0.0075 -0.8187  1.4310
  735TIP3   OH223619   0.141   2.450   2.205 -0.1270 -0.1526  0.8530
  735TIP3    H123620   0.226   2.492   2.198  0.2937 -1.2766 -1.4959
  735TIP3    H223621   0.094   2.475   2.125 -1.3181 -1.0129  1.2397
  736TIP3   OH223622   3.493   6.255   4.618 -0.5224 -0.5935 -0.0284
  736TIP3    H123623   3.460   6.177   4.574  0.4398 -0.2892 -1.3573
  736TIP3    H223624   3.424   6.320   4.607 -0.5475 -0.7048 -0.5954
  737TIP3   OH223625   6.607   3.992  15.532 -0.5491 -0.3603 -0.4393
  737TIP3    H123626   6.687   3.944  15.554 -0.9911 -0.0983  1.9817
  737TIP3    H223627   6.623   4.026  15.444  2.8329  1.3240  0.6444
  738TIP3   OH223628   2.473   2.474   3.701  0.2294  0.3557  0.5861
  738TIP3    H123629   2.455   2.563   3.673  1.4385  0.1035 -1.1257
  738TIP3    H223630   2.413   2.420   3.650 -0.2345  0.1341  1.3398
  739TIP3   OH223631   2.916   1.003   2.814  0.0343 -0.0460  0.6921
  739TIP3    H123632   2.884   1.093   2.806 -0.1820 -0.1378  0.5036
  739TIP3    H223633   3.011   1.012   2.827 -0.0903  0.2399  1.4833
  740TIP3   OH223634   3.765   4.970   3.859  0.3783 -0.1786 -0.1631
  740TIP3    H123635   3.834   4.976   3.793 -0.1821 -0.4610 -0.7774
  740TIP3    H223636   3.784   5.043   3.919 -0.1864  1.2596 -1.6538
  741TIP3   OH223637   0.106   5.081   3.868  1.0089 -0.2209 -0.6359
  741TIP3    H123638   0.104   5.004   3.925  0.9669 -0.1354 -0.5226
  741TIP3    H223639   0.199   5.105   3.865  0.8446  0.6986  0.6362
  742TIP3   OH223640   4.765   6.597  16.613  0.1978 -0.2094  0.2070
  742TIP3    H123641   4.844   6.637  16.648  0.1988 -0.7557  0.8423
  742TIP3    H223642   4.718   6.669  16.572 -0.8786  0.9215  3.2126
  743TIP3   OH223643   4.471   6.703   3.854 -0.1238 -0.6624 -0.5273
  743TIP3    H123644   4.446   6.745   3.772 -1.0177 -1.6462 -0.7836
  743TIP3    H223645   4.549   6.750   3.883 -0.7084  0.7207 -1.1338
  744TIP3   OH223646   2.934   0.488  16.380 -0.4926 -1.2847  0.3760
  744TIP3    H123647   2.991   0.503  16.304 -0.1550 -1.6768  0.5469
  744TIP3    H223648   2.995   0.470  16.452 -0.8490 -2.5963  0.3728
  745TIP3   OH223649   1.736   1.559  13.938 -0.3459  0.4293  0.2285
  745TIP3    H123650   1.795   1.634  13.926 -1.1684  1.2714  1.1673
  745TIP3    H223651   1.729   1.550  14.033 -1.0060 -0.2392  0.1224
  746TIP3   OH223652   6.204   3.902  15.787 -0.3984  0.5227  0.2689
  746TIP3    H123653   6.264   3.976  15.777  0.6833 -0.3282  0.3858
  746TIP3    H223654   6.243   3.831  15.737 -0.1466 -0.7020  2.1005
  747TIP3   OH223655   0.624   2.814   5.936  0.1822  0.3916 -0.1098
  747TIP3    H123656   0.600   2.745   5.874 -1.9069  2.0322 -1.2791
  747TIP3    H223657   0.563   2.802   6.009  0.4371  0.4526  0.1135
  748TIP3   OH223658   2.619   5.048   2.403  0.4009  0.0785  0.5944
  748TIP3    H123659   2.623   4.955   2.424 -0.5591 -0.9005 -2.9082
  748TIP3    H223660   2.706   5.069   2.368  0.3834  0.3465  0.7025
  749TIP3   OH223661   4.032   0.952   6.200 -0.2625 -0.6832 -0.2217
  749TIP3    H123662   4.062   0.997   6.279  0.8847 -0.5953 -0.6929
  749TIP3    H223663   3.983   0.876   6.233 -0.6675 -0.0963  0.5656
  750TIP3   OH223664   1.166   1.338  13.143 -0.3245  0.2891  0.0232
  750TIP3    H123665   1.166   1.381  13.057  1.4957  0.2675 -0.0276
  750TIP3    H223666   1.075   1.314  13.158 -0.6170 -0.1097 -2.1083
  751TIP3   OH223667   2.705   5.922   4.870 -0.2332 -0.2593  0.1931
  751TIP3    H123668   2.620   5.898   4.906 -2.8156  0.5195 -4.5509
  751TIP3    H223669   2.728   5.849   4.812  0.9954  0.7500 -0.6554
  752TIP3   OH223670   0.943   5.537   3.455  0.0492 -0.6592  0.1030
  752TIP3    H123671   0.965   5.587   3.533 -0.2617 -0.2771 -0.0537
  752TIP3    H223672   0.864   5.489   3.479  0.3489 -1.0920  0.2549
  753TIP3   OH223673   1.065   2.711  14.902  0.2619  0.4627 -0.2633
  753TIP3    H123674   1.148   2.756  14.917  0.5131  0.1988 -0.8422
  753TIP3    H223675   1.047   2.726  14.809  0.4265 -0.7693 -0.5033
  754TIP3   OH223676   4.796   3.982   0.392  0.1515  0.0648 -0.2060
  754TIP3    H123677   4.841   4.066   0.381  1.3939 -0.6746 -0.9813
  754TIP3    H223678   4.777   3.976   0.486 -0.4767  1.4504 -0.2159
  755TIP3   OH223679   1.051   4.082  14.672 -0.3309  0.0261  0.8153
  755TIP3    H123680   1.017   4.139  14.604 -0.4353  0.1785  0.9955
  755TIP3    H223681   0.978   4.069  14.732  0.4649  1.9862  2.3074
  756TIP3   OH223682   4.109   0.922  13.888 -0.5842  0.5057 -0.3273
  756TIP3    H123683   4.059   0.970  13.821  0.3785  2.4130  0.2485
  756TIP3    H223684   4.056   0.927  13.967 -1.0935 -0.5804 -0.5772
  757TIP3   OH223685   0.511   6.557   2.563 -0.1022 -0.0704  0.0856
  757TIP3    H123686   0.430   6.580   2.608 -0.1465 -0.8799  0.4361
  757TIP3    H223687   0.485   6.542   2.472 -0.3616 -0.3559  0.2038
  758TIP3   OH223688   1.608   3.326  15.828  0.3727  0.1733 -0.0245
  758TIP3    H123689   1.603   3.315  15.733 -1.0580 -1.1365  0.1739
  758TIP3    H223690   1.616   3.237  15.862 -1.7046  0.3829  1.1880
  759TIP3   OH223691   0.693   5.105  14.636  0.3323  0.0566 -0.2124
  759TIP3    H123692   0.786   5.121  14.650  0.1953 -0.3355  1.3016
  759TIP3    H223693   0.660   5.188  14.601  0.6651  1.3606  2.3338
  760TIP3   OH223694   5.919   4.598  12.524 -0.0361 -0.1127  0.2687
  760TIP3    H123695   5.901   4.671  12.466  0.0107  0.1606  0.5929
  760TIP3    H223696   5.834   4.577  12.564 -0.1620 -0.6062 -0.2445
  761TIP3   OH223697   5.958   5.019   1.622  0.3207 -0.0906 -0.4418
  761TIP3    H123698   5.925   4.988   1.537  2.4576 -0.4480 -1.2125
  761TIP3    H223699   5.885   5.068   1.660 -1.5051 -1.9018 -1.4065
  762TIP3   OH223700   1.706   1.600  15.874  0.1099  0.2763 -0.1588
  762TIP3    H123701   1.789   1.555  15.861  0.8933  1.0088  1.9312
  762TIP3    H223702   1.680   1.576  15.963 -1.2706  1.1034 -0.3143
  763TIP3   OH223703   4.608   5.280   1.018 -0.4156 -0.0588 -0.6622
  763TIP3    H123704   4.603   5.187   1.042  1.3576 -0.5411 -1.9661
  763TIP3    H223705   4.517   5.308   1.012 -1.0016 -1.0552  2.0438
  764TIP3   OH223706   0.671   0.991   5.990 -0.3798  0.5380  0.0505
  764TIP3    H123707   0.713   1.063   5.942 -1.3102  1.8449  1.1044
  764TIP3    H223708   0.650   1.029   6.076  1.1109 -1.6748  1.4902
  765TIP3   OH223709   1.448   4.608   3.860 -0.9804  0.1265 -0.0995
  765TIP3    H123710   1.448   4.690   3.811 -1.3578 -0.1091 -0.4995
  765TIP3    H223711   1.540   4.592   3.878 -0.6641 -0.5412 -2.0374
  766TIP3   OH223712   3.044   5.366  14.096  0.0882 -0.3257 -0.4961
  766TIP3    H123713   3.046   5.435  14.162 -0.5925 -0.7058 -0.0617
  766TIP3    H223714   3.125   5.378  14.046  0.2311  0.4539 -0.0949
  767TIP3   OH223715   6.351   1.318  13.892  0.2458 -0.0683 -0.2911
  767TIP3    H123716   6.376   1.245  13.948 -0.6663  1.0261  1.6441
  767TIP3    H223717   6.296   1.278  13.824  1.0257 -1.3797 -0.1797
  768TIP3   OH223718   6.245   2.101   4.576 -0.1160  0.8556 -0.4018
  768TIP3    H123719   6.194   2.053   4.510  1.5964 -0.6390 -0.7311
  768TIP3    H223720   6.296   2.033   4.620  1.6143  2.2612 -0.1305
  769TIP3   OH223721   6.496   4.601   0.617 -0.5322 -0.0933  0.6097
  769TIP3    H123722   6.555   4.670   0.586  0.6865 -0.4596  2.0384
  769TIP3    H223723   6.422   4.649   0.656 -1.1356  0.3626 -0.9752
  770TIP3   OH223724   1.028   0.574   2.376 -0.6840 -0.7507  0.4549
  770TIP3    H123725   1.119   0.582   2.405 -1.2328  1.1561  1.7502
  770TIP3    H223726   1.024   0.626   2.296 -0.5825 -1.0926  0.2231
  771TIP3   OH223727   3.541   0.180  14.613 -0.2137  0.3666  0.0819
  771TIP3    H123728   3.461   0.130  14.629 -0.7040  1.0596 -0.1558
  771TIP3    H223729   3.606   0.141  14.671 -0.6370 -0.4034  0.0569
  772TIP3   OH223730   0.108   0.535   5.397 -0.6317 -0.0377  0.2338
  772TIP3    H123731   0.187   0.587   5.410  0.3461 -1.6256  0.9345
  772TIP3    H223732   0.095   0.535   5.302 -1.2369  2.2262  0.2517
  773TIP3   OH223733   0.441   5.198  17.139  0.5149 -0.2915  0.1207
  773TIP3    H123734   0.488   5.245  17.069 -0.0626 -1.3201 -0.9960
  773TIP3    H223735   0.491   5.219  17.218  0.4630  1.9377 -0.3502
  774TIP3   OH223736   5.893   0.419  11.625  0.2552 -0.3290 -0.3144
  774TIP3    H123737   5.913   0.498  11.576 -0.5327 -0.5154 -0.9456
  774TIP3    H223738   5.846   0.363  11.564  0.3165 -1.0644  0.2895
  775TIP3   OH223739   6.575   4.299   4.490 -0.1909  0.5422 -0.3954
  775TIP3    H123740   6.572   4.215   4.534  0.1039  0.2034 -1.0085
  775TIP3    H223741   6.657   4.339   4.520 -0.0142  0.3322 -0.5893
  776TIP3   OH223742   5.701   6.016  12.940  0.1221  0.8244  0.4071
  776TIP3    H123743   5.675   6.038  12.850 -0.1617  2.0922  0.7818
  776TIP3    H223744   5.792   5.986  12.931 -0.2892 -0.2452 -0.4433
  777TIP3   OH223745   5.097   3.590   6.335  0.3305  0.7394  0.6966
  777TIP3    H123746   5.009   3.571   6.304  0.2040  0.9618  0.9069
  777TIP3    H223747   5.098   3.685   6.345  0.7002  0.7690  0.3832
  778TIP3   OH223748   6.429   1.546   2.533 -0.4539  0.1583 -0.2448
  778TIP3    H123749   6.379   1.499   2.466 -0.1382 -1.0389  0.3289
  778TIP3    H223750   6.433   1.486   2.607  1.0864  0.5701  0.0474
  779TIP3   OH223751   1.740   1.843   5.650  0.1849  0.1231  0.0850
  779TIP3    H123752   1.812   1.906   5.650  0.8117 -0.5636 -0.8423
  779TIP3    H223753   1.679   1.875   5.584  0.4860 -0.2101 -0.3604
  780TIP3   OH223754   1.472   0.470  15.266 -0.0755  0.4451  0.8969
  780TIP3    H123755   1.550   0.492  15.215 -0.2681 -2.5067 -0.9858
  780TIP3    H223756   1.502   0.407  15.331 -0.7063  0.1010  0.8681
  781TIP3   OH223757   0.472   5.683   0.734 -0.4964  0.2487  0.0736
  781TIP3    H123758   0.465   5.766   0.780  0.7468  0.5529 -0.2525
  781TIP3    H223759   0.566   5.668   0.724 -0.6293 -1.9712  1.4850
  782TIP3   OH223760   2.155   0.060   1.193 -0.2912 -0.0498  0.2483
  782TIP3    H123761   2.073   0.098   1.228 -0.1146  1.7225 -1.0947
  782TIP3    H223762   2.221   0.127   1.211  0.3216 -0.2877 -1.0079
  783TIP3   OH223763   6.195   0.521  16.423  0.9171 -0.2455  0.7373
  783TIP3    H123764   6.123   0.578  16.399  2.1070  1.6830  1.5047
  783TIP3    H223765   6.152   0.445  16.464 -0.8149 -1.0934 -2.3282
  784TIP3   OH223766   3.141   1.703  16.374 -0.2604  0.3952 -0.3627
  784TIP3    H123767   3.052   1.716  16.342 -1.2093  0.3787  2.0423
  784TIP3    H223768   3.138   1.619  16.420  0.8709  0.5849  0.0982
  785TIP3   OH223769   6.068   5.305  14.679  0.2945  0.1492 -0.1988
  785TIP3    H123770   6.128   5.376  14.704  1.0663 -0.3377 -0.6443
  785TIP3    H223771   5.984   5.349  14.667  0.7821  1.0097 -0.5637
  786TIP3   OH223772   4.637   1.152  16.745 -0.7490 -0.0618  0.0651
  786TIP3    H123773   4.555   1.134  16.790 -0.4699 -0.9872  0.2236
  786TIP3    H223774   4.675   1.066  16.728  0.9055  0.3709  1.3050
  787TIP3   OH223775   6.725   1.311   3.113 -0.2985  0.5491  0.1909
  787TIP3    H123776   6.767   1.395   3.130  0.9514 -0.2663  1.3984
  787TIP3    H223777   6.758   1.254   3.182 -2.3984 -0.5127  0.4030
  788TIP3   OH223778   1.740   5.281  17.146 -0.2462 -0.5108 -0.1922
  788TIP3    H123779   1.731   5.342  17.072  2.8716  0.7805  0.3430
  788TIP3    H223780   1.700   5.327  17.220 -0.7282 -0.5129 -0.4497
  789TIP3   OH223781   6.182   1.191   4.454  0.5528 -0.2474 -0.0153
  789TIP3    H123782   6.100   1.151   4.483  0.7889 -0.8007 -0.1141
  789TIP3    H223783   6.154   1.261   4.394  0.1329 -0.1026  0.3487
  790TIP3   OH223784   4.790   2.262  12.355 -0.6765 -0.1580 -0.3464
  790TIP3    H123785   4.736   2.184  12.349  0.1134 -0.8598  1.0424
  790TIP3    H223786   4.728   2.334  12.358 -1.6390 -0.9788  2.0522
  791TIP3   OH223787   3.708   2.248  15.523  0.2936  0.0495  0.4507
  791TIP3    H123788   3.676   2.338  15.521 -1.2395 -0.4843 -0.4379
  791TIP3    H223789   3.731   2.230  15.432  0.9520 -0.3537  0.6903
  792TIP3   OH223790   1.239   3.732   1.809  0.5740 -0.1822  0.0594
  792TIP3    H123791   1.222   3.812   1.858 -0.3506  0.9704 -2.0230
  792TIP3    H223792   1.317   3.752   1.757 -0.6010  0.0268 -1.7053
  793TIP3   OH223793   4.421   3.531  15.178 -0.1453 -0.1114  0.2757
  793TIP3    H123794   4.514   3.553  15.177 -0.3366  1.0100 -2.3508
  793TIP3    H223795   4.413   3.456  15.119 -1.0557  0.8658 -0.9056
  794TIP3   OH223796   3.488   1.318  12.956 -0.6524 -0.2382 -0.0626
  794TIP3    H123797   3.572   1.364  12.959  0.2826 -1.8126 -0.8269
  794TIP3    H223798   3.458   1.316  13.047  0.6569 -0.5575  0.3760
  795TIP3   OH223799   1.023   1.166  11.710  0.4394 -0.3120  0.4942
  795TIP3    H123800   1.032   1.072  11.696 -0.8209 -0.2439 -1.1850
  795TIP3    H223801   0.930   1.183  11.695  0.3514  1.0133  2.2535
  796TIP3   OH223802   4.024   1.826  11.252  0.0664 -0.0816  1.0824
  796TIP3    H123803   4.064   1.903  11.294 -0.6745  0.7133  0.3918
  796TIP3    H223804   4.067   1.821  11.167 -1.4362  0.9692  0.2063
  797TIP3   OH223805   5.095   2.586  16.292  0.5176  0.2194  0.0791
  797TIP3    H123806   5.001   2.581  16.278  0.7654  0.7571 -2.3276
  797TIP3    H223807   5.125   2.495  16.285  0.5042  0.3473 -2.6830
  798TIP3   OH223808   0.081   2.118   4.931  0.1175  0.4744 -0.2672
  798TIP3    H123809   0.176   2.107   4.927  0.4307  1.9743  1.6296
  798TIP3    H223810   0.058   2.099   5.022 -1.7054 -1.6092 -1.0744
  799TIP3   OH223811   5.965   1.858   5.774 -0.5314 -0.3808 -0.3708
  799TIP3    H123812   5.925   1.783   5.818 -1.2701  0.4683  0.4364
  799TIP3    H223813   6.049   1.824   5.741 -0.5551 -1.3843  0.5419
  800TIP3   OH223814   5.793   3.488   0.662  0.4453 -0.1472 -0.0854
  800TIP3    H123815   5.759   3.472   0.751  1.0327  1.6935  0.5045
  800TIP3    H223816   5.862   3.423   0.651 -1.2903 -2.0767 -0.2076
  801TIP3   OH223817   4.395   0.104  14.749 -0.3492  0.5780 -0.0550
  801TIP3    H123818   4.325   0.125  14.811 -1.9963  0.1446 -1.6693
  801TIP3    H223819   4.417   0.187  14.708 -0.3882  0.6156  0.0003
  802TIP3   OH223820   5.311   6.423  13.179  0.3278 -0.5986  0.2547
  802TIP3    H123821   5.340   6.512  13.200  2.1052 -1.1871  0.4266
  802TIP3    H223822   5.267   6.392  13.258 -0.4265  0.1635  0.1464
  803TIP3   OH223823   0.724   5.297  15.987 -0.4556 -0.1626  0.2144
  803TIP3    H123824   0.645   5.244  15.975 -0.8863  0.4509  0.3009
  803TIP3    H223825   0.735   5.302  16.082 -1.3526  1.2355  0.2796
  804TIP3   OH223826   0.389   6.394   1.124 -0.1044  0.0935  0.0926
  804TIP3    H123827   0.369   6.315   1.174  0.1448  0.1310  0.2493
  804TIP3    H223828   0.333   6.387   1.046  2.6663 -2.1986 -1.8902
  805TIP3   OH223829   6.238   5.165   5.689 -0.0650 -0.1967  0.2490
  805TIP3    H123830   6.233   5.224   5.763  0.2320 -1.2509  1.1379
  805TIP3    H223831   6.260   5.080   5.727  1.2302 -0.5376 -1.1385
  806TIP3   OH223832   0.229   6.775   2.891  0.0004  0.3467 -0.3608
  806TIP3    H123833   0.250   6.868   2.900 -3.5763  1.2355  0.5091
  806TIP3    H223834   0.182   6.754   2.971 -2.8984 -0.9888 -2.2312
  807TIP3   OH223835   3.272   0.121  12.279  0.0490 -0.5544  0.3438
  807TIP3    H123836   3.282   0.216  12.278 -0.0023 -0.5516  0.0882
  807TIP3    H223837   3.361   0.087  12.280  0.0965 -0.4884  2.4190
  808TIP3   OH223838   4.380   2.770   0.691 -0.3230 -0.4483  0.0775
  808TIP3    H123839   4.453   2.722   0.730  0.0635  0.4359  0.4747
  808TIP3    H223840   4.420   2.847   0.652 -0.6532 -1.4072 -2.3617
  809TIP3   OH223841   5.984   3.815  15.649 -0.1712  0.5317  0.1313
  809TIP3    H123842   5.947   3.887  15.599  0.0546  1.2026  0.9077
  809TIP3    H223843   6.062   3.852  15.690  1.2263 -0.7705 -1.2371
  810TIP3   OH223844   3.518   3.817  13.173 -0.0334 -0.1260  0.5133
  810TIP3    H123845   3.534   3.731  13.211  0.8307  1.2131  3.5039
  810TIP3    H223846   3.490   3.871  13.247 -0.0854  2.3099 -1.1488
  811TIP3   OH223847   5.154   4.133  14.410  0.3145 -0.3814 -0.3502
  811TIP3    H123848   5.235   4.089  14.438 -0.2663 -1.0820  0.2687
  811TIP3    H223849   5.170   4.226  14.426  0.7395 -0.5827  0.4393
  812TIP3   OH223850   3.824   6.789  14.433 -0.2813 -0.1778 -0.4152
  812TIP3    H123851   3.907   6.827  14.405 -0.2697  0.5012  0.5139
  812TIP3    H223852   3.847   6.731  14.506 -0.5926 -0.1903 -0.3238
  813TIP3   OH223853   0.868   6.780  12.203 -0.2299 -0.0166 -0.2706
  813TIP3    H123854   0.937   6.837  12.237 -1.0547  0.3309  0.8982
  813TIP3    H223855   0.788   6.832  12.209 -0.6119 -0.4122 -1.6095
  814TIP3   OH223856   3.619   0.715  14.345 -0.1403 -0.2107 -0.2018
  814TIP3    H123857   3.635   0.686  14.255  0.5930 -0.1295 -0.1045
  814TIP3    H223858   3.667   0.651  14.399  0.0055  0.1505  0.0970
  815TIP3   OH223859   5.115   2.353   1.674  0.0984  0.2016 -0.2281
  815TIP3    H123860   5.086   2.414   1.607  0.3374 -0.1787 -0.6892
  815TIP3    H223861   5.045   2.288   1.680  1.2078 -1.2445 -2.0140
  816TIP3   OH223862   4.981   0.938  14.220  0.3882 -0.1741 -0.3630
  816TIP3    H123863   4.980   0.990  14.140  1.9715  0.3433 -0.0823
  816TIP3    H223864   4.982   1.002  14.291  2.3960 -0.5116 -0.0124
  817TIP3   OH223865   4.498   1.705  13.862 -0.2232  0.1338 -0.1330
  817TIP3    H123866   4.567   1.642  13.878  0.4678  1.1393  0.9792
  817TIP3    H223867   4.541   1.776  13.814 -0.8758  0.0219 -0.9154
  818TIP3   OH223868   0.867   0.447  12.949  0.4191  0.3178 -0.0808
  818TIP3    H123869   0.936   0.444  12.883 -0.4074 -3.3523 -0.9878
  818TIP3    H223870   0.790   0.481  12.903  0.5100  0.2969 -0.2480
  819TIP3   OH223871   3.111   4.202  13.885  0.1875 -0.2443 -0.2622
  819TIP3    H123872   3.035   4.182  13.941 -0.2591  0.1635 -0.7184
  819TIP3    H223873   3.135   4.117  13.847 -0.3158 -0.3024 -0.4568
  820TIP3   OH223874   3.602   3.758   5.523  0.6275 -0.3163 -0.1722
  820TIP3    H123875   3.519   3.752   5.476  0.9355 -0.9107 -0.6612
  820TIP3    H223876   3.583   3.724   5.611  0.0472  0.7996  0.1412
  821TIP3   OH223877   5.226   1.752   0.932  0.3067 -0.2900  0.5747
  821TIP3    H123878   5.187   1.833   0.900  0.2252  0.1222  1.7074
  821TIP3    H223879   5.236   1.698   0.853 -2.6458 -0.4698  0.2061
  822TIP3   OH223880   2.349   0.721   6.075 -0.1973 -0.1244 -0.2800
  822TIP3    H123881   2.339   0.807   6.116  0.7428 -0.0783 -0.1165
  822TIP3    H223882   2.415   0.735   6.007 -1.5004 -0.2751 -1.6346
  823TIP3   OH223883   3.091   0.473  16.143  0.2117  0.0200 -0.2167
  823TIP3    H123884   3.167   0.485  16.200  0.7518  0.2744 -0.9758
  823TIP3    H223885   3.083   0.378  16.134 -0.4302 -0.0579  0.9941
  824TIP3   OH223886   5.102   2.820  15.076  0.1124  0.4699  0.2908
  824TIP3    H123887   5.164   2.844  15.007 -1.4949  0.4535 -1.2395
  824TIP3    H223888   5.138   2.859  15.155  0.1442  3.7776 -1.1840
  825TIP3   OH223889   5.142   6.514  12.755 -0.1056  0.0857 -0.1353
  825TIP3    H123890   5.123   6.432  12.801  0.9338 -0.8482 -1.3140
  825TIP3    H223891   5.088   6.509  12.676 -0.9475  1.1122  0.3535
  826TIP3   OH223892   6.150   1.207  12.224  0.7105  0.3685 -0.7440
  826TIP3    H123893   6.128   1.182  12.314 -0.3707  2.2129 -0.4537
  826TIP3    H223894   6.072   1.185  12.173  0.2162  1.9350 -0.6992
  827TIP3   OH223895   2.548   4.993  14.595 -0.2334 -0.4105  0.1625
  827TIP3    H123896   2.454   4.983  14.611 -0.5148 -0.1639 -1.2186
  827TIP3    H223897   2.588   4.918  14.639 -1.1555 -0.9232  0.1537
  828TIP3   OH223898   0.623   2.430   4.852  0.7129 -0.1598 -0.0936
  828TIP3    H123899   0.569   2.388   4.919  1.2126  0.6344  0.8402
  828TIP3    H223900   0.578   2.512   4.832 -0.7981 -1.4858 -2.6442
  829TIP3   OH223901   3.109   2.613  11.711 -0.0008  0.1395 -0.6320
  829TIP3    H123902   3.094   2.687  11.653 -1.4743 -2.3606 -3.7296
  829TIP3    H223903   3.051   2.630  11.786 -0.4165  2.0232 -1.3224
  830TIP3   OH223904   5.138   3.060  12.644 -0.3759  0.1604 -0.4858
  830TIP3    H123905   5.203   2.990  12.640 -0.0779  0.4319 -0.4093
  830TIP3    H223906   5.121   3.082  12.552 -0.0527  0.3749 -0.4927
  831TIP3   OH223907   3.069   6.272  10.694 -0.1923  0.8452 -0.1192
  831TIP3    H123908   3.087   6.367  10.692  0.9557  0.6501 -2.0564
  831TIP3    H223909   3.102   6.243  10.778 -0.7485  2.1879  0.5985
  832TIP3   OH223910   3.454   6.116  16.563  0.3383  0.4216 -0.2242
  832TIP3    H123911   3.477   6.094  16.653  0.6462 -3.0866 -1.0180
  832TIP3    H223912   3.518   6.069  16.509 -0.2629  1.8483 -2.3308
  833TIP3   OH223913   3.257   3.488  15.718  0.2995 -1.2450  0.1232
  833TIP3    H123914   3.232   3.575  15.750 -0.3415 -0.4696 -2.2789
  833TIP3    H223915   3.352   3.490  15.716  0.2915 -0.5914  0.1013
  834TIP3   OH223916   1.203   3.200  12.244  0.6418  0.3261 -0.0046
  834TIP3    H123917   1.215   3.279  12.191 -0.5837  0.9306  0.5821
  834TIP3    H223918   1.241   3.130  12.191 -0.7517  0.8608 -1.8161
  835TIP3   OH223919   5.853   2.853  13.414  0.1249  0.4746  0.5877
  835TIP3    H123920   5.900   2.773  13.438 -1.3200 -0.0527  1.7789
  835TIP3    H223921   5.816   2.833  13.328  0.3774  0.1384  0.5501
  836TIP3   OH223922   5.522   0.326   1.102  0.4405  0.3706  0.3933
  836TIP3    H123923   5.490   0.268   1.172 -0.0395  0.1448 -0.0055
  836TIP3    H223924   5.575   0.270   1.046  0.4125  0.4359  0.3007
  837TIP3   OH223925   1.321   1.877  13.219  0.9777  1.0429 -0.2280
  837TIP3    H123926   1.308   1.838  13.133 -0.3776  0.7925  0.0774
  837TIP3    H223927   1.371   1.957  13.201  1.5613  0.4948 -1.1271
  838TIP3   OH223928   4.042   5.001  13.421  0.7653 -0.2943  0.0110
  838TIP3    H123929   4.002   5.071  13.370 -0.0557 -1.7131 -1.3735
  838TIP3    H223930   3.973   4.969  13.478  1.3164  0.4115  1.1046
  839TIP3   OH223931   4.404   6.282  11.332  0.2259  0.0500  0.3142
  839TIP3    H123932   4.315   6.306  11.308  0.7876  1.8872 -0.0747
  839TIP3    H223933   4.418   6.322  11.418  1.3846  1.8034 -0.6147
  840TIP3   OH223934   3.283   5.592   0.948  0.4245 -0.0087  0.0751
  840TIP3    H123935   3.258   5.511   0.904  0.9653 -1.6551  2.6153
  840TIP3    H223936   3.367   5.617   0.909  0.0650 -0.4406 -0.9923
  841TIP3   OH223937   4.565   1.056  15.690 -0.1100 -0.0638 -0.4555
  841TIP3    H123938   4.654   1.047  15.722 -0.2817 -1.1847 -0.2732
  841TIP3    H223939   4.553   0.983  15.630 -0.4903  0.8096 -1.4910
  842TIP3   OH223940   4.676   4.593   2.565  0.7451 -0.0053 -0.0840
  842TIP3    H123941   4.614   4.623   2.498 -1.3729 -0.1641  1.6735
  842TIP3    H223942   4.623   4.587   2.645  2.7393 -1.5384  1.2170
  843TIP3   OH223943   3.587   6.516   3.311  0.2502  0.4064 -1.0767
  843TIP3    H123944   3.628   6.489   3.228  0.8215  0.6378 -0.8716
  843TIP3    H223945   3.519   6.451   3.325 -1.0580  1.3748 -2.6376
  844TIP3   OH223946   5.356   3.201  14.303  0.4703 -0.2483  0.4826
  844TIP3    H123947   5.325   3.223  14.215  1.9914 -1.1175 -0.3051
  844TIP3    H223948   5.354   3.285  14.350 -0.6193  0.1791 -0.2700
  845TIP3   OH223949   1.612   6.141  16.189 -0.3450 -0.8523  0.5708
  845TIP3    H123950   1.545   6.203  16.160 -0.3240 -1.4634 -0.9001
  845TIP3    H223951   1.688   6.160  16.134  0.5343 -0.5224  1.8578
  846TIP3   OH223952   2.992   6.145  15.805  0.2405  0.3184 -0.3015
  846TIP3    H123953   3.024   6.106  15.887 -0.5932  1.6509  0.6933
  846TIP3    H223954   2.899   6.123  15.803  0.2435  0.3452 -0.8697
  847TIP3   OH223955   5.027   3.437   0.298 -0.1745 -0.2567  0.0404
  847TIP3    H123956   4.954   3.487   0.334  0.3857  3.1238 -2.9563
  847TIP3    H223957   4.991   3.392   0.222 -0.0258 -2.3426  1.1233
  848TIP3   OH223958   6.116   4.248   0.628  0.3773  0.1350 -0.7112
  848TIP3    H123959   6.051   4.244   0.699  1.2452  1.5573  0.2367
  848TIP3    H223960   6.122   4.159   0.595 -2.0802 -0.0486 -0.8778
  849TIP3   OH223961   4.020   0.605  12.139 -0.6959 -0.4217  0.3607
  849TIP3    H123962   3.964   0.612  12.061 -1.3341 -0.1624  0.8338
  849TIP3    H223963   4.018   0.693  12.178 -0.0370 -0.4379  0.4447
  850TIP3   OH223964   3.066   0.047   5.404 -0.1260  0.7790  0.2807
  850TIP3    H123965   3.011  -0.022   5.440  2.0618 -1.0298  0.3641
  850TIP3    H223966   3.115   0.004   5.334 -0.3767  2.8834 -1.2813
  851TIP3   OH223967   2.763   0.445   1.231  0.1092 -0.1873  0.2628
  851TIP3    H123968   2.810   0.514   1.278  0.5993 -0.8415  0.7480
  851TIP3    H223969   2.822   0.419   1.160 -0.4711  0.5346 -0.5111
  852TIP3   OH223970   5.365   0.954   0.820 -0.3817 -0.7472 -0.0352
  852TIP3    H123971   5.349   0.913   0.735 -0.9544 -0.6975  0.0404
  852TIP3    H223972   5.339   0.888   0.884 -1.4148 -0.2570  0.0868
  853TIP3   OH223973   1.226   4.871  15.462 -0.1872 -0.3454  0.1705
  853TIP3    H123974   1.131   4.860  15.463 -0.1390 -0.8291 -0.3331
  853TIP3    H223975   1.259   4.795  15.414  0.2763  0.9769 -1.7113
  854TIP3   OH223976   5.574   4.329   3.821  0.0614 -0.3005 -0.4049
  854TIP3    H123977   5.638   4.268   3.783  0.3664  0.1933 -0.6933
  854TIP3    H223978   5.492   4.308   3.776  0.2381 -0.2794 -0.7426
  855TIP3   OH223979   5.691   0.316  12.834 -0.8670  0.3189 -0.0811
  855TIP3    H123980   5.733   0.235  12.862 -0.1061  1.0107  0.8246
  855TIP3    H223981   5.699   0.315  12.738  1.5473  0.5995  0.0643
  856TIP3   OH223982   1.692   5.124  14.962  0.5186  0.3518 -0.1268
  856TIP3    H123983   1.749   5.137  14.887 -0.5309  0.2051 -0.9666
  856TIP3    H223984   1.604   5.112  14.925 -0.1006  0.7414  1.1351
  857TIP3   OH223985   5.170   5.541  16.001  0.5686 -0.0496 -0.0823
  857TIP3    H123986   5.104   5.610  16.011 -0.1711 -0.7506  0.0077
  857TIP3    H223987   5.248   5.586  15.971 -0.0259  0.7738 -0.4121
  858TIP3   OH223988   4.823   5.922  12.577 -0.1806 -0.9951 -0.0652
  858TIP3    H123989   4.737   5.943  12.539  0.6356 -0.8541 -1.9619
  858TIP3    H223990   4.860   5.857  12.517  1.4459 -0.3190  0.1523
  859TIP3   OH223991   3.606   0.512   3.987 -0.0680  0.4337  0.4335
  859TIP3    H123992   3.618   0.441   3.925  2.5896 -2.8338  4.1996
  859TIP3    H223993   3.694   0.542   4.008 -0.8229  1.3328  2.6607
  860TIP3   OH223994   1.108   4.664   0.199  0.7829  0.0901 -0.6273
  860TIP3    H123995   1.036   4.601   0.199  0.7744 -0.0014  1.8764
  860TIP3    H223996   1.069   4.746   0.169 -0.3694  0.0138  0.5801
  861TIP3   OH223997   5.740   1.692   2.271 -0.5140  0.3026  0.1054
  861TIP3    H123998   5.704   1.775   2.303 -0.3247  1.1850 -1.7946
  861TIP3    H223999   5.687   1.671   2.193  1.3691  0.2924 -1.2478
  862TIP3   OH224000   1.590   5.536  11.133  0.5856 -0.3601 -0.0390
  862TIP3    H124001   1.572   5.446  11.162 -0.5131  0.3792  1.7880
  862TIP3    H224002   1.681   5.551  11.158  0.7327 -0.9076 -0.2245
  863TIP3   OH224003   2.045   2.925  13.472 -0.7071 -0.1438 -0.0976
  863TIP3    H124004   2.049   2.831  13.485  0.3086 -0.1690 -0.5068
  863TIP3    H224005   2.097   2.962  13.543 -0.8046  0.0974 -0.1489
  864TIP3   OH224006   1.269   4.088  14.864 -0.4496 -0.2521 -0.1429
  864TIP3    H124007   1.184   4.045  14.873 -1.2640  0.3979 -3.2683
  864TIP3    H224008   1.266   4.128  14.777  2.2507  1.6713  0.5074
  865TIP3   OH224009   1.011   4.856  14.715 -0.5628  0.0212 -0.0593
  865TIP3    H124010   1.039   4.770  14.684  0.8286 -0.3924  2.0902
  865TIP3    H224011   1.092   4.900  14.740 -1.4492  0.6427  1.9708
  866TIP3   OH224012   0.100   5.357   5.911  0.5619  0.2814 -0.0250
  866TIP3    H124013   0.057   5.433   5.951 -1.6123 -0.2643 -1.1705
  866TIP3    H224014   0.193   5.368   5.932 -0.2340  0.5852  4.1875
  867TIP3   OH224015   6.357   1.786   0.358 -0.3981  0.5803 -0.0742
  867TIP3    H124016   6.410   1.717   0.397  0.1589  0.5342 -0.8850
  867TIP3    H224017   6.274   1.743   0.338 -0.4077  0.4050  0.3302
  868TIP3   OH224018   1.948   0.893   2.262  0.1467 -0.2006  0.7859
  868TIP3    H124019   1.878   0.831   2.241 -1.4728  1.3605  1.3213
  868TIP3    H224020   1.911   0.948   2.331  0.1664  3.5075 -1.8517
  869TIP3   OH224021   2.323   3.046  15.705 -0.0838 -0.0517  1.1479
  869TIP3    H124022   2.360   3.010  15.786 -0.4627 -0.5501  1.1082
  869TIP3    H224023   2.398   3.062  15.649  0.1836  0.2972  1.6022
  870TIP3   OH224024   5.929   2.805  16.941  0.3387 -0.0942  0.3158
  870TIP3    H124025   5.911   2.836  17.030 -2.1301  0.2767 -0.2302
  870TIP3    H224026   6.015   2.840  16.920 -0.7118  3.3085  1.0932
  871TIP3   OH224027   5.674   4.977  12.200  0.0125  0.3943 -0.3887
  871TIP3    H124028   5.608   4.927  12.247 -0.0243  0.6079 -0.2115
  871TIP3    H224029   5.630   5.005  12.120 -1.0988  3.0275  1.0245
  872TIP3   OH224030   5.037   0.602   1.556 -0.1466 -0.0192 -0.3089
  872TIP3    H124031   5.004   0.524   1.512 -0.8953 -0.1233  0.4263
  872TIP3    H224032   5.061   0.661   1.485  1.9107 -1.4921 -0.9300
  873TIP3   OH224033   1.503   0.506   1.548  0.2971 -0.1777  0.0019
  873TIP3    H124034   1.455   0.448   1.490  1.4927 -2.5873  1.2859
  873TIP3    H224035   1.592   0.507   1.513  0.6306 -0.2898  0.8303
  874TIP3   OH224036   1.806   1.453   3.122 -0.1014 -0.4247  0.0556
  874TIP3    H124037   1.755   1.527   3.090 -0.1830 -1.0713 -1.3902
  874TIP3    H224038   1.800   1.388   3.052  1.6226 -1.0203  0.4210
  875TIP3   OH224039   0.200   3.736   5.138  0.0253 -0.2735 -0.2086
  875TIP3    H124040   0.162   3.648   5.140  1.6740 -1.0051  0.5386
  875TIP3    H224041   0.285   3.727   5.181  0.4896  1.5729 -0.6421
  876TIP3   OH224042   1.342   6.750   6.008  0.4853  0.1424  0.0411
  876TIP3    H124043   1.317   6.835   6.045  2.8411 -0.0478  2.4420
  876TIP3    H224044   1.313   6.687   6.073  1.6449 -0.5585 -0.0938
  877TIP3   OH224045   2.375   0.288   2.478  0.2301  0.0716 -0.2930
  877TIP3    H124046   2.362   0.291   2.573  0.3902  0.5607 -0.2861
  877TIP3    H224047   2.323   0.360   2.443  0.6121  0.2381 -0.5249
  878TIP3   OH224048   0.419   3.095  14.620  0.1064  0.2834  0.4617
  878TIP3    H124049   0.425   3.024  14.684 -1.7665 -0.0924  0.2798
  878TIP3    H224050   0.497   3.084  14.565  0.1194 -1.3456  0.7454
  879TIP3   OH224051   3.366   0.234  13.426 -0.0802  1.1551 -0.1960
  879TIP3    H124052   3.399   0.298  13.363  0.4514  1.1873  0.1053
  879TIP3    H224053   3.343   0.285  13.504 -0.4602  1.0816 -0.2578
  880TIP3   OH224054   1.919   5.833   1.025 -0.0228 -0.0692  0.4322
  880TIP3    H124055   1.943   5.785   0.946 -0.6025  2.8831 -1.7186
  880TIP3    H224056   1.843   5.787   1.059 -1.8280  0.3278 -2.6861
  881TIP3   OH224057   5.095   0.385  13.870 -0.2128 -0.6370 -0.3350
  881TIP3    H124058   5.027   0.419  13.929 -0.8898  2.7571 -2.7845
  881TIP3    H224059   5.052   0.315  13.821 -0.9952 -0.5353  0.1903
  882TIP3   OH224060   5.020   0.581  12.238  0.4508  0.2399 -0.5628
  882TIP3    H124061   5.109   0.547  12.246  0.1061 -0.4090  1.0225
  882TIP3    H224062   4.966   0.520  12.289 -0.5985  1.6921  0.1440
  883TIP3   OH224063   0.004   3.190  11.799 -0.8762  0.0511  0.1539
  883TIP3    H124064  -0.022   3.098  11.799  0.6462 -0.4211  0.8016
  883TIP3    H224065   0.067   3.196  11.871  0.1566  1.2548 -0.8102
  884TIP3   OH224066   3.488   6.525   1.592 -0.6149  0.2536  0.1129
  884TIP3    H124067   3.547   6.581   1.542  0.4440 -0.8121  0.1029
  884TIP3    H224068   3.545   6.484   1.658 -0.5801 -3.1470 -1.7763
  885TIP3   OH224069   1.954   4.455   2.982 -0.6112 -0.0934  0.6670
  885TIP3    H124070   1.859   4.466   2.978 -0.5650  0.2970  0.5291
  885TIP3    H224071   1.984   4.470   2.892 -0.1931  2.2080  1.1065
  886TIP3   OH224072   4.219   2.477  17.074  0.3442  0.7069 -0.1319
  886TIP3    H124073   4.254   2.565  17.090  1.6249  0.2270 -0.1547
  886TIP3    H224074   4.282   2.437  17.014  0.3225 -0.5583  0.6433
  887TIP3   OH224075   1.602   0.660   3.139 -0.7932  0.0184  0.1304
  887TIP3    H124076   1.633   0.720   3.207 -0.1775 -0.6309  0.4376
  887TIP3    H224077   1.558   0.590   3.188  0.7907 -1.1389 -0.0118
  888TIP3   OH224078   6.476   0.304  11.018 -0.4569 -0.2852 -0.6018
  888TIP3    H124079   6.420   0.233  11.048 -0.3228 -0.5765 -1.0331
  888TIP3    H224080   6.541   0.315  11.087 -1.2089  0.2503  0.0400
  889TIP3   OH224081   5.913   1.860   3.006 -0.6415 -0.3722 -0.2048
  889TIP3    H124082   5.905   1.947   2.966  0.0655 -0.0721  0.2789
  889TIP3    H224083   5.970   1.811   2.947  0.4552  0.0911  0.4248
  890TIP3   OH224084   4.880   1.653   4.536  0.2411 -0.2716 -0.5393
  890TIP3    H124085   4.934   1.577   4.557  1.7594  0.6006 -1.0975
  890TIP3    H224086   4.790   1.624   4.551  0.7338 -2.3316 -1.2329
  891TIP3   OH224087   1.727   6.491   5.013  0.2858  0.4831  0.5211
  891TIP3    H124088   1.774   6.556   5.066  0.6424  0.6014  0.0679
  891TIP3    H224089   1.645   6.477   5.060 -0.2839  2.0723  0.0776
  892TIP3   OH224090   3.865   3.071  11.079 -0.1608  0.0332 -0.3486
  892TIP3    H124091   3.935   3.005  11.078 -0.7488 -0.5955 -1.4495
  892TIP3    H224092   3.816   3.056  10.998 -1.3011  0.7604  0.1786
  893TIP3   OH224093   5.298   6.129  12.298 -0.0277  0.0442 -0.1204
  893TIP3    H124094   5.278   6.067  12.367  0.4120  0.6152  0.5382
  893TIP3    H224095   5.333   6.206  12.344  0.0622  0.5194 -0.9576
  894TIP3   OH224096   2.095   0.521   5.187 -0.1286  0.2860 -0.1764
  894TIP3    H124097   2.016   0.531   5.133 -0.2620 -1.1730 -0.2948
  894TIP3    H224098   2.074   0.565   5.269 -0.8052  0.5029 -0.4568
  895TIP3   OH224099   3.269   5.418   4.521 -0.3886  0.2110  0.2079
  895TIP3    H124100   3.270   5.387   4.611 -0.1658 -1.3509 -0.2934
  895TIP3    H224101   3.184   5.461   4.511 -0.4515  0.3118  1.1234
  896TIP3   OH224102   4.868   2.170  12.836 -0.3969 -0.0341  0.4864
  896TIP3    H124103   4.785   2.158  12.790 -0.6944  1.5115  0.5725
  896TIP3    H224104   4.920   2.225  12.778  0.3008 -0.3937  0.7610
  897TIP3   OH224105   5.944   6.074  14.942  0.2608 -0.0993 -0.1769
  897TIP3    H124106   6.017   6.136  14.931 -0.4014  0.2875 -3.6014
  897TIP3    H224107   5.873   6.113  14.891 -0.8692 -2.6336 -0.6387
  898TIP3   OH224108   1.020   3.259  14.013  0.2532  0.3988 -0.1967
  898TIP3    H124109   1.024   3.349  13.981  0.2451  0.0885 -1.0792
  898TIP3    H224110   1.070   3.208  13.950  0.1884 -0.2354  0.2514
  899TIP3   OH224111   1.197   6.488  16.577 -0.7121  0.2621 -0.5714
  899TIP3    H124112   1.161   6.556  16.633 -0.6176 -1.0662  1.2013
  899TIP3    H224113   1.262   6.533  16.524 -1.2323  1.7007 -0.0367
  900TIP3   OH224114   0.530   2.497   5.470  0.5336 -0.0453  0.2256
  900TIP3    H124115   0.447   2.545   5.479  0.2599 -0.4955  0.1155
  900TIP3    H224116   0.585   2.531   5.541  0.1881  0.1145  0.4205
  901TIP3   OH224117   1.504   4.973  13.119 -0.0438 -0.8126  0.0229
  901TIP3    H124118   1.410   4.990  13.109  0.0515 -1.0066 -1.3918
  901TIP3    H224119   1.546   5.057  13.104  0.0246 -0.7564  0.5138
  902TIP3   OH224120   0.951   2.889  16.897  0.1809  0.9290 -0.2358
  902TIP3    H124121   0.894   2.814  16.876  0.5854 -0.0424  1.8799
  902TIP3    H224122   0.979   2.922  16.812  0.1231 -1.4445 -1.2656
  903TIP3   OH224123   1.897   1.245  14.791 -0.0166 -0.0783  0.3685
  903TIP3    H124124   1.919   1.337  14.805 -0.0038 -0.3061  2.0579
  903TIP3    H224125   1.891   1.208  14.879 -0.0269 -1.7009 -0.2733
  904TIP3   OH224126   1.862   0.390  14.844 -0.7444  0.2393 -0.4059
  904TIP3    H124127   1.951   0.382  14.878 -0.7115  2.3782  0.1874
  904TIP3    H224128   1.838   0.302  14.818  0.8808 -0.7054  1.0801
  905TIP3   OH224129   3.079   0.329   0.221  0.5808 -0.0641 -0.0359
  905TIP3    H124130   3.032   0.271   0.281  0.5971 -0.2112 -0.1652
  905TIP3    H224131   3.062   0.293   0.134  2.4327 -1.2073  0.0438
  906TIP3   OH224132   1.504   0.890  15.244 -0.2254 -0.3300 -0.4565
  906TIP3    H124133   1.476   0.957  15.182  0.0562  0.8823  0.6935
  906TIP3    H224134   1.567   0.837  15.195 -1.9870 -1.0947 -2.0414
  907TIP3   OH224135   0.377   0.487   4.943 -0.2706  0.7974  0.4462
  907TIP3    H124136   0.394   0.433   5.021 -0.0899 -0.4757 -0.4318
  907TIP3    H224137   0.398   0.429   4.869  0.3971  2.2561 -0.5484
  908TIP3   OH224138   6.421   3.020  12.809 -0.1547  0.4465  0.0291
  908TIP3    H124139   6.353   3.076  12.847 -0.5195  0.0589 -0.0439
  908TIP3    H224140   6.500   3.074  12.810  0.1283  0.1083  2.3503
  909TIP3   OH224141   3.212   3.586   2.256 -0.6144 -0.0861  0.0973
  909TIP3    H124142   3.117   3.600   2.249 -0.3694  1.8616 -0.0736
  909TIP3    H224143   3.249   3.673   2.242  1.3364 -1.1585 -2.0124
  910TIP3   OH224144   5.989   4.270   5.646  0.2077 -0.1348 -0.5414
  910TIP3    H124145   5.956   4.272   5.556 -0.7770  0.7670 -0.1830
  910TIP3    H224146   5.916   4.236   5.697  0.6422 -0.3077 -0.0323
  911TIP3   OH224147   6.113   6.117  11.414 -0.5833 -0.0782 -0.3670
  911TIP3    H124148   6.019   6.106  11.425 -0.5282  0.3718  0.5844
  911TIP3    H224149   6.151   6.091  11.498  0.2506 -1.4488 -1.1226
  912TIP3   OH224150   0.474   3.864   3.702  1.2619  0.1925 -0.2152
  912TIP3    H124151   0.426   3.943   3.677  0.4244 -0.3575 -0.3699
  912TIP3    H224152   0.470   3.807   3.626  1.8148 -0.0278 -0.0854
  913TIP3   OH224153   2.616   3.968   2.320 -0.3131  0.3013  0.0502
  913TIP3    H124154   2.685   4.031   2.342 -0.1419  0.0766  0.1639
  913TIP3    H224155   2.580   3.941   2.405 -0.7468  0.6418 -0.0218
  914TIP3   OH224156   4.624   2.050  12.376 -0.2162 -0.1902  0.2015
  914TIP3    H124157   4.578   2.090  12.450  0.9428  0.4725  0.5846
  914TIP3    H224158   4.625   1.956  12.396  1.4430  0.1276  1.8486
  915TIP3   OH224159   1.468   1.229   2.124  0.3983 -0.5919 -0.0153
  915TIP3    H124160   1.485   1.251   2.215  0.3628  1.0833 -0.3733
  915TIP3    H224161   1.550   1.251   2.079 -0.3052  0.7379 -0.6979
  916TIP3   OH224162   6.626   5.945  17.123  0.0763  1.2884 -0.1812
  916TIP3    H124163   6.674   6.026  17.105 -0.2861  1.9306  1.6026
  916TIP3    H224164   6.575   5.964  17.201 -0.6906 -0.4003 -0.2342
  917TIP3   OH224165   5.684   6.311   1.410  0.2440  0.2145 -0.2967
  917TIP3    H124166   5.773   6.277   1.419  0.2313  0.3320  0.3127
  917TIP3    H224167   5.673   6.369   1.485  0.1255  1.2552 -1.0900
  918TIP3   OH224168   3.995   2.494   2.369  0.6982  0.2065  1.1918
  918TIP3    H124169   3.929   2.525   2.307  1.4597 -0.1964  0.1313
  918TIP3    H224170   3.972   2.535   2.452 -2.8887 -2.4629  1.7676
  919TIP3   OH224171   1.331   2.029  14.727  0.6118 -0.6270 -0.1587
  919TIP3    H124172   1.375   2.004  14.646  0.1278 -0.4172 -0.4897
  919TIP3    H224173   1.240   2.041  14.702  0.1891 -1.8239  0.6642
  920TIP3   OH224174   4.591   0.531   0.087 -0.1520  0.5188 -0.5698
  920TIP3    H124175   4.596   0.453   0.142  1.0587  0.2911 -0.9789
  920TIP3    H224176   4.503   0.529   0.051 -1.5514  1.4136  2.4144
  921TIP3   OH224177   0.019   4.465   5.834  0.4292 -0.4486 -0.1319
  921TIP3    H124178  -0.008   4.550   5.799 -0.9962 -0.5225  0.6861
  921TIP3    H224179   0.113   4.473   5.849  0.3035  1.0042 -0.0047
  922TIP3   OH224180   6.664   3.725  15.727  0.2246 -0.1789 -0.6507
  922TIP3    H124181   6.721   3.771  15.788  0.3500  0.6530 -1.3724
  922TIP3    H224182   6.724   3.690  15.661 -0.0634  0.6436 -1.3765
  923TIP3   OH224183   0.198   2.047   6.191 -0.7214  0.1135  0.3371
  923TIP3    H124184   0.201   2.113   6.122 -2.0691  0.2184  0.3539
  923TIP3    H224185   0.221   2.093   6.271 -1.4188  0.5273  0.3086
  924TIP3   OH224186   4.265   0.867  15.700  0.0999 -0.6061 -0.5997
  924TIP3    H124187   4.326   0.796  15.684  1.7244  0.5362  0.2911
  924TIP3    H224188   4.243   0.899  15.612  1.0264 -0.8437 -0.9297
  925TIP3   OH224189   0.070   1.690  16.339 -0.7263 -0.4844  0.1097
  925TIP3    H124190   0.143   1.631  16.317 -0.3889  0.4004 -1.2374
  925TIP3    H224191  -0.001   1.662  16.281 -0.7509  0.0451 -0.1207
  926TIP3   OH224192   3.675   4.757  12.832 -0.4385 -0.4478 -0.0287
  926TIP3    H124193   3.642   4.803  12.909  1.2331  0.0282  0.4500
  926TIP3    H224194   3.711   4.827  12.777 -0.8603 -0.8745 -0.8647
  927TIP3   OH224195   4.416   2.879  14.585  0.1310 -0.2565  0.1467
  927TIP3    H124196   4.437   2.829  14.664 -1.5509 -1.2894 -0.0161
  927TIP3    H224197   4.321   2.878  14.580  0.1831  0.1569 -1.6774
  928TIP3   OH224198   5.682   1.654  16.085 -0.1756  0.0718 -0.0433
  928TIP3    H124199   5.694   1.697  16.170 -2.1956  2.6780 -0.9484
  928TIP3    H224200   5.613   1.590  16.100 -0.2031  0.1951  0.3591
  929TIP3   OH224201   5.355   6.765  12.090  0.0235 -0.1971  0.3158
  929TIP3    H124202   5.426   6.700  12.089  0.6786  0.4968 -0.4395
  929TIP3    H224203   5.395   6.844  12.127  0.2233  0.7792 -1.8398
  930TIP3   OH224204   2.801   6.045  12.315 -0.2815 -0.7126  0.1231
  930TIP3    H124205   2.751   6.033  12.234  0.5275 -3.1559 -0.0847
  930TIP3    H224206   2.747   6.005  12.383  0.6728 -2.0750  0.1274
  931TIP3   OH224207   3.054   4.318   3.605 -1.0201  0.6284 -0.3951
  931TIP3    H124208   3.008   4.356   3.530 -1.6520 -1.1151 -0.9535
  931TIP3    H224209   3.065   4.391   3.666 -0.2949  2.1638 -2.2568
  932TIP3   OH224210   1.023   0.123   5.190  0.0364  0.3921 -0.2327
  932TIP3    H124211   1.036   0.089   5.279 -2.5578 -3.5391 -1.1252
  932TIP3    H224212   1.096   0.087   5.140 -1.0648 -1.5500 -0.5460
  933TIP3   OH224213   3.800   6.724  12.889 -0.2532  0.1521  0.8382
  933TIP3    H124214   3.708   6.700  12.890  0.0070 -1.0923  3.5758
  933TIP3    H224215   3.840   6.672  12.958  2.4382  1.0023  0.0689
  934TIP3   OH224216   1.258   0.243   4.021 -0.0601 -0.0073 -0.0778
  934TIP3    H124217   1.314   0.168   4.038 -1.7416 -1.0375  1.2394
  934TIP3    H224218   1.313   0.319   4.043  1.0233 -0.9329  0.5112
  935TIP3   OH224219   5.925   1.047  14.377  0.0344  0.7755 -0.3715
  935TIP3    H124220   5.988   0.995  14.426  0.7027  1.5749 -0.3694
  935TIP3    H224221   5.845   1.045  14.430 -0.1858 -0.8313 -0.7204
  936TIP3   OH224222   2.237   6.284   2.022  0.5022 -0.8926  0.0604
  936TIP3    H124223   2.209   6.206   2.070 -0.1255  0.1659  1.5087
  936TIP3    H224224   2.325   6.303   2.055 -0.4732  0.6621  2.0026
  937TIP3   OH224225   4.690   3.038  12.082 -0.1215 -0.2614  0.2758
  937TIP3    H124226   4.690   3.087  12.163 -0.1018 -1.6205  1.1318
  937TIP3    H224227   4.697   3.104  12.013  0.2987  0.8801  1.3890
  938TIP3   OH224228   4.700   0.439  13.120 -0.6005  0.0102 -0.8031
  938TIP3    H124229   4.739   0.454  13.206 -2.8318  1.0858  0.1221
  938TIP3    H224230   4.755   0.488  13.059  0.9621 -0.6830 -0.0114
  939TIP3   OH224231   2.956   1.898   0.936 -0.0024  0.2962  0.0505
  939TIP3    H124232   2.908   1.963   0.885 -2.4590 -0.8813  0.7073
  939TIP3    H224233   3.041   1.891   0.892 -0.2110  2.7715 -0.9402
  940TIP3   OH224234   0.244   0.682   5.856  0.1732 -0.3136 -0.8512
  940TIP3    H124235   0.314   0.674   5.792 -0.0839  1.0526 -1.3367
  940TIP3    H224236   0.232   0.594   5.890  1.7407 -0.6810 -1.1615
  941TIP3   OH224237   1.722   2.909   2.188 -0.5411  0.3231 -0.1093
  941TIP3    H124238   1.809   2.876   2.210 -0.2950 -0.5104 -2.1039
  941TIP3    H224239   1.674   2.831   2.158 -2.0204  0.7574  1.0024
  942TIP3   OH224240   1.839   2.634   4.875 -0.0319  0.0317  0.5129
  942TIP3    H124241   1.863   2.724   4.896 -0.7251  0.6194 -1.0478
  942TIP3    H224242   1.744   2.635   4.871  0.0180 -0.2676 -1.4613
  943TIP3   OH224243   4.094   5.343  11.651 -0.8083  0.5519 -0.2363
  943TIP3    H124244   4.054   5.429  11.647 -0.6806  0.6104 -0.2928
  943TIP3    H224245   4.158   5.343  11.579  0.6347  1.1448  0.9913
  944TIP3   OH224246   1.490   2.925  12.844  0.0080 -0.0558  0.8502
  944TIP3    H124247   1.445   3.000  12.882 -0.4476 -0.2131  0.6370
  944TIP3    H224248   1.423   2.882  12.790  0.4466 -0.2338  0.4404
  945TIP3   OH224249   4.246   6.258  13.713 -0.0188 -0.3160 -0.4144
  945TIP3    H124250   4.153   6.261  13.736  0.2414 -1.4808  0.9315
  945TIP3    H224251   4.286   6.328  13.765  0.0434 -0.7040  0.0740
  946TIP3   OH224252   5.511   2.358   3.142 -0.4467  0.3164  0.5694
  946TIP3    H124253   5.444   2.426   3.135 -1.4819 -0.4804  2.2481
  946TIP3    H224254   5.466   2.276   3.124 -0.2759 -0.3630  2.8979
  947TIP3   OH224255   2.692   1.922  13.152  0.3114  0.1138  0.2079
  947TIP3    H124256   2.605   1.896  13.121 -0.3705  1.5603  0.8304
  947TIP3    H224257   2.715   1.998  13.099  1.4368 -0.5404 -0.2801
  948TIP3   OH224258   6.085   1.831  13.703 -0.8733  0.4979 -0.1354
  948TIP3    H124259   6.150   1.893  13.669  1.9149 -2.6885 -1.2230
  948TIP3    H224260   6.099   1.831  13.797 -1.3640  1.9350 -0.0489
  949TIP3   OH224261   4.200   4.090   5.729  0.2381 -0.5832 -0.3393
  949TIP3    H124262   4.213   4.013   5.673 -0.5490 -0.2983 -0.9401
  949TIP3    H224263   4.133   4.063   5.791 -0.0789 -0.3704 -0.5856
  950TIP3   OH224264   5.473   5.154  16.681 -0.2006 -0.2346  0.7189
  950TIP3    H124265   5.479   5.238  16.636  0.7693 -0.2032  0.8862
  950TIP3    H224266   5.524   5.093  16.627 -0.4519 -0.5884  0.8767
  951TIP3   OH224267   5.368   6.014   6.475  0.5154  0.5447 -0.2180
  951TIP3    H124268   5.336   5.941   6.528  1.0363  1.5920  1.6063
  951TIP3    H224269   5.292   6.070   6.463  0.1460 -0.1736 -1.5172
  952TIP3   OH224270   0.032   3.602  14.194  0.1381 -0.2699 -0.3712
  952TIP3    H124271  -0.054   3.635  14.220  0.9119  0.8553  0.9247
  952TIP3    H224272   0.038   3.619  14.100 -1.1976 -0.7310 -0.5522
  953TIP3   OH224273   0.367   0.208   3.463  0.1117 -0.2433 -0.4037
  953TIP3    H124274   0.326   0.187   3.547  0.0988  2.3474  0.3123
  953TIP3    H224275   0.451   0.247   3.487  0.8950 -1.0577 -1.6973
  954TIP3   OH224276   5.014   6.070  13.605  0.1599  0.5022  0.3142
  954TIP3    H124277   5.066   5.992  13.584 -2.7672 -1.5143 -0.1401
  954TIP3    H224278   5.078   6.137  13.628  2.8636 -2.3519  1.8854
  955TIP3   OH224279   0.232   1.459   3.817  0.1218  0.3591 -0.3378
  955TIP3    H124280   0.275   1.543   3.803  0.5230  0.4406  1.1349
  955TIP3    H224281   0.289   1.413   3.879 -0.8040 -0.4200 -0.0291
  956TIP3   OH224282   5.979   3.893   4.159 -0.3327 -0.3423 -0.1152
  956TIP3    H124283   5.973   3.823   4.094  0.6424 -1.2865  0.7732
  956TIP3    H224284   6.046   3.951   4.124 -0.9628  0.0246 -0.7316
  957TIP3   OH224285   3.464   6.261   3.251  0.3232  0.3439 -0.6354
  957TIP3    H124286   3.388   6.226   3.298  1.2386  0.1023  0.6938
  957TIP3    H224287   3.432   6.273   3.161 -1.8676  2.0464  0.2706
  958TIP3   OH224288   6.109   3.616  15.470  0.4873 -0.3963  0.2776
  958TIP3    H124289   6.117   3.530  15.510  3.4032 -0.5099 -0.3649
  958TIP3    H224290   6.076   3.672  15.540  0.3942 -1.6314  1.2514
  959TIP3   OH224291   3.771   2.588  15.827 -0.4027 -0.7119 -0.0352
  959TIP3    H124292   3.837   2.645  15.787 -2.2917  1.1816 -0.6450
  959TIP3    H224293   3.776   2.608  15.920 -0.2679 -0.3951 -0.1084
  960TIP3   OH224294   5.152   2.878  15.567 -0.1521 -0.1649 -0.2093
  960TIP3    H124295   5.102   2.803  15.532  0.2711 -1.2910  1.5055
  960TIP3    H224296   5.232   2.839  15.603  0.0020  1.0908  0.8654
  961TIP3   OH224297   1.956   5.782  12.527 -0.3985  0.5722  0.2649
  961TIP3    H124298   1.926   5.801  12.438  0.3782 -0.6349 -0.2784
  961TIP3    H224299   1.986   5.866  12.561 -1.5872  1.2363 -0.2516
  962TIP3   OH224300   5.312   0.457  12.923 -0.2242  0.0518  0.4818
  962TIP3    H124301   5.320   0.400  12.847 -1.2960  0.6181 -0.0875
  962TIP3    H224302   5.239   0.516  12.901  2.4523  3.4837 -0.1936
  963TIP3   OH224303   2.572   3.138  13.280 -0.0906  0.0089 -0.8075
  963TIP3    H124304   2.655   3.125  13.234 -0.9688  0.1303 -2.5523
  963TIP3    H224305   2.578   3.226  13.316  1.0353 -0.4819  0.2315
  964TIP3   OH224306   1.581   0.756  16.764 -0.3828 -0.1983 -0.4853
  964TIP3    H124307   1.564   0.845  16.796 -1.8702 -0.5049 -0.3189
  964TIP3    H224308   1.579   0.764  16.669  0.6092  0.1261 -0.4892
  965TIP3   OH224309   5.447   1.521   3.301 -0.1440 -0.1584 -0.4033
  965TIP3    H124310   5.397   1.545   3.223 -0.3500 -1.2029 -0.6116
  965TIP3    H224311   5.538   1.527   3.274 -0.2145 -0.5415 -0.7491
  966TIP3   OH224312   2.320   4.334   2.733  0.0517 -0.3517 -0.7774
  966TIP3    H124313   2.309   4.336   2.828 -1.3108 -1.1966 -0.8925
  966TIP3    H224314   2.295   4.245   2.708 -2.9656  0.7650 -2.2617
  967TIP3   OH224315   6.284   4.930   3.867  0.1115 -0.2477  0.2510
  967TIP3    H124316   6.298   4.931   3.773  2.8764 -0.1953  0.5791
  967TIP3    H224317   6.288   5.022   3.894 -0.5384 -0.2720  0.4626
  968TIP3   OH224318   4.136   2.062   0.098  0.1150 -0.2899  0.1296
  968TIP3    H124319   4.135   2.151   0.065  2.0045 -0.0578  0.6120
  968TIP3    H224320   4.095   2.068   0.184 -0.9460 -0.1511 -0.3636
  969TIP3   OH224321   3.369   3.866  13.439  0.8603  0.6203  0.5589
  969TIP3    H124322   3.431   3.841  13.507  0.5453  1.2187  1.0794
  969TIP3    H224323   3.287   3.884  13.487  0.2168 -0.3796 -0.1292
  970TIP3   OH224324   1.747   4.518  16.104  0.4840 -0.0603 -0.2864
  970TIP3    H124325   1.772   4.536  16.013 -2.4083 -0.5445 -1.2921
  970TIP3    H224326   1.814   4.563  16.156  1.8209  0.8938 -2.6356
  971TIP3   OH224327   0.687   2.089  13.690  0.0192 -0.5111 -0.1772
  971TIP3    H124328   0.702   2.063  13.781 -2.2854  0.1077  0.4426
  971TIP3    H224329   0.774   2.113  13.657  0.9825 -1.2319  1.6830
  972TIP3   OH224330   3.813   2.963   1.779 -0.3590  0.2614 -0.4768
  972TIP3    H124331   3.771   3.017   1.846 -0.7184  0.6769 -1.0265
  972TIP3    H224332   3.792   3.007   1.697 -2.2984 -1.7526 -1.1440
  973TIP3   OH224333   5.568   3.786   2.992 -0.3855  0.3248 -0.5930
  973TIP3    H124334   5.495   3.755   3.046  0.0307 -1.3103 -0.9296
  973TIP3    H224335   5.613   3.850   3.047 -1.4910  0.6268 -0.0137
  974TIP3   OH224336   5.304   5.716   0.593 -0.0913 -0.1187  0.2272
  974TIP3    H124337   5.288   5.749   0.682  3.2776  1.4353  0.4234
  974TIP3    H224338   5.281   5.789   0.536  0.8908  0.1148  0.1168
  975TIP3   OH224339   2.695   3.883  14.696  0.0711  0.5712  0.0553
  975TIP3    H124340   2.736   3.798  14.677  0.7686  1.0195 -0.4840
  975TIP3    H224341   2.741   3.914  14.774  0.4773  0.8782 -0.3004
  976TIP3   OH224342   6.146   4.382  16.635 -0.1487 -0.0099  0.2152
  976TIP3    H124343   6.109   4.297  16.659  0.8644 -1.0945 -1.7945
  976TIP3    H224344   6.236   4.379  16.667 -0.6207  1.0865  1.7450
  977TIP3   OH224345   4.596   4.744   4.385 -0.0959  0.0053 -0.1087
  977TIP3    H124346   4.634   4.752   4.473 -0.1931 -1.1178  0.0534
  977TIP3    H224347   4.647   4.674   4.344  0.5455  1.1160 -1.2945
  978TIP3   OH224348   2.087   4.231  12.791 -0.1546  0.6215 -0.2242
  978TIP3    H124349   2.009   4.245  12.845  0.5237  0.9542  0.6913
  978TIP3    H224350   2.071   4.285  12.713 -1.7235 -0.8774 -1.0069
  979TIP3   OH224351   5.174   6.315   0.216 -0.0998 -0.3109 -0.2881
  979TIP3    H124352   5.227   6.235   0.223 -0.2582 -0.3302  1.0996
  979TIP3    H224353   5.210   6.361   0.140 -0.7173 -2.1875 -1.7967
  980TIP3   OH224354   4.512   6.132  13.253 -0.0728  0.8264  0.0893
  980TIP3    H124355   4.530   6.091  13.338 -0.3474 -0.9302 -0.6537
  980TIP3    H224356   4.595   6.173  13.229  0.6161 -0.3536  0.3293
  981TIP3   OH224357   1.887   5.709   0.440 -0.1614 -0.8246  0.1813
  981TIP3    H124358   1.833   5.631   0.425 -0.9502 -0.0064 -1.3437
  981TIP3    H224359   1.971   5.687   0.400 -0.1951 -1.0894  0.2485
  982TIP3   OH224360   2.094   4.619  12.365  0.1812 -0.3420 -0.1213
  982TIP3    H124361   2.144   4.685  12.317  0.7797  0.4820  1.5598
  982TIP3    H224362   2.159   4.578  12.423 -0.6106 -0.9701  0.3404
  983TIP3   OH224363   1.716   5.301  15.159  0.6219 -0.3233  0.0460
  983TIP3    H124364   1.721   5.250  15.240  1.2711 -0.2595  0.0553
  983TIP3    H224365   1.711   5.235  15.090  0.2871 -0.3813  0.1250
  984TIP3   OH224366   1.407   0.805  11.458  0.1145  0.0656 -0.1505
  984TIP3    H124367   1.348   0.805  11.383 -0.9627  0.4229  0.6748
  984TIP3    H224368   1.489   0.841  11.424 -0.6221  1.0366 -0.9640
  985TIP3   OH224369   6.458   4.342   6.354 -0.0870 -0.0336 -0.0715
  985TIP3    H124370   6.481   4.264   6.304 -2.2366 -0.6525 -0.2290
  985TIP3    H224371   6.479   4.321   6.444 -0.8657 -0.9377 -0.0786
  986TIP3   OH224372   1.554   3.131   5.322 -0.2845  0.5674 -0.4538
  986TIP3    H124373   1.649   3.125   5.320 -0.2312  0.3376  1.1120
  986TIP3    H224374   1.527   3.066   5.387 -1.4419  1.1986 -0.2719
  987TIP3   OH224375   2.657   6.618  13.335  0.3315 -0.5220  0.3209
  987TIP3    H124376   2.726   6.656  13.280  0.4344  0.6616  1.2003
  987TIP3    H224377   2.682   6.643  13.424 -0.8536 -0.6859  0.7197
  988TIP3   OH224378   3.208   6.562  10.379  0.7367  0.0318  0.6949
  988TIP3    H124379   3.182   6.549  10.470 -0.9786  3.7808  0.9087
  988TIP3    H224380   3.132   6.602  10.338  1.7997 -0.6832 -2.1914
  989TIP3   OH224381   0.584   6.306   0.452  0.0354  0.1409  0.4167
  989TIP3    H124382   0.628   6.221   0.453  0.9653  0.6195  0.6012
  989TIP3    H224383   0.594   6.337   0.363  2.3466  1.4013  1.0608
  990TIP3   OH224384   4.525   2.646   3.465  0.9244 -0.1539 -0.4387
  990TIP3    H124385   4.514   2.612   3.376  1.2687  0.5045 -0.7400
  990TIP3    H224386   4.533   2.741   3.453  0.4705 -0.0155  0.3439
  991TIP3   OH224387   0.486   3.946  12.908 -0.1527  0.4861 -0.0221
  991TIP3    H124388   0.518   3.856  12.914  2.1417  1.3140  1.9209
  991TIP3    H224389   0.473   3.961  12.814  0.9400 -1.3818 -0.5194
  992TIP3   OH224390   3.999   0.757  16.333  0.4755 -0.6421  0.8773
  992TIP3    H124391   3.945   0.818  16.283  1.8160 -0.1247 -0.0219
  992TIP3    H224392   3.954   0.747  16.416 -0.8764 -0.0870  0.2474
  993TIP3   OH224393   2.562   4.082   5.302 -0.4685 -0.4187  0.1514
  993TIP3    H124394   2.560   3.989   5.281 -0.0032 -0.6865  1.2647
  993TIP3    H224395   2.655   4.104   5.303 -0.5932  0.3725 -1.3491
  994TIP3   OH224396   2.709   0.599   5.258  0.4315 -0.4193  0.8821
  994TIP3    H124397   2.719   0.691   5.233  1.9337 -1.1889 -1.7033
  994TIP3    H224398   2.798   0.569   5.274  0.1281 -1.7829  0.1461
  995TIP3   OH224399   0.124   6.187  16.296  0.3869 -0.5015 -0.1048
  995TIP3    H124400   0.172   6.153  16.220 -0.6645 -0.5924 -0.7605
  995TIP3    H224401   0.082   6.266  16.263 -0.3142 -0.7021  0.2934
  996TIP3   OH224402   3.741   3.484  14.913  0.4958 -0.2342 -0.1905
  996TIP3    H124403   3.813   3.436  14.954 -0.1293  0.2077  1.4976
  996TIP3    H224404   3.784   3.552  14.860  1.3295  0.1601  0.9642
  997TIP3   OH224405   0.749   2.203   1.660 -0.2574  0.1376  1.0018
  997TIP3    H124406   0.840   2.178   1.678 -0.6566 -1.1424  1.3869
  997TIP3    H224407   0.755   2.288   1.617  1.3719 -1.4483 -2.2373
  998TIP3   OH224408   1.818   4.181  12.240 -1.0865 -0.7155  0.2497
  998TIP3    H124409   1.791   4.134  12.319  0.9622  0.0492  1.5035
  998TIP3    H224410   1.851   4.265  12.272  2.0209 -1.2767 -1.0501
  999TIP3   OH224411   4.149   4.580  16.891 -0.3897 -0.7791  0.0884
  999TIP3    H124412   4.171   4.534  16.973 -3.1528 -1.0221  0.7952
  999TIP3    H224413   4.057   4.560  16.876 -1.1123  2.5812 -0.8799
 1000TIP3   OH224414   2.295   1.615   2.853  0.2368  0.3160 -0.5562
 1000TIP3    H124415   2.317   1.530   2.889  0.0173 -0.0826 -1.3367
 1000TIP3    H224416   2.338   1.678   2.910 -1.7472 -0.1700  1.6269
 1001TIP3   OH224417   2.087   6.722  12.742 -0.0350  0.1530  0.3258
 1001TIP3    H124418   2.096   6.671  12.822 -1.1427 -3.8940 -1.8916
 1001TIP3    H224419   2.166   6.776  12.738  1.0228 -1.0606  3.0587
 1002TIP3   OH224420   1.501   5.217   3.432  0.4510  0.3642  0.0701
 1002TIP3    H124421   1.411   5.246   3.446  0.0586 -1.5960  2.2728
 1002TIP3    H224422   1.546   5.239   3.514  1.3734 -0.6984 -0.1257
 1003TIP3   OH224423   4.738   2.738   1.774  0.4999  0.1868  0.8245
 1003TIP3    H124424   4.685   2.818   1.782 -1.8602 -1.3911  2.1392
 1003TIP3    H224425   4.787   2.733   1.856 -0.6126 -0.5187  1.4652
 1004TIP3   OH224426   0.819   4.141  11.296  0.1863 -0.7192 -1.0281
 1004TIP3    H124427   0.841   4.178  11.211 -0.4439 -0.9863 -1.3138
 1004TIP3    H224428   0.851   4.051  11.292  2.7962  0.0714  0.0973
 1005TIP3   OH224429   0.531   1.538   1.446  0.0182  0.3560 -0.0362
 1005TIP3    H124430   0.614   1.570   1.481  0.9269 -1.0418 -0.8064
 1005TIP3    H224431   0.477   1.616   1.434  1.2086  1.2836  0.5035
 1006TIP3   OH224432   3.635   3.118   1.078  0.1594  0.1886 -0.1358
 1006TIP3    H124433   3.624   3.030   1.042 -0.2171  0.9161 -1.8750
 1006TIP3    H224434   3.570   3.172   1.033  1.3362  1.6603 -0.1514
 1007TIP3   OH224435   1.152   4.022  13.991 -0.0519 -0.1253 -0.6053
 1007TIP3    H124436   1.183   4.029  13.901 -1.6593  0.6366 -1.1478
 1007TIP3    H224437   1.201   4.089  14.039  0.9166 -0.6334 -0.8574
 1008TIP3   OH224438   4.499   4.436   3.737  0.2355  0.3780 -0.0648
 1008TIP3    H124439   4.479   4.459   3.646  0.0595 -0.4779 -0.2521
 1008TIP3    H224440   4.422   4.463   3.787 -0.4415 -0.7886 -0.4423
 1009TIP3   OH224441   0.469   2.542   5.868  0.3039  0.1213 -0.0661
 1009TIP3    H124442   0.397   2.507   5.815  1.1882  0.5318 -1.5896
 1009TIP3    H224443   0.446   2.518   5.958 -1.2512 -0.5856 -0.6135
 1010TIP3   OH224444   2.071   4.946  13.744 -0.1210 -0.4790 -0.4591
 1010TIP3    H124445   2.112   5.011  13.801  0.4577  1.1380 -2.5823
 1010TIP3    H224446   1.977   4.962  13.752 -0.0666 -0.4518  0.1956
 1011TIP3   OH224447   5.718   2.605   1.676  0.0334  0.7035 -0.0913
 1011TIP3    H124448   5.653   2.592   1.746  0.7866  0.2399  0.5390
 1011TIP3    H224449   5.698   2.539   1.611  0.2510  0.1501  0.3955
 1012TIP3   OH224450   2.700   4.289   2.593  0.1188  0.0805  0.0797
 1012TIP3    H124451   2.747   4.211   2.623  2.0957  1.2129  0.0895
 1012TIP3    H224452   2.672   4.332   2.673  0.8023  0.3980  0.1578
 1013TIP3   OH224453   5.872   3.519  12.963 -0.3089 -0.0500 -0.2590
 1013TIP3    H124454   5.784   3.495  12.932 -1.0923  0.9908  1.0873
 1013TIP3    H224455   5.920   3.436  12.963 -1.6487 -0.8599  0.1385
 1014TIP3   OH224456   3.034   0.218  17.126  0.1254 -0.4160  0.1182
 1014TIP3    H124457   2.951   0.188  17.090  0.4243 -0.2397 -0.7643
 1014TIP3    H224458   3.063   0.287  17.065  0.9384 -0.5140  0.3760
 1015TIP3   OH224459   3.957   2.387  15.127 -0.1989 -0.2942  0.0514
 1015TIP3    H124460   3.986   2.365  15.216  0.5697 -0.7408 -0.3036
 1015TIP3    H224461   3.927   2.304  15.090 -1.2730  0.0302  0.1524
 1016TIP3   OH224462   4.121   1.175  15.080 -1.0467  0.6152  0.8316
 1016TIP3    H124463   4.216   1.181  15.086 -0.8798  1.1951 -1.4815
 1016TIP3    H224464   4.099   1.219  14.998 -3.1255 -1.2373  0.3015
 1017TIP3   OH224465   4.072   4.975   5.014  0.2508 -0.2978 -0.5700
 1017TIP3    H124466   3.981   4.977   5.044  0.5743 -0.3277  0.4681
 1017TIP3    H224467   4.074   4.908   4.946 -0.1067 -1.8374  0.8589
 1018TIP3   OH224468   5.362   0.611   4.618 -0.1384  0.6836  0.2388
 1018TIP3    H124469   5.419   0.660   4.560 -2.2386  3.4884  0.2925
 1018TIP3    H224470   5.404   0.616   4.704  1.5529 -1.0123 -0.4366
 1019TIP3   OH224471   0.796   3.447   5.958 -0.2715 -0.0275 -0.0036
 1019TIP3    H124472   0.762   3.372   5.909 -0.9804  0.0276  0.4024
 1019TIP3    H224473   0.731   3.516   5.946 -0.6509 -0.1301  1.3252
 1020TIP3   OH224474   0.483   0.137  15.218 -0.1301  0.1388  0.1656
 1020TIP3    H124475   0.564   0.167  15.176  0.3818 -1.2634  0.0890
 1020TIP3    H224476   0.510   0.110  15.305 -0.7609  0.8308  0.5818
 1021TIP3   OH224477   5.078   0.605   4.214  0.0300 -0.2116 -0.7733
 1021TIP3    H124478   5.010   0.602   4.147 -0.1980  1.0097 -0.6141
 1021TIP3    H224479   5.137   0.675   4.185 -1.1491  1.7199  1.2806
 1022TIP3   OH224480   3.262   4.488   2.557  0.2366 -0.0647  0.0275
 1022TIP3    H124481   3.353   4.495   2.586  0.5210  0.4705 -0.9579
 1022TIP3    H224482   3.250   4.395   2.537  0.5203 -0.1606  0.3062
 1023TIP3   OH224483   0.126   2.901   4.425  0.8650  0.0208  0.1093
 1023TIP3    H124484   0.157   2.920   4.514 -0.1941 -0.8964  0.7113
 1023TIP3    H224485   0.049   2.958   4.414  1.0464  0.1958 -0.2570
 1024TIP3   OH224486   1.346   1.495   2.275  0.3420 -0.4733  0.2585
 1024TIP3    H124487   1.439   1.483   2.255  0.0761 -2.9109  0.1096
 1024TIP3    H224488   1.306   1.411   2.251 -1.5283 -0.3101  2.4635
 1025TIP3   OH224489   5.488   6.257  13.005 -0.0781 -0.3964  0.1116
 1025TIP3    H124490   5.424   6.308  13.055 -1.8412 -2.0402 -0.3281
 1025TIP3    H224491   5.551   6.226  13.069  1.5071  2.8255  0.3033
 1026TIP3   OH224492   4.751   1.553  12.503 -0.2689  0.4022  0.2611
 1026TIP3    H124493   4.765   1.495  12.577 -0.2566  0.1974  0.0986
 1026TIP3    H224494   4.698   1.502  12.441 -0.0741  0.4830  0.0245
 1027TIP3   OH224495   1.887   2.272  14.625  0.4713  0.5971  0.2903
 1027TIP3    H124496   1.837   2.205  14.578  0.0622  0.6822  0.5972
 1027TIP3    H224497   1.918   2.331  14.556  1.2083 -0.1413 -0.0269
 1028TIP3   OH224498   5.883   3.783   1.028 -0.4107 -0.0321  0.3750
 1028TIP3    H124499   5.900   3.831   1.109 -0.1792 -0.3088  0.4936
 1028TIP3    H224500   5.916   3.841   0.958 -0.2850  0.0515  0.5036
 1029TIP3   OH224501   1.869   6.081  13.023  0.0695  0.8960  0.1215
 1029TIP3    H124502   1.935   6.027  12.979 -0.0736 -0.8895  1.9804
 1029TIP3    H224503   1.804   6.100  12.954  0.8962 -0.0215 -0.9460
 1030TIP3   OH224504   2.358   0.426   1.610  0.3115  0.4010  0.5979
 1030TIP3    H124505   2.438   0.374   1.622 -0.5950 -1.2023 -0.0742
 1030TIP3    H224506   2.390   0.516   1.601  2.1572 -0.3368 -0.9854
 1031TIP3   OH224507   6.122   4.651   1.864  0.5922 -0.0053  0.1965
 1031TIP3    H124508   6.048   4.609   1.907  0.7380  0.4168  0.8582
 1031TIP3    H224509   6.194   4.642   1.926  0.4711  1.7971  0.6349
 1032TIP3   OH224510   0.916   1.915   4.352 -0.2621 -0.2015 -0.2317
 1032TIP3    H124511   0.952   1.842   4.301 -1.1523 -0.0581 -1.0954
 1032TIP3    H224512   0.971   1.990   4.331 -0.1471 -0.3249 -0.3645
 1033TIP3   OH224513   6.429   3.117   5.654  0.9410 -0.1873 -0.2763
 1033TIP3    H124514   6.521   3.089   5.649  0.9707 -0.0886 -0.2961
 1033TIP3    H224515   6.433   3.206   5.690  0.8519 -0.1886 -0.2629
 1034TIP3   OH224516   3.375   2.966   3.487 -0.0525  0.0116 -0.4430
 1034TIP3    H124517   3.403   2.951   3.578 -0.9952  0.8796  0.0199
 1034TIP3    H224518   3.343   2.881   3.457  0.4325 -0.3245 -0.0243
 1035TIP3   OH224519   0.129   1.195  11.564 -0.2991 -0.4451  0.0225
 1035TIP3    H124520   0.115   1.102  11.579  0.3593 -0.5177  0.2388
 1035TIP3    H224521   0.218   1.211  11.597 -0.9054  0.5350  1.2572
 1036TIP3   OH224522   0.537   3.865   4.479 -0.4608 -0.0355  0.0406
 1036TIP3    H124523   0.587   3.845   4.557  0.7071  0.6209 -0.5214
 1036TIP3    H224524   0.529   3.781   4.433 -1.8522 -0.5880  1.2208
 1037TIP3   OH224525   4.556   5.133   4.994  0.0388 -0.2785 -0.0680
 1037TIP3    H124526   4.619   5.143   4.923 -0.8640  1.5423 -0.6619
 1037TIP3    H224527   4.472   5.122   4.949 -0.2846 -1.2682  0.7324
 1038TIP3   OH224528   5.292   3.433  15.468 -0.3252  0.0015  0.2321
 1038TIP3    H124529   5.356   3.466  15.405 -0.0027  0.6294  0.8848
 1038TIP3    H224530   5.306   3.485  15.547 -0.9459 -0.5571  0.7224
 1039TIP3   OH224531   0.070   0.570   4.594 -0.4729  0.0305  0.6209
 1039TIP3    H124532   0.007   0.504   4.566  2.3852 -2.5401 -0.3220
 1039TIP3    H224533   0.085   0.551   4.687  0.6810 -1.0497  0.2436
 1040TIP3   OH224534   1.804   3.848   1.435  0.9834  0.3708 -0.0174
 1040TIP3    H124535   1.894   3.868   1.408  0.5965  0.3232 -1.4365
 1040TIP3    H224536   1.813   3.777   1.499  2.1015  2.1263  1.9036
 1041TIP3   OH224537   2.229   2.095  10.972  0.2658 -0.3273 -0.4849
 1041TIP3    H124538   2.287   2.032  10.928  0.4286 -1.3858  1.1454
 1041TIP3    H224539   2.288   2.165  11.000  0.7825 -1.3168  1.0159
 1042TIP3   OH224540   3.774   3.128  17.027 -0.1840  0.2817  0.0994
 1042TIP3    H124541   3.712   3.058  17.007 -0.8343  0.8886 -0.0612
 1042TIP3    H224542   3.844   3.118  16.963  1.4260 -2.2093  2.0670
 1043TIP3   OH224543   2.924   1.715  13.476  0.1483 -0.2987  0.2971
 1043TIP3    H124544   2.921   1.660  13.397 -0.5374  0.9572 -0.5903
 1043TIP3    H224545   2.939   1.804  13.443 -1.7586  0.5098  1.4282
 1044TIP3   OH224546   0.223   3.315  15.024 -0.5000 -0.2924 -0.4357
 1044TIP3    H124547   0.224   3.371  15.102  1.5095 -2.7271  1.4622
 1044TIP3    H224548   0.270   3.367  14.958  0.6226  0.6225  0.9973
 1045TIP3   OH224549   6.497   1.929  11.860  0.3055  0.4121 -0.5881
 1045TIP3    H124550   6.413   1.974  11.862  0.0519 -0.0675 -0.3004
 1045TIP3    H224551   6.527   1.930  11.951 -0.8300 -2.0720 -0.1082
 1046TIP3   OH224552   2.510   0.955   2.372  0.5135  0.0620 -0.0518
 1046TIP3    H124553   2.566   0.945   2.449 -0.9328 -0.0223  1.0154
 1046TIP3    H224554   2.453   0.879   2.373  0.9207 -0.2925 -1.6159
 1047TIP3   OH224555   0.571   4.770  16.312 -0.0461  0.1045  0.2953
 1047TIP3    H124556   0.639   4.829  16.278 -0.7320  1.1065  0.6048
 1047TIP3    H224557   0.541   4.812  16.393 -0.8363 -0.4656  0.3124
 1048TIP3   OH224558   0.879   4.314   1.706  0.6233 -0.2119  0.3390
 1048TIP3    H124559   0.969   4.286   1.723  1.6035  1.2092 -2.0198
 1048TIP3    H224560   0.882   4.409   1.710 -0.8571 -0.1496  0.5247
 1049TIP3   OH224561   6.323   0.578  11.219  0.0951 -0.3844  0.0203
 1049TIP3    H124562   6.383   0.623  11.278  0.0857 -0.8129  0.3618
 1049TIP3    H224563   6.297   0.499  11.266  0.7078 -1.1391 -0.8597
 1050TIP3   OH224564   1.946   5.231   2.576  0.1171  0.2576  0.2977
 1050TIP3    H124565   2.003   5.174   2.626  0.3164 -0.1108 -0.3425
 1050TIP3    H224566   1.952   5.199   2.486 -1.2286  0.0979  0.2380
 1051TIP3   OH224567   2.930   6.076  16.635  0.6257  0.3527  0.0589
 1051TIP3    H124568   2.863   6.115  16.692  1.9131  0.2380  1.7165
 1051TIP3    H224569   2.944   6.142  16.567  0.3567  1.3196  0.9131
 1052TIP3   OH224570   4.335   0.576  11.283 -0.1796  0.2426  0.7122
 1052TIP3    H124571   4.257   0.526  11.308 -0.5177  0.1519 -0.4516
 1052TIP3    H224572   4.300   0.659  11.250  0.1797  0.0308 -0.2174
 1053TIP3   OH224573   5.978   4.658  14.741  0.2394  0.0656  0.1144
 1053TIP3    H124574   6.031   4.734  14.765 -1.0911  1.1442 -0.2244
 1053TIP3    H224575   5.959   4.670  14.648 -2.2454  0.8125  0.6470
 1054TIP3   OH224576   2.231   4.590   4.378  0.0663  0.1003  0.2964
 1054TIP3    H124577   2.197   4.538   4.305  0.7366 -2.2282  1.5331
 1054TIP3    H224578   2.160   4.652   4.398 -0.1908  0.6936 -2.1618
 1055TIP3   OH224579   3.730   2.666  16.932 -0.4550  0.4289 -0.5427
 1055TIP3    H124580   3.824   2.685  16.931 -0.6340  1.3516 -0.4960
 1055TIP3    H224581   3.710   2.639  16.842 -0.3605  1.3689 -0.8564
 1056TIP3   OH224582   2.547   5.341  13.887  0.5250 -0.2693  0.7209
 1056TIP3    H124583   2.554   5.386  13.971 -3.2843 -1.6558  2.0181
 1056TIP3    H224584   2.515   5.253  13.910 -0.7462 -0.6792 -2.1584
 1057TIP3   OH224585   2.027   1.782   1.926 -0.0869  0.2082 -0.2772
 1057TIP3    H124586   2.066   1.867   1.908  1.0421  0.0840  1.4408
 1057TIP3    H224587   2.101   1.721   1.927 -0.8279 -0.7460 -1.0599
 1058TIP3   OH224588   3.785   5.663  15.950 -0.2773 -0.5196 -0.1442
 1058TIP3    H124589   3.697   5.637  15.924 -0.9806  0.1951  1.4471
 1058TIP3    H224590   3.774   5.706  16.034  1.4521  0.6189 -0.4537
 1059TIP3   OH224591   2.958   1.051   3.344  0.2329 -0.2401 -0.3712
 1059TIP3    H124592   2.986   1.113   3.277 -1.1925 -0.2148 -0.9891
 1059TIP3    H224593   2.967   0.965   3.302  1.7426 -0.4389  0.3130
 1060TIP3   OH224594   4.407   0.303  10.880 -0.0740 -0.1642 -0.0207
 1060TIP3    H124595   4.502   0.312  10.887  0.0545 -1.1837 -0.2364
 1060TIP3    H224596   4.391   0.298  10.785 -0.4863  1.2371 -0.0479
 1061TIP3   OH224597   5.242   6.611  11.453 -0.2523 -0.0236  0.2288
 1061TIP3    H124598   5.258   6.662  11.533  1.6223 -0.3127  0.0855
 1061TIP3    H224599   5.198   6.672  11.394 -2.5774 -0.0797  1.7637
 1062TIP3   OH224600   3.266   6.718  12.930 -0.2347 -0.0979 -0.7252
 1062TIP3    H124601   3.258   6.644  12.870  0.9352 -0.3527 -0.5864
 1062TIP3    H224602   3.344   6.699  12.982 -1.4149 -0.0704  1.1614
 1063TIP3   OH224603   3.443   5.611  16.353 -0.2125  0.3056 -0.0677
 1063TIP3    H124604   3.372   5.632  16.413 -0.2368 -0.7084  0.2662
 1063TIP3    H224605   3.457   5.517  16.363 -1.1905 -0.2163 -2.7027
 1064TIP3   OH224606   0.317   6.383  15.299  0.4061  0.6788 -0.3313
 1064TIP3    H124607   0.302   6.464  15.251  0.4633  0.8861 -0.0036
 1064TIP3    H224608   0.391   6.342  15.255  1.7446  1.8216  0.7786
 1065TIP3   OH224609   4.600   4.101  16.244 -0.1979 -0.1988  0.1446
 1065TIP3    H124610   4.606   4.196  16.240 -0.3355 -0.2290 -1.3142
 1065TIP3    H224611   4.607   4.080  16.337  0.7128  1.1720  0.4083
 1066TIP3   OH224612   6.638   0.006  14.201  0.0989 -0.2117  0.7270
 1066TIP3    H124613   6.682   0.018  14.285  2.1839  0.9384 -0.4428
 1066TIP3    H224614   6.709  -0.007  14.138 -1.4424 -3.2020 -0.6324
 1067TIP3   OH224615   4.877   0.344  16.379  0.2872  0.6383 -0.3163
 1067TIP3    H124616   4.866   0.423  16.327  0.0828  1.1501  0.4914
 1067TIP3    H224617   4.959   0.305  16.347  0.9175  1.7036 -0.0392
 1068TIP3   OH224618   0.782   3.955  12.594 -0.3996 -0.1422  0.7254
 1068TIP3    H124619   0.861   3.966  12.541 -0.6180  0.2219  0.4690
 1068TIP3    H224620   0.725   4.027  12.566 -0.4964  0.0826  1.4991
 1069TIP3   OH224621   1.254   5.283  14.025 -0.1446 -0.5382 -0.1480
 1069TIP3    H124622   1.334   5.314  14.068 -0.1676  0.7443 -1.0040
 1069TIP3    H224623   1.279   5.198  13.989  0.8183 -0.1998 -0.3234
 1070TIP3   OH224624   3.595   2.522  11.297 -0.3724  0.4403  0.3662
 1070TIP3    H124625   3.658   2.572  11.245  0.2494 -1.1216 -0.4562
 1070TIP3    H224626   3.551   2.465  11.233 -1.9498  0.8056  1.0787
 1071TIP3   OH224627   1.616   0.981   1.700  0.2485  0.1663  0.1874
 1071TIP3    H124628   1.657   0.986   1.787 -0.7147 -1.4165  0.7866
 1071TIP3    H224629   1.524   0.964   1.718  0.4169 -2.7022 -1.0911
 1072TIP3   OH224630   0.836   0.176   5.673 -0.1372 -0.3393  0.2706
 1072TIP3    H124631   0.758   0.129   5.703 -0.1698 -0.9114 -0.6683
 1072TIP3    H224632   0.861   0.229   5.747 -1.9069  0.4908  0.3370
 1073TIP3   OH224633   6.305   4.148  14.181 -0.0330 -0.4347 -0.3113
 1073TIP3    H124634   6.336   4.102  14.259  0.1664  1.3756  0.7275
 1073TIP3    H224635   6.229   4.198  14.211  1.2791  1.9421 -0.7100
 1074TIP3   OH224636   3.222   3.220   6.177  0.0624  0.1448 -0.1114
 1074TIP3    H124637   3.210   3.314   6.188  0.1782  0.2844 -1.1225
 1074TIP3    H224638   3.134   3.184   6.182 -0.1020  0.4338 -0.8145
 1075TIP3   OH224639   5.056   0.195  15.969  0.0864 -0.4688 -0.3204
 1075TIP3    H124640   4.993   0.244  15.916  0.2457 -0.4313 -0.4772
 1075TIP3    H224641   5.106   0.144  15.905  2.5530  2.0725 -0.6177
 1076TIP3   OH224642   3.564   4.328  14.503 -0.2240  0.0477 -0.0370
 1076TIP3    H124643   3.546   4.353  14.413  1.4306 -2.2977 -1.1094
 1076TIP3    H224644   3.650   4.365  14.522 -0.5258  0.4583  0.5901
 1077TIP3   OH224645   2.258   0.966  13.899  0.0855  0.0210 -0.1838
 1077TIP3    H124646   2.306   0.988  13.820 -1.1255 -0.8470 -1.2007
 1077TIP3    H224647   2.322   0.976  13.970  2.0441 -1.9564 -1.5571
 1078TIP3   OH224648   4.535   2.928  13.291  0.3854 -0.5685 -0.5414
 1078TIP3    H124649   4.589   2.984  13.347 -0.7598 -0.7237  0.7696
 1078TIP3    H224650   4.497   2.987  13.226  0.7038 -0.1589 -0.3587
 1079TIP3   OH224651   1.176   2.321   0.634 -0.4283  0.5644 -0.2846
 1079TIP3    H124652   1.210   2.389   0.576 -2.1693 -0.2790 -2.4560
 1079TIP3    H224653   1.097   2.289   0.590 -0.9936 -1.2264  1.8297
 1080TIP3   OH224654   0.512   4.439   4.719  0.1385 -0.0917  0.1436
 1080TIP3    H124655   0.520   4.467   4.810 -0.2995  1.2402 -0.2034
 1080TIP3    H224656   0.444   4.371   4.721 -0.5966  0.6462  0.6775
 1081TIP3   OH224657   3.270   1.891  11.333 -0.0724  0.1370  0.0995
 1081TIP3    H124658   3.188   1.894  11.284  1.2492 -0.5552 -2.3070
 1081TIP3    H224659   3.310   1.976  11.318 -0.2785  0.4461  1.2082
 1082TIP3   OH224660   3.361   0.484  13.098 -0.1086 -0.0252  0.4019
 1082TIP3    H124661   3.398   0.409  13.145  0.6131 -0.2944 -0.5546
 1082TIP3    H224662   3.437   0.537  13.075 -0.5282  0.5275  0.2747
 1083TIP3   OH224663   0.680   5.552   5.088  0.5824  0.1785  0.0067
 1083TIP3    H124664   0.633   5.469   5.095  0.1193  0.4994  0.9579
 1083TIP3    H224665   0.619   5.611   5.045  0.8483  0.0689 -0.5183
 1084TIP3   OH224666   3.543   4.787   6.694  0.3882 -0.0569  0.1376
 1084TIP3    H124667   3.585   4.702   6.681 -1.1095 -0.9020  0.6030
 1084TIP3    H224668   3.597   4.848   6.644  1.2649 -1.3366 -0.5390
 1085TIP3   OH224669   1.915   5.603   2.878  0.0477 -0.0898  0.1597
 1085TIP3    H124670   1.931   5.571   2.789 -1.1485 -1.0309  0.2524
 1085TIP3    H224671   1.891   5.695   2.865  0.9949  0.0955 -0.3704
 1086TIP3   OH224672   2.416   0.228  10.727  0.0992  0.4559  0.5740
 1086TIP3    H124673   2.369   0.183  10.797 -0.6132 -0.3958 -0.4283
 1086TIP3    H224674   2.505   0.194  10.732 -0.1109 -0.0970  0.6594
 1087TIP3   OH224675   0.184   1.944   1.520 -0.6828  0.0988  0.3666
 1087TIP3    H124676   0.102   1.901   1.497 -0.2065 -0.3885 -0.4654
 1087TIP3    H224677   0.200   2.004   1.448 -0.0295 -0.2014  0.2606
 1088TIP3   OH224678   6.662   4.679   0.238 -0.5277  0.2069 -0.3105
 1088TIP3    H124679   6.668   4.594   0.282  2.3487  0.7347  0.5090
 1088TIP3    H224680   6.675   4.660   0.145  1.4238 -0.2035 -0.0016
 1089TIP3   OH224681   4.012   3.657  13.581  0.6468  0.7692  0.0457
 1089TIP3    H124682   4.010   3.752  13.571 -0.1257  1.0051  2.1309
 1089TIP3    H224683   4.078   3.640  13.648 -1.4407  0.1414  2.0813
 1090TIP3   OH224684   5.808   2.051   5.269 -0.7256  0.2961  0.8047
 1090TIP3    H124685   5.845   2.129   5.311  0.6309 -1.3164  2.8040
 1090TIP3    H224686   5.791   1.990   5.341  0.6985 -2.2233 -0.8139
 1091TIP3   OH224687   5.095   0.568  12.788  0.5492  0.2484 -0.1477
 1091TIP3    H124688   5.061   0.651  12.753 -0.7000 -0.2533 -0.1883
 1091TIP3    H224689   5.095   0.509  12.712  1.5761  0.2475 -0.1504
 1092TIP3   OH224690   6.709   2.441   0.143  0.0909  0.4582 -0.0437
 1092TIP3    H124691   6.671   2.528   0.132  1.0998  0.7423 -1.6009
 1092TIP3    H224692   6.639   2.381   0.120 -1.2487  0.7190  2.9208
 1093TIP3   OH224693   4.450   5.080  15.624 -0.4928 -0.0292  0.2786
 1093TIP3    H124694   4.398   5.156  15.651 -0.3534 -0.1836  0.9821
 1093TIP3    H224695   4.410   5.053  15.541 -0.3595  0.9900 -0.1438
 1094TIP3   OH224696   0.650   2.004   4.342 -0.3721 -0.0337 -0.6620
 1094TIP3    H124697   0.738   1.980   4.373 -0.5469  0.2948  0.1211
 1094TIP3    H224698   0.626   2.079   4.396 -1.4053 -0.5390 -0.3997
 1095TIP3   OH224699   2.182   2.753   4.741 -0.2306 -0.3179 -0.2128
 1095TIP3    H124700   2.169   2.846   4.720 -1.0712 -0.1852  0.8103
 1095TIP3    H224701   2.127   2.738   4.817 -2.1880 -2.3210 -1.9078
 1096TIP3   OH224702   5.038   6.129  17.110 -0.6233 -0.1521 -0.0590
 1096TIP3    H124703   5.120   6.177  17.102  0.5457 -1.8551  1.0414
 1096TIP3    H224704   5.004   6.152  17.196 -0.5347 -0.5710  0.0919
 1097TIP3   OH224705   3.895   3.014   2.143  0.5258  0.0001 -0.3683
 1097TIP3    H124706   3.951   2.947   2.104  1.6690 -0.7368  2.3499
 1097TIP3    H224707   3.953   3.088   2.158 -0.4772  1.2471 -2.2874
 1098TIP3   OH224708   5.620   1.208  13.267 -0.4724 -0.4478  0.5495
 1098TIP3    H124709   5.587   1.120  13.288 -1.1455 -0.1937  0.5445
 1098TIP3    H224710   5.660   1.198  13.181 -1.1001 -0.6062  0.2723
 1099TIP3   OH224711   3.418   6.002   0.529 -0.5865  0.1486 -0.7047
 1099TIP3    H124712   3.494   5.971   0.579  0.4506 -0.5576 -2.6157
 1099TIP3    H224713   3.415   6.096   0.547  1.2129  0.3283 -1.1414
 1100TIP3   OH224714   5.328   3.196   5.861 -0.4654  0.3337 -0.2002
 1100TIP3    H124715   5.296   3.286   5.859  1.0142  0.9050  0.0969
 1100TIP3    H224716   5.280   3.155   5.932  0.5013  1.6086  1.2676
 1101TIP3   OH224717   2.675   4.753  14.711 -0.0535 -0.1694  0.5581
 1101TIP3    H124718   2.703   4.773  14.800  1.6705 -0.2684  0.0798
 1101TIP3    H224719   2.669   4.657  14.708 -1.2607 -0.1214  0.8641
 1102TIP3   OH224720   2.343   1.784  11.241 -0.3710 -0.4720 -0.2571
 1102TIP3    H124721   2.349   1.853  11.306 -1.7664 -1.7143  1.2751
 1102TIP3    H224722   2.263   1.803  11.192 -0.3380 -0.5692 -0.3499
 1103TIP3   OH224723   2.631   0.388   0.350  0.3213 -0.6627 -0.0005
 1103TIP3    H124724   2.545   0.371   0.313  0.8867  0.4796 -2.0043
 1103TIP3    H224725   2.692   0.364   0.280  1.5625 -0.2479  0.9094
 1104TIP3   OH224726   3.596   2.872  17.053 -0.4339 -0.4596 -0.3164
 1104TIP3    H124727   3.608   2.870  17.148 -1.3422 -0.5238 -0.1873
 1104TIP3    H224728   3.629   2.787  17.023  0.5908 -0.1237 -0.1644
 1105TIP3   OH224729   0.645   6.332   5.671 -0.2000 -0.1492 -0.5182
 1105TIP3    H124730   0.645   6.386   5.750 -1.6427  0.0607 -0.6342
 1105TIP3    H224731   0.552   6.324   5.647  0.2231  0.1307 -2.4237
 1106TIP3   OH224732   3.004   6.201   6.035  0.2459 -1.0023  0.0507
 1106TIP3    H124733   3.088   6.194   6.081  2.1527  0.7879 -2.8236
 1106TIP3    H224734   2.965   6.281   6.070  1.2299 -0.1854 -0.6191
 1107TIP3   OH224735   0.979   4.855   4.697 -0.7517 -0.5051  0.5866
 1107TIP3    H124736   0.923   4.916   4.745 -0.8428 -0.0191 -0.1111
 1107TIP3    H224737   1.061   4.853   4.747 -0.9140 -0.1724  0.8775
 1108TIP3   OH224738   5.524   2.824   0.585  0.0717  0.0117 -0.5076
 1108TIP3    H124739   5.454   2.764   0.562 -0.5284  0.6496 -0.3951
 1108TIP3    H224740   5.488   2.877   0.657  0.5025  0.6332 -0.7386
 1109TIP3   OH224741   0.591   5.742   2.942 -0.2678  0.5201  0.0278
 1109TIP3    H124742   0.639   5.745   3.025 -0.5616  0.1681  0.2120
 1109TIP3    H224743   0.659   5.739   2.875  0.0330 -2.1875  0.3429
 1110TIP3   OH224744   3.593   5.976  16.325 -0.4131 -0.1149  0.3597
 1110TIP3    H124745   3.636   6.060  16.341 -0.8144 -0.0094  0.9456
 1110TIP3    H224746   3.546   5.988  16.242 -0.1240  0.0992  0.2271
 1111TIP3   OH224747   5.637   4.173  12.191  0.3302  0.1187 -0.2919
 1111TIP3    H124748   5.729   4.146  12.192 -0.4770 -3.0512  0.3170
 1111TIP3    H224749   5.601   4.133  12.271 -2.0074 -0.6494 -1.6579
 1112TIP3   OH224750   4.017   0.478   2.669 -0.8498  0.1179  0.2760
 1112TIP3    H124751   4.060   0.464   2.585 -0.2006 -1.8205  0.8882
 1112TIP3    H224752   3.934   0.433   2.662 -0.2618 -1.1458  1.0678
 1113TIP3   OH224753   4.935   4.455   4.103 -0.5562 -0.2355 -0.2074
 1113TIP3    H124754   4.900   4.531   4.057  0.4258 -0.3478 -1.1716
 1113TIP3    H224755   4.932   4.479   4.196 -1.7728  0.3283 -0.3772
 1114TIP3   OH224756   5.400   5.791  12.161  0.5755 -0.4741  0.7008
 1114TIP3    H124757   5.471   5.814  12.101  1.2585 -1.9973  0.8615
 1114TIP3    H224758   5.320   5.805  12.111  0.9292  1.5113  0.5951
 1115TIP3   OH224759   5.725   1.159  11.854 -0.1580 -0.8650 -0.0692
 1115TIP3    H124760   5.631   1.177  11.854  0.1714  1.2830 -1.4654
 1115TIP3    H224761   5.736   1.091  11.787 -0.6179 -0.4376 -0.5895
 1116TIP3   OH224762   1.567   4.883  13.397  0.3366 -0.0852 -0.1758
 1116TIP3    H124763   1.517   4.923  13.326  1.1784 -0.6824 -1.1233
 1116TIP3    H224764   1.648   4.933  13.400  0.7043 -0.6671 -0.2754
 1117TIP3   OH224765   6.717   5.365   5.096 -0.3007 -0.5090  0.0191
 1117TIP3    H124766   6.724   5.313   5.176 -3.1159 -1.0335  0.0119
 1117TIP3    H224767   6.664   5.441   5.121 -2.1516 -1.2116 -1.5308
 1118TIP3   OH224768   1.495   3.455  10.914 -0.5744  0.1079  0.5768
 1118TIP3    H124769   1.521   3.469  10.823  1.8449  0.1267  1.2068
 1118TIP3    H224770   1.491   3.360  10.924  0.4545  0.0792  0.7680
 1119TIP3   OH224771   1.623   1.008  12.126  0.1986 -0.2184  0.3169
 1119TIP3    H124772   1.614   1.069  12.053  0.0467 -1.3503 -0.6414
 1119TIP3    H224773   1.614   1.063  12.204  0.9080  1.1106 -0.4903
 1120TIP3   OH224774   6.766   3.315  13.932  0.0769  0.3848 -0.0900
 1120TIP3    H124775   6.819   3.275  14.000  1.5368  1.9774 -0.2283
 1120TIP3    H224776   6.759   3.247  13.864  1.5629 -0.0374  0.1378
 1121TIP3   OH224777   0.350   6.375   3.267 -0.1647 -0.0586 -0.7485
 1121TIP3    H124778   0.352   6.293   3.316 -0.1833  1.3477  1.7493
 1121TIP3    H224779   0.383   6.440   3.328  1.1869  1.6231 -3.1155
 1122TIP3   OH224780   6.257   0.480  11.556 -0.2072 -0.1255 -0.0757
 1122TIP3    H124781   6.352   0.487  11.567  0.0785 -0.2344 -2.0992
 1122TIP3    H224782   6.228   0.423  11.627  1.4515 -1.2635 -0.2594
 1123TIP3   OH224783   5.646   3.349   2.007  0.0201 -0.2054 -0.4275
 1123TIP3    H124784   5.639   3.297   2.087 -1.2003 -0.0322 -0.3938
 1123TIP3    H224785   5.722   3.405   2.021  1.1526 -1.7022 -0.3154
 1124TIP3   OH224786   2.639   2.652  15.209 -0.2101  0.0334 -0.1844
 1124TIP3    H124787   2.668   2.584  15.149  2.1460 -0.0248  0.9010
 1124TIP3    H224788   2.719   2.681  15.253 -1.6985  0.5340  2.4190
 1125TIP3   OH224789   2.932   4.862   5.661  0.0618 -0.3696  0.1010
 1125TIP3    H124790   2.849   4.837   5.619 -0.4170 -1.1542  1.4460
 1125TIP3    H224791   2.930   4.817   5.746  0.5728  1.8558  1.3547
 1126TIP3   OH224792   1.113   0.052   1.567  0.2187 -0.5834 -0.2856
 1126TIP3    H124793   1.045   0.041   1.634  1.2015 -0.5534  0.7539
 1126TIP3    H224794   1.066   0.079   1.488 -0.9221 -0.0490  0.5551
 1127TIP3   OH224795   3.062   1.890   5.053  0.4123 -0.5327 -0.1156
 1127TIP3    H124796   3.079   1.908   4.961  0.0909 -0.1740 -0.1071
 1127TIP3    H224797   3.067   1.975   5.096 -1.7391 -0.3270 -0.1701
 1128TIP3   OH224798   0.582   4.362   2.108 -0.2340  0.1451 -0.5593
 1128TIP3    H124799   0.671   4.325   2.108  0.1468  0.9492 -2.3624
 1128TIP3    H224800   0.596   4.456   2.116 -1.0551  0.1551  1.1122
 1129TIP3   OH224801   2.992   1.960  11.614  0.2520 -0.2810 -0.0840
 1129TIP3    H124802   3.004   1.877  11.568 -0.0472 -1.1339  1.3174
 1129TIP3    H224803   3.063   1.962  11.679 -0.7842 -0.3015  1.0836
 1130TIP3   OH224804   3.006   6.449  12.867  0.0867  0.0552 -0.3262
 1130TIP3    H124805   3.034   6.506  12.795  1.8423 -0.1850  0.1362
 1130TIP3    H224806   3.087   6.414  12.903 -0.9039 -1.8666  0.1355
 1131TIP3   OH224807   5.701   4.744   3.652  0.7387  0.0346 -0.0879
 1131TIP3    H124808   5.686   4.680   3.582  1.7632 -0.8874  0.5021
 1131TIP3    H224809   5.793   4.770   3.641  0.3572  1.4006 -0.2877
 1132TIP3   OH224810   0.506   5.682  12.810 -0.3941 -0.1028  0.2873
 1132TIP3    H124811   0.446   5.608  12.824  1.8934 -2.0178  0.4948
 1132TIP3    H224812   0.585   5.658  12.858  0.5750  2.3599  0.0523
 1133TIP3   OH224813   5.318   2.986  14.015  0.2608 -0.1283  0.3001
 1133TIP3    H124814   5.292   2.926  14.085  1.5636 -2.2768 -0.9312
 1133TIP3    H224815   5.388   3.038  14.052  2.1006 -2.3857  0.2205
 1134TIP3   OH224816   6.514   5.442  12.227 -0.6137  0.0738  0.0135
 1134TIP3    H124817   6.499   5.388  12.304  1.4898 -0.2546  0.2363
 1134TIP3    H224818   6.609   5.445  12.217 -0.7801  1.3720 -1.6806
 1135TIP3   OH224819   5.027   6.512   0.756 -0.1054  0.8458  0.0888
 1135TIP3    H124820   5.031   6.605   0.775  2.1687  0.9175 -0.3959
 1135TIP3    H224821   5.118   6.482   0.762 -0.8424 -1.4965  0.9036
 1136TIP3   OH224822   6.422   0.941   6.236  0.1962 -0.4578 -0.1744
 1136TIP3    H124823   6.396   0.854   6.204  2.0655 -1.7256  1.5347
 1136TIP3    H224824   6.507   0.957   6.196 -0.3445  0.8554 -0.8564
 1137TIP3   OH224825   6.540   3.016  13.148  0.8545  0.5154 -0.9010
 1137TIP3    H124826   6.492   3.058  13.219  2.1329  2.2249 -0.9616
 1137TIP3    H224827   6.629   3.005  13.182  1.1985  0.2786 -1.8295
 1138TIP3   OH224828   0.280   3.321   1.365  0.4402 -0.2252 -0.4065
 1138TIP3    H124829   0.210   3.368   1.409  0.2385  0.5274 -1.4866
 1138TIP3    H224830   0.354   3.382   1.365  0.4899 -0.2782 -0.9436
 1139TIP3   OH224831   1.916   2.432  14.073  0.2992  0.0181  0.2819
 1139TIP3    H124832   1.976   2.374  14.119  1.3284  0.2157 -0.7495
 1139TIP3    H224833   1.929   2.517  14.114 -0.4329 -0.2469  1.0888
 1140TIP3   OH224834   2.696   6.756   1.448  0.0101  0.2598 -0.2202
 1140TIP3    H124835   2.620   6.702   1.427 -1.3485  0.5238  3.3668
 1140TIP3    H224836   2.698   6.822   1.378 -1.7985 -0.9699 -1.5245
 1141TIP3   OH224837   3.866   6.550   3.827 -0.1411  0.1883  0.1586
 1141TIP3    H124838   3.903   6.464   3.846  0.0790  0.4680  1.0650
 1141TIP3    H224839   3.775   6.534   3.805  0.2900 -0.4313 -1.2507
 1142TIP3   OH224840   5.498   0.969   5.086 -0.0421 -0.3766 -0.2224
 1142TIP3    H124841   5.417   1.021   5.081  0.1530 -0.0584 -0.1369
 1142TIP3    H224842   5.530   0.983   5.175  0.1716 -0.3977 -0.2951
 1143TIP3   OH224843   6.626   5.869  15.438  0.1558 -0.6071 -0.2048
 1143TIP3    H124844   6.660   5.896  15.523 -2.0417 -1.2443  0.9542
 1143TIP3    H224845   6.588   5.949  15.400 -0.5107 -0.6887  0.2724
 1144TIP3   OH224846   5.638   1.698   0.996 -0.3472  0.4136  0.1580
 1144TIP3    H124847   5.660   1.782   0.956  2.7170 -0.9496 -1.2845
 1144TIP3    H224848   5.661   1.632   0.929 -0.3202 -1.6962  2.1228
 1145TIP3   OH224849   2.856   2.579  16.650  0.7004 -0.7037  0.1431
 1145TIP3    H124850   2.845   2.565  16.556  1.1481 -0.7490  0.0956
 1145TIP3    H224851   2.802   2.655  16.669  0.6642 -0.6511 -0.1623
 1146TIP3   OH224852   0.502   0.856  11.266 -0.0537 -0.3308  0.0047
 1146TIP3    H124853   0.545   0.848  11.351  0.1461 -1.4676 -0.1848
 1146TIP3    H224854   0.480   0.766  11.242 -0.0064 -0.0360 -1.2056
 1147TIP3   OH224855   3.894   4.388  14.939 -0.0082  0.9094 -0.5071
 1147TIP3    H124856   3.966   4.337  14.974 -0.0712  1.1517 -0.0011
 1147TIP3    H224857   3.822   4.326  14.930 -0.1441  0.9318  0.2887
 1148TIP3   OH224858   2.253   6.566   0.762  0.8025 -0.3428  0.3854
 1148TIP3    H124859   2.196   6.490   0.764 -0.8295  0.5346 -3.2178
 1148TIP3    H224860   2.214   6.628   0.823  0.5978 -1.3846  1.3344
 1149TIP3   OH224861   1.960   5.312   4.672 -0.0012 -0.7989 -0.1095
 1149TIP3    H124862   1.917   5.309   4.758  0.8233 -1.6439  0.2968
 1149TIP3    H224863   1.979   5.405   4.658  1.6075 -0.8247  1.5497
 1150TIP3   OH224864   0.144   2.713   3.072  0.2048 -0.4306  0.3020
 1150TIP3    H124865   0.129   2.808   3.069  0.8044 -0.3514 -0.4171
 1150TIP3    H224866   0.075   2.680   3.129 -0.3416  0.3797  0.1299
 1151TIP3   OH224867   3.376   0.599   4.089  0.3686 -0.0399  0.1571
 1151TIP3    H124868   3.339   0.629   4.005  0.8963  0.3445  0.0547
 1151TIP3    H224869   3.467   0.577   4.068  0.2469 -0.8275  0.4366
 1152TIP3   OH224870   4.444   2.489  12.909 -0.4075 -0.2398  0.8861
 1152TIP3    H124871   4.467   2.407  12.951 -0.8156 -0.1010  1.4000
 1152TIP3    H224872   4.348   2.489  12.907 -0.4333 -1.0261 -1.6345
 1153TIP3   OH224873   4.408   3.042   4.093  0.4778  0.3000 -0.4853
 1153TIP3    H124874   4.385   2.985   4.020 -2.3923  0.9040 -0.1994
 1153TIP3    H224875   4.484   3.090   4.063  1.6641 -2.0838 -1.5722
 1154TIP3   OH224876   3.615   3.956   3.041 -0.3297 -0.2756  0.4872
 1154TIP3    H124877   3.677   3.898   2.997  0.6343  0.8345  0.3591
 1154TIP3    H224878   3.532   3.941   2.996 -0.0850 -1.4965  0.4117
 1155TIP3   OH224879   5.209   3.788  10.787  0.0517  0.2808 -0.1862
 1155TIP3    H124880   5.123   3.815  10.754 -0.0164  2.2015  1.3656
 1155TIP3    H224881   5.191   3.750  10.873  0.7809  1.2104  0.3945
 1156TIP3   OH224882   5.791   1.383   0.668  0.4335 -0.3055 -0.1667
 1156TIP3    H124883   5.761   1.470   0.645  0.0448 -0.6839 -1.1328
 1156TIP3    H224884   5.778   1.378   0.763  0.7559  0.7804 -0.0532
 1157TIP3   OH224885   6.787   6.793  11.584 -0.3005  0.0036  0.3463
 1157TIP3    H124886   6.764   6.718  11.530 -0.1405 -1.1984  1.8772
 1157TIP3    H224887   6.704   6.823  11.621 -0.0263 -1.8963  2.7743
 1158TIP3   OH224888   0.292   2.448  15.543 -0.4547  0.8972  0.1295
 1158TIP3    H124889   0.350   2.391  15.493  1.1785  2.7295 -0.2085
 1158TIP3    H224890   0.226   2.476  15.479 -1.1377 -0.3813  0.2451
 1159TIP3   OH224891   4.465   6.621   2.097  0.0777 -0.7481 -0.0051
 1159TIP3    H124892   4.444   6.705   2.057 -0.0580 -1.1231 -0.7531
 1159TIP3    H224893   4.546   6.593   2.053  0.2903 -0.8708  0.4556
 1160TIP3   OH224894   0.654   0.564  14.796  0.1588 -0.1632 -0.5060
 1160TIP3    H124895   0.562   0.587  14.808 -0.2730 -1.6810 -0.7807
 1160TIP3    H224896   0.666   0.564  14.701  0.5327  0.3095 -0.4648
 1161TIP3   OH224897   2.117   2.140  16.094  0.1026  0.2771 -0.6881
 1161TIP3    H124898   2.120   2.064  16.152 -1.0831  0.3133 -0.5639
 1161TIP3    H224899   2.203   2.141  16.052  0.3345 -0.8015 -0.2741
 1162TIP3   OH224900   4.027   0.296  12.152 -0.4089 -0.0618  0.1721
 1162TIP3    H124901   4.033   0.390  12.134  0.3651  0.4268  2.5652
 1162TIP3    H224902   4.098   0.257  12.101  0.9710  1.0489  1.1753
 1163TIP3   OH224903   0.348   0.153   1.944 -0.1192  0.1597 -0.3413
 1163TIP3    H124904   0.261   0.168   1.982 -0.0685  0.3870 -0.3095
 1163TIP3    H224905   0.370   0.236   1.902  0.5117  0.4444  0.5282
 1164TIP3   OH224906   0.779   1.494  11.428 -0.0635 -0.5689 -0.1987
 1164TIP3    H124907   0.698   1.446  11.418 -1.3849  1.1786  1.4348
 1164TIP3    H224908   0.752   1.584  11.447  2.2507  0.1687 -0.0384
 1165TIP3   OH224909   3.693   2.354   4.666  0.7870  0.3237 -0.1455
 1165TIP3    H124910   3.691   2.383   4.575  0.8240  1.4417  0.2024
 1165TIP3    H224911   3.606   2.372   4.700  1.5707  2.6503  0.8392
 1166TIP3   OH224912   1.169   3.325   5.855 -0.2350 -0.5329 -0.1266
 1166TIP3    H124913   1.134   3.273   5.927  0.1809 -0.0239  0.4569
 1166TIP3    H224914   1.211   3.261   5.797  0.0595 -0.8738  0.4587
 1167TIP3   OH224915   4.685   2.267  15.199  0.2076 -0.3868 -0.2822
 1167TIP3    H124916   4.637   2.346  15.223  0.0513 -0.7289  0.5764
 1167TIP3    H224917   4.733   2.291  15.120  1.9127  1.2957  1.1424
 1168TIP3   OH224918   1.559   0.180  13.193  0.5244 -0.0498  0.0552
 1168TIP3    H124919   1.624   0.217  13.253  1.4487 -2.0822  0.4080
 1168TIP3    H224920   1.548   0.090  13.222 -1.9558  0.0218 -0.4715
 1169TIP3   OH224921   3.771   6.720  11.776  0.2496 -0.5196  0.3126
 1169TIP3    H124922   3.848   6.672  11.807  0.7939 -0.2096 -0.5353
 1169TIP3    H224923   3.801   6.811  11.769 -0.4743 -0.2240  0.8873
 1170TIP3   OH224924   5.707   5.517   0.431  0.0560 -0.3289 -0.4148
 1170TIP3    H124925   5.660   5.434   0.423  0.2824 -0.4660 -0.3159
 1170TIP3    H224926   5.651   5.580   0.385 -0.6078 -0.3409  0.3482
 1171TIP3   OH224927   1.069   0.875   4.997  0.7326  0.7381 -0.6054
 1171TIP3    H124928   1.151   0.925   4.987  1.5501 -0.6470 -1.1678
 1171TIP3    H224929   1.092   0.804   5.057 -0.7383  1.6570  1.1545
 1172TIP3   OH224930   2.539   5.744   5.620  0.7981 -0.0101  0.1203
 1172TIP3    H124931   2.582   5.724   5.537  1.0477 -0.3591  0.3321
 1172TIP3    H224932   2.459   5.790   5.595  0.3365 -1.0465 -0.3645
 1173TIP3   OH224933   3.081   1.835   3.503 -0.3690  0.3590 -0.3013
 1173TIP3    H124934   2.996   1.799   3.479 -0.2745 -0.0480 -0.0361
 1173TIP3    H224935   3.074   1.929   3.485 -0.8135  0.2974 -0.4429
 1174TIP3   OH224936   6.493   5.429  10.310 -0.3671  0.1088  0.2107
 1174TIP3    H124937   6.577   5.411  10.268  0.0790  0.4249  0.9438
 1174TIP3    H224938   6.515   5.447  10.402 -0.9670  2.4462 -0.0316
 1175TIP3   OH224939   0.879   1.507   1.332  0.3716  0.5566 -0.1068
 1175TIP3    H124940   0.836   1.565   1.395 -1.3546 -0.3459 -0.3739
 1175TIP3    H224941   0.969   1.538   1.328 -0.0491  2.0698  1.0831
 1176TIP3   OH224942   1.146   0.692   6.176  0.1502  0.9961 -0.2562
 1176TIP3    H124943   1.199   0.692   6.256  0.1608 -0.9046 -0.2005
 1176TIP3    H224944   1.074   0.752   6.194 -1.4130 -1.4154  2.3494
 1177TIP3   OH224945   2.580   3.684   1.079 -0.1522 -0.3434 -0.3762
 1177TIP3    H124946   2.582   3.589   1.081  0.7103 -0.3187  1.3950
 1177TIP3    H224947   2.556   3.710   1.167  1.3705  1.0748 -0.3202
 1178TIP3   OH224948   6.016   5.502  10.910 -0.4630 -0.0028  0.0277
 1178TIP3    H124949   5.975   5.425  10.948 -2.2026  0.9262  0.1252
 1178TIP3    H224950   6.045   5.474  10.823  1.0814 -1.3798  0.9166
 1179TIP3   OH224951   6.788   2.044  12.192  0.3995  0.3196 -0.8970
 1179TIP3    H124952   6.695   2.063  12.204  0.0664 -0.2787 -2.3520
 1179TIP3    H224953   6.832   2.127  12.208 -0.5374  0.9993 -1.7476
 1180TIP3   OH224954   4.524   1.447  16.403 -0.0867 -0.0922 -0.0479
 1180TIP3    H124955   4.555   1.508  16.470  0.3819  0.8951 -1.1086
 1180TIP3    H224956   4.604   1.408  16.367 -0.3704 -1.1126  0.4102
 1181TIP3   OH224957   1.864   1.620  11.777  0.2847  0.3857 -0.5300
 1181TIP3    H124958   1.800   1.609  11.707  0.4267  1.0532 -0.7680
 1181TIP3    H224959   1.823   1.683  11.837 -0.7203 -1.6441  1.0535
 1182TIP3   OH224960   6.777   1.545  12.733 -0.1998  0.4531  0.2084
 1182TIP3    H124961   6.787   1.632  12.694 -0.1745  0.9347  1.2446
 1182TIP3    H224962   6.771   1.562  12.827 -0.3419 -0.6617  0.4118
 1183TIP3   OH224963   1.477   2.454  15.396 -0.5146 -0.5258  0.2768
 1183TIP3    H124964   1.451   2.362  15.391 -0.9751 -0.4211  0.6832
 1183TIP3    H224965   1.404   2.501  15.356 -0.8397 -0.2490  1.1809
 1184TIP3   OH224966   4.111   5.945  15.046  0.5932 -0.1965  0.3827
 1184TIP3    H124967   4.121   5.876  15.112  0.8660 -1.7910 -1.2478
 1184TIP3    H224968   4.164   5.916  14.972 -0.2608  1.1759 -0.8306
 1185TIP3   OH224969   5.936   3.259  15.403 -0.1075 -0.3262 -0.1664
 1185TIP3    H124970   5.868   3.256  15.470  0.7898 -0.1151  0.7806
 1185TIP3    H224971   5.918   3.339  15.354 -0.8760 -0.5733 -0.3001
 1186TIP3   OH224972   0.614   6.368  14.204 -0.6335 -0.3752 -0.3023
 1186TIP3    H124973   0.578   6.367  14.293 -0.7444 -0.2002 -0.3464
 1186TIP3    H224974   0.538   6.362  14.147 -0.4864 -2.0177 -0.3684
 1187TIP3   OH224975   6.246   6.396  10.972  0.2105  0.3819 -0.3020
 1187TIP3    H124976   6.336   6.376  10.945  0.1540 -1.3554  0.6680
 1187TIP3    H224977   6.196   6.392  10.890  0.8607  0.3933 -0.7104
 1188TIP3   OH224978   4.865   2.905  12.252 -0.4514 -1.0350  0.0157
 1188TIP3    H124979   4.815   2.837  12.298 -1.6674 -0.2920 -0.1756
 1188TIP3    H224980   4.803   2.944  12.191  0.4604 -0.3048 -0.4696
 1189TIP3   OH224981   6.478   6.725   2.528 -0.3828 -0.5544  0.2471
 1189TIP3    H124982   6.480   6.700   2.436 -0.1569 -1.8039  0.5595
 1189TIP3    H224983   6.408   6.672   2.566 -1.4155  0.9771  0.5394
 1190TIP3   OH224984   0.203   1.100  16.379  0.3198  0.2903 -0.2645
 1190TIP3    H124985   0.239   1.093  16.290 -0.2248 -1.3572 -0.4050
 1190TIP3    H224986   0.268   1.056  16.434  0.8567  1.6814  0.2322
 1191TIP3   OH224987   1.385   5.653   1.412 -0.6165 -0.0611  0.6060
 1191TIP3    H124988   1.340   5.723   1.460 -0.5472  1.3351 -1.2309
 1191TIP3    H224989   1.477   5.680   1.410 -0.7712  0.5027 -1.1475
 1192TIP3   OH224990   0.511   1.954   1.240  0.1469 -0.1146  0.1240
 1192TIP3    H124991   0.516   1.980   1.333 -0.4950 -1.0190  0.4250
 1192TIP3    H224992   0.560   1.873   1.235 -1.2881 -1.0186  0.0592
 1193TIP3   OH224993   5.438   5.431   1.209 -0.5390  0.4556 -0.1267
 1193TIP3    H124994   5.500   5.459   1.142 -0.8019 -1.7389 -1.3851
 1193TIP3    H224995   5.352   5.437   1.167 -0.7787 -0.2915  0.2389
 1194TIP3   OH224996   6.799   4.781   3.636 -0.2318  0.2072  0.3954
 1194TIP3    H124997   6.757   4.861   3.605 -1.5585  0.3791  2.4067
 1194TIP3    H224998   6.759   4.765   3.722  0.7818 -2.0234  0.5239
 1195TIP3   OH224999   3.945   6.425   0.098 -0.4057 -0.5172 -0.6175
 1195TIP3    H125000   3.857   6.434   0.062 -0.4454  0.7814 -0.2707
 1195TIP3    H225001   3.958   6.331   0.109 -2.0000 -0.7026 -0.0882
 1196TIP3   OH225002   1.659   2.851  14.013 -0.2368  0.4596 -0.3432
 1196TIP3    H125003   1.632   2.770  13.968  2.7970 -0.7605 -0.2005
 1196TIP3    H225004   1.679   2.912  13.942 -0.5413  0.3712 -0.5061
 1197TIP3   OH225005   4.843   2.994   0.507  0.3044 -0.0966 -0.5798
 1197TIP3    H125006   4.897   2.958   0.436  0.3372 -1.0885 -0.0715
 1197TIP3    H225007   4.904   3.005   0.580 -0.3789 -2.6404  0.4943
 1198TIP3   OH225008   3.289   6.672   2.049  0.0348  0.6059 -0.4316
 1198TIP3    H125009   3.241   6.590   2.036  1.2107  0.0150 -1.2397
 1198TIP3    H225010   3.343   6.681   1.970  2.2088  0.5773  0.9692
 1199TIP3   OH225011   6.507   5.543   0.450 -0.4658  0.0638  0.0553
 1199TIP3    H125012   6.527   5.630   0.485 -0.1901  0.2256 -0.4785
 1199TIP3    H225013   6.516   5.484   0.524  0.1164  0.3939  0.2608
 1200TIP3   OH225014   2.673   5.514  13.365  0.6043  0.4114  0.1981
 1200TIP3    H125015   2.688   5.534  13.272 -1.0690  0.0328 -0.1908
 1200TIP3    H225016   2.716   5.430  13.378  0.8643  0.4724 -0.2419
 1201TIP3   OH225017   0.532   1.632   4.434 -0.4601 -0.0233 -0.2346
 1201TIP3    H125018   0.485   1.630   4.351 -0.6843  1.3809 -0.1635
 1201TIP3    H225019   0.504   1.552   4.480  0.8076 -1.6094 -2.0786
 1202TIP3   OH225020   4.438   5.549   3.354  0.4986  0.0838  0.3645
 1202TIP3    H125021   4.387   5.629   3.345 -1.4808 -1.2374 -1.1998
 1202TIP3    H225022   4.406   5.492   3.283  2.1181 -1.9181  1.1364
 1203TIP3   OH225023   2.841   4.350  11.583 -0.8233 -0.0586 -0.8363
 1203TIP3    H125024   2.787   4.320  11.511  0.8582  0.8952 -2.5918
 1203TIP3    H225025   2.867   4.439  11.559 -1.2670  0.8343  1.6075
 1204TIP3   OH225026   5.046   5.546   3.417 -0.4216  0.6378 -0.5629
 1204TIP3    H125027   5.073   5.630   3.378 -1.3168  1.3807  0.3609
 1204TIP3    H225028   5.020   5.492   3.342  1.2807  0.7488 -1.2656
 1205TIP3   OH225029   1.563   0.821   0.466  0.0270  0.7373  0.3902
 1205TIP3    H125030   1.476   0.841   0.502  0.3489  2.4113  0.3003
 1205TIP3    H225031   1.585   0.736   0.504 -1.7490  0.1547  0.2153
 1206TIP3   OH225032   4.065   0.885   1.046  0.3126  0.3688  0.0181
 1206TIP3    H125033   4.119   0.840   0.981 -0.2770 -0.3366  0.0099
 1206TIP3    H225034   3.978   0.890   1.006 -0.4204 -1.3014  1.2741
 1207TIP3   OH225035   3.206   5.929  13.546 -0.6820 -0.4705 -0.1392
 1207TIP3    H125036   3.172   5.859  13.601 -1.7767  0.2895  0.1699
 1207TIP3    H225037   3.129   5.968  13.505 -0.3792  2.0333  1.4412
 1208TIP3   OH225038   0.805   5.051   1.367 -0.0747 -0.4836  0.6998
 1208TIP3    H125039   0.714   5.058   1.392  0.3633  1.6368  1.8867
 1208TIP3    H225040   0.819   4.957   1.354 -2.6602 -0.7822 -0.6433
 1209TIP3   OH225041   0.281   0.409  15.667  0.0537 -0.9717 -0.4638
 1209TIP3    H125042   0.303   0.472  15.736  1.1843 -1.4741 -0.3342
 1209TIP3    H225043   0.213   0.453  15.616  0.3401  0.0818  0.0122
 1210TIP3   OH225044   5.249   4.829   1.742  0.0859 -0.2488  0.1555
 1210TIP3    H125045   5.204   4.894   1.688  0.9365  0.5336  0.3795
 1210TIP3    H225046   5.246   4.865   1.830  2.7650  0.7762 -0.0730
 1211TIP3   OH225047   2.702   0.509  17.032  0.3446 -0.1513 -0.5630
 1211TIP3    H125048   2.760   0.581  17.005  0.0718 -0.3141 -1.6386
 1211TIP3    H225049   2.713   0.443  16.963 -0.3365 -0.6203 -0.2278
 1212TIP3   OH225050   1.008   2.672  10.962 -0.4498 -0.5308  0.1809
 1212TIP3    H125051   1.021   2.767  10.959 -2.0988 -0.3053 -0.8660
 1212TIP3    H225052   0.925   2.658  10.918  0.1815 -2.5650 -0.4648
 1213TIP3   OH225053   0.044   5.572   3.700 -0.0155  0.0907 -0.3514
 1213TIP3    H125054   0.023   5.496   3.753 -1.0139 -2.1625 -3.7063
 1213TIP3    H225055  -0.033   5.629   3.707  0.0033 -0.0136  0.7927
 1214TIP3   OH225056   5.747   3.879   0.611 -0.1767  0.2744  0.4656
 1214TIP3    H125057   5.776   3.967   0.636 -1.8152  0.7954  0.6327
 1214TIP3    H225058   5.661   3.870   0.652  0.5664 -1.9954  1.6987
 1215TIP3   OH225059   5.655   2.834  14.057  0.2016  0.3912  0.2143
 1215TIP3    H125060   5.722   2.828  14.126 -1.2528  0.6798  1.7191
 1215TIP3    H225061   5.614   2.747  14.057  0.9156  0.0296 -1.1055
 1216TIP3   OH225062   1.754   5.595  12.535 -0.4225 -0.1140  0.1905
 1216TIP3    H125063   1.806   5.675  12.535 -0.4322 -0.1079  0.2854
 1216TIP3    H225064   1.810   5.530  12.578 -0.7159  0.0369  0.8070
 1217TIP3   OH225065   4.040   4.676  11.328 -0.0990  0.3980 -0.0977
 1217TIP3    H125066   4.041   4.581  11.343  0.1312  0.3635 -0.3302
 1217TIP3    H225067   3.997   4.687  11.244  2.0729  0.3206 -1.2760
 1218TIP3   OH225068   2.493   3.602  13.562  0.1044 -0.5799 -0.1934
 1218TIP3    H125069   2.400   3.579  13.559  0.1219 -0.4968 -1.8820
 1218TIP3    H225070   2.497   3.688  13.521  0.9497 -0.6251 -0.2125
 1219TIP3   OH225071   5.261   4.165   2.622  0.3114 -0.0724  0.0031
 1219TIP3    H125072   5.335   4.134   2.570 -0.1724  0.4078 -0.9824
 1219TIP3    H225073   5.252   4.099   2.691  0.9451 -0.7273 -0.5214
 1220TIP3   OH225074   3.081   0.157   3.248  1.0886 -0.9233  0.1011
 1220TIP3    H125075   3.102   0.066   3.269  0.5576 -1.0548  0.0824
 1220TIP3    H225076   3.134   0.177   3.171  1.1127 -1.2556  0.0312
 1221TIP3   OH225077   4.561   2.522  15.832 -0.0865 -0.1861 -0.2233
 1221TIP3    H125078   4.628   2.475  15.882  0.4657  0.5454 -0.2598
 1221TIP3    H225079   4.537   2.461  15.762 -0.2173 -0.8615  0.3963
 1222TIP3   OH225080   6.585   2.834  12.952  0.1483 -0.1290  0.1328
 1222TIP3    H125081   6.565   2.884  13.031  0.9897 -1.1369  1.0046
 1222TIP3    H225082   6.518   2.862  12.889 -0.4445  0.8012  1.1374
 1223TIP3   OH225083   4.617   4.887  11.391 -0.3623  0.0511 -0.1866
 1223TIP3    H125084   4.690   4.828  11.409  0.9066  0.8794 -2.2148
 1223TIP3    H225085   4.617   4.897  11.295 -2.7776  0.5667 -0.2028
 1224TIP3   OH225086   0.318   1.713   3.899 -0.2012 -0.1466 -0.1554
 1224TIP3    H125087   0.251   1.679   3.958 -1.3898  0.6457 -1.0134
 1224TIP3    H225088   0.401   1.680   3.936 -0.7470  1.3323  2.6875
 1225TIP3   OH225089   5.860   5.570  16.718 -0.3435  0.4244 -0.3656
 1225TIP3    H125090   5.830   5.659  16.737 -0.2472  0.0577  1.6689
 1225TIP3    H225091   5.950   5.567  16.752  0.0703 -0.1298 -1.4612
 1226TIP3   OH225092   4.586   5.496   2.307  0.0503  0.1908  0.0596
 1226TIP3    H125093   4.628   5.534   2.384 -0.2462 -0.2386  0.4333
 1226TIP3    H225094   4.543   5.417   2.339 -0.5398  0.3056 -0.4359
 1227TIP3   OH225095   4.769   3.747   2.786 -0.1557  0.6370  0.1132
 1227TIP3    H125096   4.687   3.721   2.828 -0.1026 -2.1395 -1.2382
 1227TIP3    H225097   4.834   3.744   2.856 -0.5563 -1.1315  0.4608
 1228TIP3   OH225098   1.439   5.164   1.601  0.1580  0.2439 -0.1575
 1228TIP3    H125099   1.475   5.209   1.678 -0.8268 -1.4505  1.4038
 1228TIP3    H225100   1.363   5.117   1.635  0.7414 -2.0610 -1.7519
 1229TIP3   OH225101   3.982   0.011   5.552 -0.3376 -0.4438 -0.0228
 1229TIP3    H125102   3.886   0.009   5.548 -0.3684 -1.5845  0.9483
 1229TIP3    H225103   4.004   0.101   5.527 -1.7976  0.6411  2.2478
 1230TIP3   OH225104   2.435   1.868  13.076 -0.0238 -0.6830 -0.2989
 1230TIP3    H125105   2.358   1.923  13.058  0.2338 -0.4963 -0.8642
 1230TIP3    H225106   2.461   1.835  12.990  2.1674  1.4448 -0.5677
 1231TIP3   OH225107   5.631   6.400   1.692 -0.0470 -0.1068 -0.0122
 1231TIP3    H125108   5.717   6.442   1.699  0.8654 -1.7057 -0.9632
 1231TIP3    H225109   5.603   6.386   1.783  0.9288  0.0145  0.3197
 1232TIP3   OH225110   3.183   4.887   2.960 -0.2652  0.5508  0.3127
 1232TIP3    H125111   3.125   4.842   2.899 -0.3143  0.2623  0.5696
 1232TIP3    H225112   3.161   4.850   3.045 -0.0486  0.7990  0.4775
 1233TIP3   OH225113   1.000   4.975  16.231 -0.0809  0.4163 -0.0868
 1233TIP3    H125114   0.926   4.922  16.202  0.1893 -0.1245  0.1981
 1233TIP3    H225115   1.041   4.922  16.299  0.3344  0.8892  0.0282
 1234TIP3   OH225116   1.658   6.761   1.586  0.0381  0.0659  0.0038
 1234TIP3    H125117   1.599   6.806   1.646 -0.3401 -0.1740 -0.1874
 1234TIP3    H225118   1.677   6.678   1.629  0.8907  0.4780  0.4483
 1235TIP3   OH225119   1.504   0.576  12.156  0.4263 -0.7340  0.4722
 1235TIP3    H125120   1.464   0.543  12.075  1.6505  0.7543 -0.7992
 1235TIP3    H225121   1.577   0.630  12.127 -0.3564  1.5913  2.4834
 1236TIP3   OH225122   0.114   5.421  11.456  0.0699 -0.6245  0.3468
 1236TIP3    H125123   0.179   5.477  11.499 -1.4562 -0.9108  3.2652
 1236TIP3    H225124   0.114   5.341  11.508 -2.1221 -0.8764  0.0466
 1237TIP3   OH225125   0.238   5.664  12.025 -0.4862 -0.7848 -0.4180
 1237TIP3    H125126   0.199   5.599  11.967  0.1746 -1.8534  0.2851
 1237TIP3    H225127   0.301   5.711  11.970 -3.1247  1.4759 -1.7728
 1238TIP3   OH225128   5.815   4.998   3.231 -0.3848  0.0989 -0.6034
 1238TIP3    H125129   5.769   4.920   3.201  0.1645 -0.3317 -0.3386
 1238TIP3    H225130   5.847   5.040   3.151  0.4253 -0.6377 -0.6761
 1239TIP3   OH225131   2.692   2.443   3.144  0.3915  0.3268  0.1634
 1239TIP3    H125132   2.678   2.470   3.053  2.2920 -0.8477 -0.5477
 1239TIP3    H225133   2.636   2.501   3.196 -3.5635 -1.2546 -1.9094
 1240TIP3   OH225134   4.234   1.499  13.119 -0.3471  0.2026  0.4772
 1240TIP3    H125135   4.141   1.509  13.101 -0.3396  0.4063  0.5442
 1240TIP3    H225136   4.238   1.466  13.209 -0.4168 -1.7800 -0.2024
 1241TIP3   OH225137   3.136   2.253   1.897  0.2030 -0.0382 -0.5598
 1241TIP3    H125138   3.041   2.257   1.888  0.3418 -0.1469 -2.7415
 1241TIP3    H225139   3.160   2.335   1.940 -0.7388  0.9871 -1.9148
 1242TIP3   OH225140   1.545   0.034   1.823 -0.0813  0.0629 -0.6549
 1242TIP3    H125141   1.555  -0.045   1.875  2.2264  1.3001  0.9428
 1242TIP3    H225142   1.455   0.063   1.840 -0.5301 -1.4776 -0.2530
 1243TIP3   OH225143   0.993   0.724  14.581 -0.3952  0.1769  0.3647
 1243TIP3    H125144   1.051   0.741  14.507 -0.7392  0.4053  0.1429
 1243TIP3    H225145   0.922   0.788  14.572  0.3599  1.2613  1.7769
 1244TIP3   OH225146   5.349   2.491  14.347  0.3194  0.2933 -0.1495
 1244TIP3    H125147   5.362   2.493  14.252  0.7640 -0.3965 -0.1157
 1244TIP3    H225148   5.415   2.551  14.382  0.4039  0.2614 -0.2552
 1245TIP3   OH225149   2.060   4.217  13.208 -0.2267  0.0687  0.0941
 1245TIP3    H125150   2.147   4.201  13.245 -0.5729 -2.9676 -0.1159
 1245TIP3    H225151   2.016   4.272  13.273  0.7002 -1.3112  2.0136
 1246TIP3   OH225152   5.290   5.760  14.324  0.5409 -0.4898  0.3529
 1246TIP3    H125153   5.361   5.735  14.264  0.3066 -0.5929  0.1204
 1246TIP3    H225154   5.211   5.727  14.283  0.3620 -0.4269  0.6471
 1247TIP3   OH225155   5.889   2.244   4.981 -0.6271 -0.7389  0.0363
 1247TIP3    H125156   5.822   2.305   4.949 -0.2175 -0.3694 -0.1263
 1247TIP3    H225157   5.849   2.202   5.057 -0.7075  0.1453  0.4958
 1248TIP3   OH225158   1.009   1.717  14.636  0.6346 -0.1557  0.5635
 1248TIP3    H125159   0.925   1.679  14.662  1.1963 -0.1453  2.5507
 1248TIP3    H225160   0.989   1.768  14.557 -1.5823  1.2111  1.9132
 1249TIP3   OH225161   5.826   1.332   3.737  0.7140  0.4643  0.5256
 1249TIP3    H125162   5.868   1.279   3.669  0.6633  0.0430  0.8143
 1249TIP3    H225163   5.755   1.378   3.692 -0.0968 -0.7428  0.5162
 1250TIP3   OH225164   3.195   3.132  14.115  0.4852  0.8448  0.6389
 1250TIP3    H125165   3.190   3.203  14.050  0.5599  1.6176  1.4542
 1250TIP3    H225166   3.109   3.132  14.157 -0.7837 -1.8605 -1.6449
 1251TIP3   OH225167   0.098   6.693  13.677 -0.2606  0.1780 -0.1657
 1251TIP3    H125168   0.166   6.694  13.609 -0.2435 -1.8961 -0.2614
 1251TIP3    H225169   0.115   6.612  13.726 -1.7383  0.4057  0.7827
 1252TIP3   OH225170   2.465   0.362  17.084  1.0618 -0.0072  0.1275
 1252TIP3    H125171   2.544   0.416  17.094  0.1064  1.4783 -0.1790
 1252TIP3    H225172   2.443   0.369  16.992 -0.5279  1.2106  0.5591
 1253TIP3   OH225173   0.173   5.023   0.569 -0.1994  0.1561  0.2981
 1253TIP3    H125174   0.253   4.983   0.536 -0.1043 -0.4545  1.2554
 1253TIP3    H225175   0.195   5.055   0.656 -0.7164  0.9129  0.1692
 1254TIP3   OH225176   4.302   0.140  16.456  0.2582 -0.2092  0.0613
 1254TIP3    H125177   4.251   0.064  16.480  0.5625 -0.1313  0.9990
 1254TIP3    H225178   4.350   0.163  16.536  0.8345  0.4328 -0.4544
 1255TIP3   OH225179   1.818   5.345  13.427  0.3112 -0.0976  0.1826
 1255TIP3    H125180   1.907   5.373  13.406  0.6602  0.2617  1.9979
 1255TIP3    H225181   1.771   5.426  13.447 -0.2805 -0.3386 -0.1793
 1256TIP3   OH225182   0.532   2.237  15.477 -0.1164  0.6525  0.1070
 1256TIP3    H125183   0.492   2.173  15.536 -0.4615  0.9182  0.1640
 1256TIP3    H225184   0.474   2.239  15.401  0.4635  0.1223 -0.3651
 1257TIP3   OH225185   2.198   6.113  12.190 -0.1218 -0.0528  0.0902
 1257TIP3    H125186   2.149   6.186  12.227 -0.2379  0.3524 -0.8387
 1257TIP3    H225187   2.179   6.115  12.096  0.8989 -0.4801 -0.1505
 1258TIP3   OH225188   1.184   1.013  15.246 -0.0226 -0.1011  0.3524
 1258TIP3    H125189   1.110   0.958  15.222 -0.5209  1.0051 -0.7583
 1258TIP3    H225190   1.213   1.052  15.163  1.2570  0.1629  0.8955
 1259TIP3   OH225191   0.189   0.992  14.184  0.4810  0.2760  0.3894
 1259TIP3    H125192   0.262   1.039  14.144 -0.0948  1.2629  0.4579
 1259TIP3    H225193   0.145   1.057  14.238  1.3470 -1.0595  2.8425
 1260TIP3   OH225194   1.562   4.505   5.581 -0.1393 -0.3238  0.4560
 1260TIP3    H125195   1.640   4.500   5.526 -0.8213 -1.9928 -0.3990
 1260TIP3    H225196   1.592   4.476   5.667  0.1072 -1.3397  0.0351
 1261TIP3   OH225197   5.213   1.507  13.313 -0.0822  0.5527  0.2953
 1261TIP3    H125198   5.267   1.586  13.314  1.0438 -0.1754  2.3423
 1261TIP3    H225199   5.274   1.435  13.326 -1.3953 -0.3832  1.6932
 1262TIP3   OH225200   3.528   4.957  15.299  0.0190 -0.1099 -0.2589
 1262TIP3    H125201   3.478   5.033  15.271  1.5262  0.4575 -1.5884
 1262TIP3    H225202   3.603   4.994  15.346 -0.5621 -0.9176  1.3811
 1263TIP3   OH225203   6.183   5.845   2.265  0.0756  0.1705  0.5833
 1263TIP3    H125204   6.199   5.812   2.177 -0.4186  0.3096  0.4386
 1263TIP3    H225205   6.270   5.856   2.303  0.4925  2.8332 -0.8923
 1264TIP3   OH225206   3.928   5.867   4.743 -0.3060  0.1835 -0.4947
 1264TIP3    H125207   3.964   5.814   4.673 -1.6194  0.5674 -1.5016
 1264TIP3    H225208   3.857   5.814   4.779  0.8350 -0.3495  1.1173
 1265TIP3   OH225209   4.584   2.253   2.694  0.0971  0.2842 -0.5484
 1265TIP3    H125210   4.523   2.323   2.718 -0.1764  0.5362 -1.9148
 1265TIP3    H225211   4.535   2.198   2.632  0.1776 -1.3631  0.7698
 1266TIP3   OH225212   5.618   1.857  12.126 -0.1206 -0.0068 -0.0401
 1266TIP3    H125213   5.579   1.784  12.174 -0.1413 -0.5987 -0.9187
 1266TIP3    H225214   5.610   1.932  12.185  0.6662 -0.8799  1.2170
 1267TIP3   OH225215   2.156   3.896  15.100  0.0805  0.0775  0.3838
 1267TIP3    H125216   2.140   3.966  15.164 -1.1125  2.4840 -2.2964
 1267TIP3    H225217   2.084   3.834  15.115 -1.6804  1.8697 -0.1041
 1268TIP3   OH225218   3.987   2.515   1.384  0.1787  0.3537  0.6863
 1268TIP3    H125219   3.978   2.420   1.391  1.0389  0.2972  1.3103
 1268TIP3    H225220   4.023   2.530   1.297 -1.8402  0.2783 -0.1899
 1269TIP3   OH225221   1.983   3.658  13.812  0.0763 -0.0867  0.6205
 1269TIP3    H125222   1.961   3.646  13.720 -1.5225  2.0306  0.6250
 1269TIP3    H225223   1.904   3.631  13.859  0.7121 -0.7166  1.3549
 1270TIP3   OH225224   5.890   0.508   0.845 -0.1153  0.4351  0.1142
 1270TIP3    H125225   5.832   0.477   0.775  1.2461 -3.6453  0.5334
 1270TIP3    H225226   5.833   0.518   0.921 -0.5437 -3.6408  0.5592
 1271TIP3   OH225227   2.509   6.056  14.870 -0.0145 -0.1544 -1.1081
 1271TIP3    H125228   2.466   6.015  14.794 -2.2276 -0.4976  0.2475
 1271TIP3    H225229   2.502   5.991  14.939 -0.3960  1.1357  0.1063
 1272TIP3   OH225230   5.594   2.512  15.696 -0.2015  0.3841 -0.1919
 1272TIP3    H125231   5.643   2.575  15.748  0.5471  1.1030 -1.7153
 1272TIP3    H225232   5.598   2.545  15.606 -1.6480 -0.6862 -0.7063
 1273TIP3   OH225233   6.311   1.480  13.258 -0.1568  0.1403  0.0578
 1273TIP3    H125234   6.248   1.451  13.192 -0.8099  1.6814 -0.0369
 1273TIP3    H225235   6.259   1.493  13.337 -0.0444  1.6585 -0.0883
 1274TIP3   OH225236   5.664   5.236   2.351 -0.3173  0.0860 -0.4666
 1274TIP3    H125237   5.631   5.197   2.270 -2.1483 -0.2477  0.3785
 1274TIP3    H225238   5.636   5.175   2.419  2.1578 -0.2203  0.3647
 1275TIP3   OH225239   0.823   6.613   4.749  0.0734  0.0242 -0.0281
 1275TIP3    H125240   0.774   6.531   4.759 -0.6096  0.3163 -0.8250
 1275TIP3    H225241   0.860   6.630   4.835  1.0513 -1.6381 -0.0696
 1276TIP3   OH225242   0.720   0.363   3.272 -0.3364 -0.0266  0.0796
 1276TIP3    H125243   0.669   0.417   3.211 -1.5521 -0.1792  0.9142
 1276TIP3    H225244   0.659   0.345   3.345  0.9624 -0.1075  1.1900
 1277TIP3   OH225245   3.139   3.805  10.568 -0.4487  0.3221  0.0940
 1277TIP3    H125246   3.230   3.789  10.595 -0.7478 -1.3507  0.2002
 1277TIP3    H225247   3.124   3.897  10.590  0.3342 -0.0879  2.7227
 1278TIP3   OH225248   1.406   5.070   2.959 -0.1192  0.3635 -0.3523
 1278TIP3    H125249   1.463   5.020   3.018 -0.4142  1.2456  0.7059
 1278TIP3    H225250   1.429   5.039   2.871  0.2647 -1.0437  0.2227
 1279TIP3   OH225251   6.427   4.644   5.669 -0.1868  0.1362  0.1052
 1279TIP3    H125252   6.357   4.709   5.664  0.4569  1.2425  3.1548
 1279TIP3    H225253   6.391   4.574   5.724  0.8511  0.5033  1.3121
 1280TIP3   OH225254   1.173   1.217   5.106  0.1085 -0.3216 -0.5665
 1280TIP3    H125255   1.249   1.175   5.147 -0.5620 -0.9744  0.0457
 1280TIP3    H225256   1.158   1.296   5.157 -0.2628 -0.7432 -0.0132
 1281TIP3   OH225257   0.853   5.726   0.938 -0.4691 -0.3235  0.2945
 1281TIP3    H125258   0.948   5.726   0.938 -0.4514 -0.0358 -0.8847
 1281TIP3    H225259   0.829   5.786   1.008  0.3100  2.6148 -1.7573
 1282TIP3   OH225260   0.142   6.693   5.241  0.0497 -0.3666 -0.4263
 1282TIP3    H125261   0.181   6.626   5.186  0.6076  0.7282 -1.4103
 1282TIP3    H225262   0.048   6.684   5.228 -0.2349 -3.4007  2.3932
 1283TIP3   OH225263   1.456   4.164   1.772 -0.0286 -0.3963 -0.0042
 1283TIP3    H125264   1.510   4.138   1.697  0.8347  1.0587  0.0748
 1283TIP3    H225265   1.508   4.231   1.817 -1.7456  0.8169  0.2756
 1284TIP3   OH225266   6.206   0.122   5.275 -0.4276 -0.0895  0.2683
 1284TIP3    H125267   6.212   0.088   5.364 -0.7823  2.2469  1.2391
 1284TIP3    H225268   6.296   0.122   5.243 -0.2769 -0.7958  0.6677
 1285TIP3   OH225269   5.886   5.416   5.667  0.1616  0.0329  0.1670
 1285TIP3    H125270   5.892   5.324   5.695  0.0059 -0.3050 -0.8931
 1285TIP3    H225271   5.904   5.415   5.574  1.0853  1.2155  0.3087
 1286TIP3   OH225272   5.961   2.750  12.230  0.9127  0.3766  0.3458
 1286TIP3    H125273   5.932   2.816  12.293 -0.6309  0.6015 -0.5652
 1286TIP3    H225274   6.001   2.799  12.159 -0.1880  0.3408 -0.3078
 1287TIP3   OH225275   2.932   3.477   0.045 -0.2661  0.4141  0.7067
 1287TIP3    H125276   2.986   3.429  -0.018  0.4662  0.1872  1.4714
 1287TIP3    H225277   2.897   3.409   0.103 -2.2823  0.4425 -0.4017
 1288TIP3   OH225278   2.399   1.274   1.258 -0.0786 -0.7447  0.0416
 1288TIP3    H125279   2.412   1.191   1.213 -3.2216 -0.0494 -2.5063
 1288TIP3    H225280   2.396   1.339   1.188  2.7277  1.7385  1.9576
 1289TIP3   OH225281   5.963   1.895   0.256 -0.5152 -0.1983  0.4389
 1289TIP3    H125282   5.961   1.962   0.325  0.2286 -0.5952  0.8557
 1289TIP3    H225283   6.037   1.840   0.279  0.3806  0.2549 -1.2487
 1290TIP3   OH225284   0.068   3.916   3.987  0.0371  0.2017  0.1027
 1290TIP3    H125285   0.111   3.973   3.923 -0.5163  1.3071  0.6867
 1290TIP3    H225286  -0.016   3.894   3.946  0.5907 -0.9128 -0.4844
 1291TIP3   OH225287   2.418   5.471   4.699  0.0734  0.4382  1.3984
 1291TIP3    H125288   2.332   5.475   4.742  0.0284 -2.1079  1.7189
 1291TIP3    H225289   2.480   5.493   4.768 -0.1971 -0.4580  1.9528
 1292TIP3   OH225290   0.085   1.537   1.940  0.2541  0.3272  0.2535
 1292TIP3    H125291   0.028   1.604   1.978  1.1898  1.4401 -0.2385
 1292TIP3    H225292   0.085   1.557   1.846  1.5237  0.4324  0.2605
 1293TIP3   OH225293   4.675   5.834   0.504  0.2857  0.0083 -0.1686
 1293TIP3    H125294   4.726   5.754   0.497  0.8740  0.3165  0.3944
 1293TIP3    H225295   4.644   5.852   0.415  1.8046  0.2173 -0.6792
 1294TIP3   OH225296   0.050   1.025   0.195  0.0245 -0.2746 -0.0837
 1294TIP3    H125297   0.060   0.930   0.187 -1.2043 -0.4732  0.5251
 1294TIP3    H225298  -0.002   1.037   0.274 -0.1394  0.9012 -0.3529
 1295TIP3   OH225299   0.618   2.739  14.430 -0.2258  0.1642 -0.5270
 1295TIP3    H125300   0.612   2.671  14.363 -1.3556  0.5217 -0.8028
 1295TIP3    H225301   0.527   2.757  14.454  0.0660  1.4344 -0.3206
 1296TIP3   OH225302   2.348   0.216   2.738 -0.1355 -0.2975  0.0171
 1296TIP3    H125303   2.283   0.185   2.802  1.4557 -0.6548  1.5319
 1296TIP3    H225304   2.413   0.146   2.734  0.6556  0.4519 -0.7698
 1297TIP3   OH225305   2.044   5.631   5.457  0.5859 -0.2418  0.2091
 1297TIP3    H125306   2.047   5.539   5.485 -0.1356 -0.8215 -1.4864
 1297TIP3    H225307   2.036   5.680   5.539 -0.1698 -1.7528  1.1060
 1298TIP3   OH225308   0.005   6.586   2.305 -0.3514  0.1992  0.4239
 1298TIP3    H125309   0.020   6.581   2.211 -1.2362  0.4136  0.2589
 1298TIP3    H225310  -0.090   6.597   2.314 -0.3264 -0.1944  1.3544
 1299TIP3   OH225311   6.326   1.094  16.275  0.1635 -0.6244  0.1515
 1299TIP3    H125312   6.346   1.120  16.185  0.1126 -1.1754 -0.0221
 1299TIP3    H225313   6.392   1.137  16.328  0.6249 -0.8642 -0.2243
 1300TIP3   OH225314   4.782   6.609   6.071  0.2643  0.0978 -0.3944
 1300TIP3    H125315   4.783   6.605   6.166 -0.0010  0.3270 -0.3790
 1300TIP3    H225316   4.808   6.699   6.050 -1.3204  0.5761 -0.4718
 1301TIP3   OH225317   4.762   2.553   2.166 -0.3012  0.7246 -0.5502
 1301TIP3    H125318   4.815   2.477   2.191 -2.0106  0.1185  1.6066
 1301TIP3    H225319   4.809   2.627   2.202 -0.4185  0.2761  0.5857
 1302TIP3   OH225320   0.138   5.933  11.402  0.0685  0.2191  0.3029
 1302TIP3    H125321   0.098   5.891  11.327  0.0079 -0.3783  0.6571
 1302TIP3    H225322   0.123   5.872  11.474  0.2068  0.7369  0.7780
 1303TIP3   OH225323   5.364   4.403  10.766 -0.0993 -0.1270 -0.2272
 1303TIP3    H125324   5.428   4.396  10.695 -1.1218  0.7445 -1.2779
 1303TIP3    H225325   5.364   4.317  10.807 -0.7277 -1.2416 -2.4151
 1304TIP3   OH225326   0.578   5.415   5.642  0.4997  0.0389  0.1596
 1304TIP3    H125327   0.484   5.428   5.655  0.4959 -1.3627  1.9538
 1304TIP3    H225328   0.619   5.484   5.695  0.5198  1.0804 -1.1652
 1305TIP3   OH225329   2.424   2.052   1.827 -0.3096 -0.0560  0.0353
 1305TIP3    H125330   2.459   1.968   1.798  0.6089  0.6000 -0.7945
 1305TIP3    H225331   2.452   2.115   1.761 -1.0841  0.8989  0.5801
 1306TIP3   OH225332   0.219   3.890  14.698  0.0743 -0.4758 -0.2840
 1306TIP3    H125333   0.182   3.905  14.611  1.5524 -0.7491 -0.9909
 1306TIP3    H225334   0.202   3.798  14.716 -3.5654  0.3547  1.4114
 1307TIP3   OH225335   3.130   6.455   2.024  0.0023  0.3223  0.0331
 1307TIP3    H125336   3.054   6.405   1.993  0.0272  0.1653  0.2211
 1307TIP3    H225337   3.106   6.483   2.112  0.1579  0.2811  0.0897
 1308TIP3   OH225338   5.439   4.519  14.708  0.4816  0.2309  0.8918
 1308TIP3    H125339   5.530   4.545  14.724  0.4284  0.6370  0.5331
 1308TIP3    H225340   5.405   4.585  14.648  1.2786 -2.2485 -2.6207
 1309TIP3   OH225341   2.229   0.108   1.710  0.3045 -0.0356  0.7246
 1309TIP3    H125342   2.222   0.012   1.710  0.7475 -0.1045  2.4440
 1309TIP3    H225343   2.300   0.127   1.647 -0.4286 -0.7445 -0.3502
 1310TIP3   OH225344   1.136   1.013   4.675 -0.1583 -0.3769 -0.3301
 1310TIP3    H125345   1.144   0.968   4.591 -0.4608  0.2937 -0.7235
 1310TIP3    H225346   1.224   1.046   4.693 -0.1519 -0.2943 -0.5116
 1311TIP3   OH225347   4.961   1.873   6.195  0.6739 -0.2861  0.1414
 1311TIP3    H125348   5.054   1.851   6.201  0.9491  1.1379  1.7701
 1311TIP3    H225349   4.917   1.789   6.179  2.2380 -0.9334 -1.0674
 1312TIP3   OH225350   5.001   0.807  12.718  0.0138 -0.0755 -0.8935
 1312TIP3    H125351   4.911   0.810  12.749 -0.0053  1.2882 -1.0385
 1312TIP3    H225352   4.994   0.809  12.622  0.0934 -3.7090 -1.1110
 1313TIP3   OH225353   4.249   6.362  12.424 -0.1632 -0.0028  0.0087
 1313TIP3    H125354   4.229   6.321  12.340  1.9430 -0.0909 -0.4908
 1313TIP3    H225355   4.254   6.289  12.486  2.9563 -0.5902 -0.7601
 1314TIP3   OH225356   4.733   6.079   3.401  0.2353  0.9738 -0.4690
 1314TIP3    H125357   4.739   6.167   3.439 -1.8744  1.5299 -1.2613
 1314TIP3    H225358   4.800   6.078   3.333 -0.1248  2.2450 -0.8819
 1315TIP3   OH225359   4.847   5.309   1.471 -0.3203  0.2487  0.3358
 1315TIP3    H125360   4.860   5.328   1.564  0.4436  1.8402 -0.0469
 1315TIP3    H225361   4.783   5.238   1.469 -0.4593  0.2813  2.0604
 1316TIP3   OH225362   3.994   0.974  11.060 -0.3986  0.2192 -0.0086
 1316TIP3    H125363   4.004   1.038  10.989 -1.0361 -0.0564 -0.3615
 1316TIP3    H225364   3.948   0.901  11.019 -1.4265  0.3512  0.8506
 1317TIP3   OH225365   0.696   5.364  10.909 -0.0533 -0.1996 -0.0352
 1317TIP3    H125366   0.681   5.441  10.854 -1.2301 -1.0158 -0.9041
 1317TIP3    H225367   0.676   5.289  10.852 -1.2372 -1.0860  1.4606
 1318TIP3   OH225368   3.355   0.267  12.510 -0.4346  0.6631  0.9310
 1318TIP3    H125369   3.424   0.330  12.532 -1.1355  1.6264  0.4635
 1318TIP3    H225370   3.310   0.252  12.593 -0.2412  0.7467  1.0531
 1319TIP3   OH225371   5.282   5.251   0.503 -0.2541 -0.2594 -0.4419
 1319TIP3    H125372   5.205   5.222   0.454 -0.7177 -2.3483  1.3725
 1319TIP3    H225373   5.276   5.205   0.586  3.1397 -0.7208 -0.3311
 1320TIP3   OH225374   0.536   5.799  13.837  0.1955  0.1947  0.5308
 1320TIP3    H125375   0.486   5.844  13.905  1.2521 -0.1815  1.5930
 1320TIP3    H225376   0.628   5.813  13.861  0.5721 -0.8006 -0.2489
 1321TIP3   OH225377   0.032   1.282   5.659  0.2990  0.1106 -0.3268
 1321TIP3    H125378   0.067   1.367   5.634 -0.0118  1.1311  2.3748
 1321TIP3    H225379   0.109   1.227   5.673  0.5116  0.0700 -1.5072
 1322TIP3   OH225380   2.964   3.827  10.975 -0.5555  0.0794  0.0946
 1322TIP3    H125381   2.948   3.898  11.037 -1.4035  0.3246 -0.3938
 1322TIP3    H225382   2.896   3.837  10.908 -0.6594 -1.1527 -0.0154
 1323TIP3   OH225383   5.232   1.395  11.480  0.2485  0.6994  0.1014
 1323TIP3    H125384   5.293   1.419  11.410 -0.3019 -0.4966 -0.8232
 1323TIP3    H225385   5.175   1.471  11.490 -0.5139  0.4268 -1.7273
 1324TIP3   OH225386   3.995   5.288   5.613 -0.5560  0.0696  0.0679
 1324TIP3    H125387   3.936   5.291   5.538  1.3924 -0.7092 -1.6051
 1324TIP3    H225388   3.943   5.321   5.686 -2.2164  1.9245 -1.8233
 1325TIP3   OH225389   1.551   1.184   1.124 -0.2381 -0.1751 -0.3123
 1325TIP3    H125390   1.635   1.202   1.082 -0.9101 -0.8714 -2.0783
 1325TIP3    H225391   1.570   1.116   1.189  1.4492  3.2073  3.1019
 1326TIP3   OH225392   5.342   2.200   1.349  0.8221 -0.7139  0.0737
 1326TIP3    H125393   5.330   2.119   1.300 -0.1754 -0.6611  0.2203
 1326TIP3    H225394   5.379   2.172   1.433 -0.1964 -1.1019  0.4056
 1327TIP3   OH225395   3.110   6.058   4.710  0.0157  0.1843 -0.4095
 1327TIP3    H125396   3.120   5.963   4.714 -0.4688  0.1606  0.6471
 1327TIP3    H225397   3.035   6.077   4.766 -0.5015  1.1172 -1.3686
 1328TIP3   OH225398   2.670   6.188  10.322 -0.2471 -0.3467 -0.5931
 1328TIP3    H125399   2.607   6.246  10.364  0.3676  0.2854 -0.5166
 1328TIP3    H225400   2.755   6.214  10.360  0.3674  0.4077 -2.3877
 1329TIP3   OH225401   1.788   6.282   2.186  0.6775 -0.0546 -0.2094
 1329TIP3    H125402   1.822   6.360   2.230 -0.5344  0.6632 -0.4862
 1329TIP3    H225403   1.830   6.283   2.100 -0.1387  0.9464 -0.6281
 1330TIP3   OH225404   5.070   3.927   5.818 -0.0724 -0.0827 -0.5282
 1330TIP3    H125405   5.042   3.946   5.728  0.5530  0.0286 -0.7028
 1330TIP3    H225406   5.031   3.997   5.870  0.0135  0.1655 -0.7924
 1331TIP3   OH225407   5.556   0.064   0.339 -0.0839  0.9070 -0.9483
 1331TIP3    H125408   5.483   0.031   0.391  0.2347  0.0513 -1.0278
 1331TIP3    H225409   5.542   0.028   0.252 -0.4056  2.0208 -1.3722
 1332TIP3   OH225410   2.606   2.838  12.344  0.1154 -0.3347 -0.1228
 1332TIP3    H125411   2.539   2.811  12.407  0.0660 -0.6324 -0.3005
 1332TIP3    H225412   2.606   2.769  12.278 -2.2185  1.5966 -2.3165
 1333TIP3   OH225413   5.515   4.593   2.168  0.4215 -0.4878  0.0039
 1333TIP3    H125414   5.463   4.555   2.097  0.9351 -0.4368 -0.4047
 1333TIP3    H225415   5.534   4.518   2.226  0.2042 -0.5760 -0.0391
 1334TIP3   OH225416   2.544   1.020   2.850  0.0011  0.5228 -0.6729
 1334TIP3    H125417   2.464   1.031   2.799 -1.3921 -1.3976  0.9138
 1334TIP3    H225418   2.579   0.936   2.821  0.0291  0.1483  0.4152
 1335TIP3   OH225419   2.458   5.016   2.901  0.7407  0.1022  0.1421
 1335TIP3    H125420   2.430   4.955   2.833  0.8797  0.1200  0.0688
 1335TIP3    H225421   2.550   5.036   2.879  1.8746 -2.3887  2.1074
 1336TIP3   OH225422   1.441   4.159  13.280  0.1195  0.5955 -0.4844
 1336TIP3    H125423   1.501   4.144  13.353 -1.3962  0.0887  0.7219
 1336TIP3    H225424   1.471   4.242  13.242  2.2823 -0.2297 -0.7135
 1337TIP3   OH225425   4.170   5.075   1.027 -0.1294 -0.0824 -0.0661
 1337TIP3    H125426   4.153   5.066   1.121  0.3542  1.0252  0.1491
 1337TIP3    H225427   4.245   5.135   1.022 -2.1041  2.4605 -1.2250
 1338TIP3   OH225428   2.744   3.178   1.164  0.3469  0.1304  0.6055
 1338TIP3    H125429   2.710   3.229   1.091 -0.7911  0.0590  1.0648
 1338TIP3    H225430   2.820   3.226   1.195 -0.8765  1.7553  1.2288
 1339TIP3   OH225431   6.353   4.849  16.214  0.1352  0.1991  0.0113
 1339TIP3    H125432   6.399   4.799  16.147  0.0666  0.8457 -0.5181
 1339TIP3    H225433   6.356   4.793  16.292  0.5961 -0.3608 -0.4061
 1340TIP3   OH225434   4.075   2.859   2.004 -0.0251  0.3063 -0.4061
 1340TIP3    H125435   4.009   2.891   1.943 -0.8077 -2.9333 -1.4823
 1340TIP3    H225436   4.156   2.854   1.952  0.2715  1.1035 -0.0422
 1341TIP3   OH225437   5.032   1.224  10.540 -0.4833 -0.0504  0.4845
 1341TIP3    H125438   4.980   1.219  10.460 -0.1646 -1.1496  0.3241
 1341TIP3    H225439   5.087   1.302  10.528  0.0171 -0.5532 -0.6608
 1342TIP3   OH225440   5.438   6.795   5.768 -0.2284 -0.0845 -0.1103
 1342TIP3    H125441   5.457   6.736   5.695 -1.0796 -0.6685  0.1335
 1342TIP3    H225442   5.521   6.840   5.783  0.2998 -0.8440 -0.6362
 1343TIP3   OH225443   1.694   3.146  14.103 -0.1917  0.8823 -0.5533
 1343TIP3    H125444   1.630   3.077  14.120  0.4318 -0.0887 -1.9021
 1343TIP3    H225445   1.692   3.201  14.181 -1.5958  0.0400  0.0429
 1344TIP3   OH225446   3.827   1.248   5.146  0.1953 -0.0362 -0.3565
 1344TIP3    H125447   3.736   1.221   5.135 -0.0592  0.8143 -0.4123
 1344TIP3    H225448   3.834   1.330   5.097  1.1278 -0.3542 -0.7748
 1345TIP3   OH225449   0.294   1.323  10.508  0.2487 -0.4075  0.0543
 1345TIP3    H125450   0.202   1.316  10.534  0.3190 -0.0911  0.3942
 1345TIP3    H225451   0.330   1.389  10.566  0.0613  1.4238 -1.7939
 1346TIP3   OH225452   1.728   5.395  12.994 -0.1073 -0.4049 -0.2676
 1346TIP3    H125453   1.688   5.475  13.029 -0.8913 -0.0486 -1.8322
 1346TIP3    H225454   1.820   5.418  12.979 -0.5807  0.6780 -1.8561
 1347TIP3   OH225455   2.228   3.511   3.628  0.4983 -0.3121 -0.1799
 1347TIP3    H125456   2.189   3.598   3.629  2.0996  0.4529 -1.0213
 1347TIP3    H225457   2.169   3.458   3.682  0.9078  1.8854  2.6293
 1348TIP3   OH225458   6.771   6.121  13.209 -0.7549 -0.1084 -0.0035
 1348TIP3    H125459   6.800   6.212  13.207 -0.1634 -0.2679  0.4978
 1348TIP3    H225460   6.825   6.077  13.143 -1.2174 -0.0478 -0.4219
 1349TIP3   OH225461   4.715   5.960  11.814  0.4767 -0.4145  0.0407
 1349TIP3    H125462   4.755   5.899  11.875 -0.1871 -0.8287  0.0793
 1349TIP3    H225463   4.780   6.029  11.802  0.4133 -0.0163  1.6712
 1350TIP3   OH225464   1.254   3.418   0.430  0.8079  0.1038  0.3585
 1350TIP3    H125465   1.214   3.495   0.469 -0.7310 -0.5608  0.1538
 1350TIP3    H225466   1.233   3.347   0.490 -1.1038 -0.8346 -1.3234
 1351TIP3   OH225467   0.065   5.075   5.949 -0.5633  0.0683 -0.3676
 1351TIP3    H125468   0.049   5.169   5.954 -1.3587 -0.0910  0.1848
 1351TIP3    H225469  -0.004   5.036   6.002  0.6154 -0.7437  0.6368
 1352TIP3   OH225470   6.164   5.102   1.370  0.2159  0.4408  0.2664
 1352TIP3    H125471   6.168   5.197   1.375 -0.2078  0.5315 -0.7772
 1352TIP3    H225472   6.089   5.078   1.425 -0.7584  0.8751 -0.8243
 1353TIP3   OH225473   2.745   5.267  12.059  0.2840  0.1554 -0.2894
 1353TIP3    H125474   2.724   5.307  12.144 -0.4172 -1.6739  0.4489
 1353TIP3    H225475   2.772   5.178  12.080 -1.1523 -0.7759 -2.0656
 1354TIP3   OH225476   1.407   1.610   4.849  0.7143  0.2376  0.0968
 1354TIP3    H125477   1.313   1.597   4.864  1.1087 -2.4293  0.8608
 1354TIP3    H225478   1.416   1.611   4.754  0.0727 -1.6167 -0.0245
 1355TIP3   OH225479   6.425   5.491   0.952 -0.2152  0.6335 -0.3427
 1355TIP3    H125480   6.461   5.567   0.997  1.5413  0.7943 -1.9125
 1355TIP3    H225481   6.370   5.528   0.882 -0.7516  0.4219 -0.0390
 1356TIP3   OH225482   2.703   2.824   4.062 -0.4703  0.2238 -0.1413
 1356TIP3    H125483   2.641   2.884   4.104 -0.1592 -1.0594  2.3499
 1356TIP3    H225484   2.763   2.881   4.014 -1.9073  1.6724 -0.3179
 1357TIP3   OH225485   5.516   5.287  11.025  0.4116  0.0731  0.1143
 1357TIP3    H125486   5.507   5.193  11.042  1.0168 -0.1676 -0.8264
 1357TIP3    H225487   5.589   5.315  11.081  0.1011  0.0297  0.5438
 1358TIP3   OH225488   1.738   6.129   3.757 -0.0240 -0.0218 -0.1491
 1358TIP3    H125489   1.703   6.047   3.721 -1.5813  0.8154 -0.6701
 1358TIP3    H225490   1.731   6.118   3.852  1.3770 -1.1212 -0.1446
 1359TIP3   OH225491   1.472   5.873  12.944 -0.0088  0.0010 -0.1647
 1359TIP3    H125492   1.435   5.813  13.009  0.9876  1.4738  1.8663
 1359TIP3    H225493   1.398   5.926  12.916  0.0255  1.5231  2.2928
 1360TIP3   OH225494   0.295   4.038  10.699  0.0771 -0.3225 -0.1787
 1360TIP3    H125495   0.349   3.959  10.702  0.7096 -0.0269 -2.2123
 1360TIP3    H225496   0.345   4.103  10.747  0.3118 -0.7225  0.1277
 1361TIP3   OH225497   4.682   3.469  15.863  0.4629  0.4543  0.5518
 1361TIP3    H125498   4.688   3.448  15.770  1.0219  0.7527  0.5166
 1361TIP3    H225499   4.595   3.437  15.889  0.8130 -0.8247  0.2365
 1362TIP3   OH225500   3.570   5.373   0.691  0.5768 -0.2826 -0.1079
 1362TIP3    H125501   3.638   5.348   0.627  0.4171  0.0262 -0.4051
 1362TIP3    H225502   3.583   5.313   0.764  0.5301 -0.8861 -0.5860
 1363TIP3   OH225503   0.679   0.670  14.069  0.0751  0.5996 -0.0858
 1363TIP3    H125504   0.591   0.666  14.106  0.5422 -1.7949  1.0034
 1363TIP3    H225505   0.684   0.593  14.012  1.6452  0.3058  0.3969
 1364TIP3   OH225506   3.885   0.134   0.688 -0.0659  0.0141 -0.2557
 1364TIP3    H125507   3.866   0.050   0.647 -1.1430  0.8836 -1.6322
 1364TIP3    H225508   3.949   0.175   0.630  1.7017 -0.4688  1.2594
 1365TIP3   OH225509   2.289   5.280  12.096  0.1353 -0.2365 -0.3671
 1365TIP3    H125510   2.346   5.354  12.121  0.7822 -0.7459 -0.2896
 1365TIP3    H225511   2.348   5.220  12.050 -0.3180 -0.8273 -0.1858
 1366TIP3   OH225512   0.792   3.557   6.360 -0.3365  0.1007 -0.5783
 1366TIP3    H125513   0.723   3.491   6.348  0.3442 -1.0560  1.4599
 1366TIP3    H225514   0.866   3.523   6.311 -0.3775 -0.0235 -0.5543
 1367TIP3   OH225515   1.148   1.107  10.676 -0.6449 -0.1386  0.2678
 1367TIP3    H125516   1.168   1.154  10.595 -0.3142 -1.3717 -0.3851
 1367TIP3    H225517   1.184   1.019  10.663 -0.6665 -0.3920  1.7174
 1368TIP3   OH225518   5.640   4.696  16.408 -0.0316  0.0561  0.0372
 1368TIP3    H125519   5.651   4.637  16.483  0.8371 -0.8238 -0.7485
 1368TIP3    H225520   5.715   4.676  16.351 -0.9552  0.3369 -1.3128
 1369TIP3   OH225521   0.557   3.352  14.200 -0.6433 -0.0353 -0.0863
 1369TIP3    H125522   0.586   3.358  14.291 -1.2479  0.4730  0.0799
 1369TIP3    H225523   0.603   3.422  14.155  1.6633 -1.8561 -0.7572
 1370TIP3   OH225524   6.435   3.260   2.087 -0.1299 -0.0972 -0.6878
 1370TIP3    H125525   6.454   3.261   2.180  1.5646  2.1766 -0.9593
 1370TIP3    H225526   6.428   3.168   2.064  0.2368 -0.7248  1.5263
 1371TIP3   OH225527   3.230   2.970   1.875 -0.0073 -0.3067 -0.2848
 1371TIP3    H125528   3.178   3.004   1.802  1.2194  0.8529 -0.6619
 1371TIP3    H225529   3.217   2.876   1.872 -2.2654 -0.0515 -0.2019
 1372TIP3   OH225530   4.630   2.683   6.506 -0.2858 -0.2791  0.5134
 1372TIP3    H125531   4.639   2.754   6.442  1.4397 -0.5124  0.4467
 1372TIP3    H225532   4.536   2.674   6.519 -0.5551  2.6967  1.2774
 1373TIP3   OH225533   3.034   2.132  11.298 -0.2228  0.2976 -0.1986
 1373TIP3    H125534   2.983   2.213  11.303 -0.1102  0.3095  0.9601
 1373TIP3    H225535   3.032   2.096  11.386  1.2412 -0.0286 -0.2632
 1374TIP3   OH225536   3.425   5.949  14.174  0.0766 -0.2855  0.1491
 1374TIP3    H125537   3.512   5.951  14.215  0.6523  2.9395 -0.9625
 1374TIP3    H225538   3.403   6.041  14.158 -3.1825 -1.0380 -0.4547
 1375TIP3   OH225539   1.097   3.829  16.007  0.7797 -0.3438  0.3405
 1375TIP3    H125540   1.072   3.920  16.025  0.1900 -0.4841  0.2387
 1375TIP3    H225541   1.030   3.777  16.051  0.3735 -0.7190 -0.6933
 1376TIP3   OH225542   1.012   6.377  14.619  0.2291  0.4107  0.0476
 1376TIP3    H125543   1.095   6.415  14.649  0.0411  0.3772  0.6352
 1376TIP3    H225544   1.003   6.297  14.671 -1.2541  1.5524  1.6667
 1377TIP3   OH225545   4.650   5.486   1.376 -0.3378 -0.0007  0.3706
 1377TIP3    H125546   4.708   5.544   1.327 -0.2448 -1.2356 -1.0763
 1377TIP3    H225547   4.707   5.439   1.436 -0.2164  0.5036  0.6483
 1378TIP3   OH225548   1.922   4.442  11.338  0.2418 -0.4370 -1.0040
 1378TIP3    H125549   1.862   4.431  11.264 -1.0977 -0.1070  0.0009
 1378TIP3    H225550   1.869   4.421  11.415  0.3998  3.1177  0.2280
 1379TIP3   OH225551   4.686   0.132   0.400  0.0197 -0.1578  0.0347
 1379TIP3    H125552   4.706   0.225   0.397 -0.8329  0.0346  0.0044
 1379TIP3    H225553   4.590   0.128   0.407 -0.0661 -1.0451 -1.2284
 1380TIP3   OH225554   2.151   4.523  16.034 -0.3449  0.2792 -0.2027
 1380TIP3    H125555   2.093   4.453  16.003 -0.0200  0.1687 -0.5572
 1380TIP3    H225556   2.231   4.478  16.059 -1.2831  0.0613  2.7843
 1381TIP3   OH225557   2.525   0.234  16.263 -0.4079 -0.3313 -0.3650
 1381TIP3    H125558   2.542   0.151  16.217  1.7685  0.0710 -0.3964
 1381TIP3    H225559   2.459   0.211  16.329  0.0969 -2.0912 -0.4012
 1382TIP3   OH225560   3.783   3.760  12.949 -0.1733 -0.0328 -0.0445
 1382TIP3    H125561   3.699   3.802  12.927 -0.0586  0.3745  0.2825
 1382TIP3    H225562   3.761   3.667  12.956 -0.4770 -0.0056 -0.5553
 1383TIP3   OH225563   6.538   6.631  12.110 -0.7980 -0.0813 -0.1080
 1383TIP3    H125564   6.493   6.557  12.069  2.3307 -2.2198  0.0431
 1383TIP3    H225565   6.607   6.654  12.048  0.5142  0.3215  1.4493
 1384TIP3   OH225566   0.559   3.533  10.353  0.0207 -0.2451 -0.0404
 1384TIP3    H125567   0.465   3.537  10.374 -0.2130  0.5160 -1.0925
 1384TIP3    H225568   0.568   3.590  10.277  1.7882  1.7485  1.5539
 1385TIP3   OH225569   5.359   5.709  15.194  0.0955 -0.2402 -0.5073
 1385TIP3    H125570   5.372   5.755  15.111 -0.2341 -1.5197 -1.2998
 1385TIP3    H225571   5.424   5.747  15.253 -1.8760  3.1278 -0.2701
 1386TIP3   OH225572   3.725   2.730  11.159 -0.5889  0.1779 -0.1385
 1386TIP3    H125573   3.648   2.781  11.186 -1.2968 -0.9076 -0.0487
 1386TIP3    H225574   3.720   2.729  11.063 -0.3734  0.5612 -0.1577
 1387TIP3   OH225575   5.674   1.160   1.138 -0.0699  0.5299 -0.7729
 1387TIP3    H125576   5.613   1.087   1.146  0.9955 -0.3092 -0.0726
 1387TIP3    H225577   5.648   1.220   1.209 -1.4242  1.2463 -1.8105
 1388TIP3   OH225578   5.445   2.276  15.741 -0.1135 -0.0979 -0.7709
 1388TIP3    H125579   5.455   2.262  15.835 -0.4704  0.3096 -0.6659
 1388TIP3    H225580   5.503   2.349  15.722  1.3767 -1.3497 -1.2236
 1389TIP3   OH225581   2.873   2.196   3.669 -0.9298  0.0666 -0.2895
 1389TIP3    H125582   2.866   2.154   3.754  0.8063  1.3242  0.5355
 1389TIP3    H225583   2.799   2.258   3.666 -1.6947 -0.8241 -0.2364
 1390TIP3   OH225584   4.331   1.421  11.851  0.5750  0.9433  0.0392
 1390TIP3    H125585   4.343   1.507  11.812 -0.7307  0.6407 -1.0931
 1390TIP3    H225586   4.420   1.388  11.864  1.0984  2.4964  0.6479
 1391TIP3   OH225587   4.874   1.673   3.327  0.1913  0.2811  0.0916
 1391TIP3    H125588   4.863   1.608   3.257  0.3259  1.3147 -0.9096
 1391TIP3    H225589   4.944   1.730   3.296  0.7469  0.3543  1.4006
 1392TIP3   OH225590   1.581   1.559  15.480  0.4719 -0.5124 -0.1940
 1392TIP3    H125591   1.576   1.639  15.531  1.0825 -1.0475  0.7248
 1392TIP3    H225592   1.565   1.489  15.543 -0.8703 -1.1038 -1.1236
 1393TIP3   OH225593   5.604   1.694   2.035 -0.0693 -0.0364  0.6425
 1393TIP3    H125594   5.531   1.748   2.004  0.1117 -0.3575 -0.3708
 1393TIP3    H225595   5.650   1.669   1.956  1.5348  0.6933  1.2958
 1394TIP3   OH225596   0.501   0.251  12.126 -0.4967 -0.3800 -0.3495
 1394TIP3    H125597   0.469   0.219  12.042 -0.7661 -0.6360 -0.1512
 1394TIP3    H225598   0.539   0.174  12.169 -2.3737 -0.7802  0.7134
 1395TIP3   OH225599   1.345   5.860   5.559  0.1812 -0.1647  0.3891
 1395TIP3    H125600   1.431   5.832   5.528  1.1985  1.0605  1.9614
 1395TIP3    H225601   1.356   5.874   5.653 -1.6408  0.3681  0.5655
 1396TIP3   OH225602   2.568   2.511   5.057 -0.5789 -0.7017 -0.1351
 1396TIP3    H125603   2.613   2.573   5.000 -0.4232  0.1207  0.8620
 1396TIP3    H225604   2.486   2.554   5.080 -0.5145 -0.8919  0.4834
 1397TIP3   OH225605   1.855   1.368   0.699  0.1576 -0.4759  0.1231
 1397TIP3    H125606   1.885   1.458   0.688  1.5469 -0.8172  0.8490
 1397TIP3    H225607   1.764   1.369   0.670  0.8506  0.6192 -2.2649
 1398TIP3   OH225608   4.043   2.117  13.427  0.3062 -0.0940 -0.6379
 1398TIP3    H125609   4.099   2.153  13.496  1.1835 -0.2889 -1.2207
 1398TIP3    H225610   3.972   2.180  13.418 -0.9644 -1.0359  1.8160
 1399TIP3   OH225611   5.643   3.356  12.894 -0.2508 -0.0545  0.1701
 1399TIP3    H125612   5.637   3.261  12.906  1.2718 -0.0772  1.0755
 1399TIP3    H225613   5.571   3.378  12.835 -2.8977 -1.2456  2.7224
 1400TIP3   OH225614   1.207   6.307  16.368  0.0308  0.8271 -0.1815
 1400TIP3    H125615   1.134   6.249  16.347  0.7819 -1.0125  1.8338
 1400TIP3    H225616   1.172   6.366  16.435 -0.1700  1.3750 -0.7592
 1401TIP3   OH225617   4.463   4.747  13.606 -0.4345 -0.4173 -0.9821
 1401TIP3    H125618   4.556   4.768  13.609 -0.6075  0.2253  0.8346
 1401TIP3    H225619   4.424   4.814  13.550 -0.0136  0.2547 -0.4829
 1402TIP3   OH225620   4.592   6.233   3.830 -0.3984 -0.2514 -0.4836
 1402TIP3    H125621   4.638   6.209   3.910  1.3591 -0.9049 -1.6278
 1402TIP3    H225622   4.651   6.293   3.785 -2.3720  1.9990 -0.2514
 1403TIP3   OH225623   2.849   6.539  14.582 -1.0841  0.3616  0.0023
 1403TIP3    H125624   2.922   6.589  14.618 -0.5679 -2.1459  2.8717
 1403TIP3    H225625   2.784   6.606  14.558  0.3457  2.5117  1.6806
 1404TIP3   OH225626   1.643   2.312   1.278 -0.2354  0.3215  0.3343
 1404TIP3    H125627   1.618   2.247   1.212 -1.7699  0.0565  1.1380
 1404TIP3    H225628   1.608   2.395   1.245 -0.9235  0.2046  0.7511
 1405TIP3   OH225629   6.530   3.912  12.714  0.0797  0.2211 -0.0259
 1405TIP3    H125630   6.484   3.858  12.778  0.8358 -1.7268 -1.0539
 1405TIP3    H225631   6.609   3.942  12.760  0.2864 -0.6243  0.1960
 1406TIP3   OH225632   1.874   2.957  15.044  0.0126  0.1258  0.2105
 1406TIP3    H125633   1.843   3.046  15.024  2.1605  1.0490  0.6247
 1406TIP3    H225634   1.814   2.899  14.998 -1.4511  1.7952 -0.0853
 1407TIP3   OH225635   1.624   1.565   5.678 -0.1009 -0.2660  0.3133
 1407TIP3    H125636   1.640   1.659   5.680  0.7509 -0.4071  0.7759
 1407TIP3    H225637   1.690   1.528   5.736 -0.2404 -1.1804 -0.0847
 1408TIP3   OH225638   5.221   5.628   1.046  0.1735  0.0759  0.5827
 1408TIP3    H125639   5.289   5.650   0.982 -0.3351 -1.4045 -0.5357
 1408TIP3    H225640   5.139   5.637   0.997 -0.3570  0.5321  1.5256
 1409TIP3   OH225641   4.481   3.454   1.941  0.2765 -0.0626  0.2335
 1409TIP3    H125642   4.550   3.474   2.005  0.1423 -0.9328  0.6570
 1409TIP3    H225643   4.410   3.513   1.965 -0.5780 -1.7797  2.2466
 1410TIP3   OH225644   3.797   1.790  12.170 -0.8177 -0.2836 -0.0011
 1410TIP3    H125645   3.751   1.717  12.211 -3.2480  0.1034 -1.8099
 1410TIP3    H225646   3.750   1.804  12.088  1.3435  1.5252 -1.0200
 1411TIP3   OH225647   4.715   3.955   5.153  0.0451  0.6301  0.2969
 1411TIP3    H125648   4.635   3.981   5.107 -0.2538 -0.9702 -0.1729
 1411TIP3    H225649   4.703   3.861   5.170  0.9580  0.7784  2.0253
 1412TIP3   OH225650   4.496   5.112  12.555 -0.0501 -0.7136 -0.2772
 1412TIP3    H125651   4.450   5.172  12.495  0.7020  0.7126  0.5218
 1412TIP3    H225652   4.435   5.040  12.567 -1.7035  0.6379 -0.0469
 1413TIP3   OH225653   0.144   2.236  16.147  0.1124  0.2976  0.1275
 1413TIP3    H125654   0.195   2.214  16.070 -0.3520 -1.8287  0.3520
 1413TIP3    H225655   0.203   2.286  16.203  0.9543  0.4658 -0.9006
 1414TIP3   OH225656   6.231   2.812   6.050 -0.0665 -0.6845 -0.5456
 1414TIP3    H125657   6.282   2.732   6.065 -1.6342 -2.0660 -2.0565
 1414TIP3    H225658   6.166   2.813   6.120  0.1952 -0.5157 -0.3035
 1415TIP3   OH225659   2.448   3.635   4.113  0.2540 -0.4413  0.0384
 1415TIP3    H125660   2.374   3.622   4.053  0.9236 -1.8972 -0.5230
 1415TIP3    H225661   2.483   3.548   4.126  1.4761  0.1498  0.8250
 1416TIP3   OH225662   2.674   0.886  15.765 -0.5201 -0.3393 -0.6488
 1416TIP3    H125663   2.728   0.964  15.770 -0.5394 -0.3774  0.5702
 1416TIP3    H225664   2.617   0.891  15.842 -0.4740 -1.5697 -0.5040
 1417TIP3   OH225665   5.218   6.183  14.309 -0.1962 -0.0384 -0.0405
 1417TIP3    H125666   5.239   6.131  14.232 -0.6597 -0.2596 -0.0216
 1417TIP3    H225667   5.250   6.271  14.288 -0.7188  0.0104 -0.6677
 1418TIP3   OH225668   2.365   3.258  14.418  0.1169 -1.0112  0.0735
 1418TIP3    H125669   2.292   3.198  14.433  0.1268 -0.5855  2.1646
 1418TIP3    H225670   2.425   3.241  14.491  1.6769 -0.6955 -1.0880
 1419TIP3   OH225671   2.855   5.821   1.584 -0.1067  0.3922 -0.4520
 1419TIP3    H125672   2.779   5.875   1.563 -0.5089  0.3413  0.8101
 1419TIP3    H225673   2.854   5.751   1.519  0.5228  1.9671 -2.2473
 1420TIP3   OH225674   0.441   5.463  16.005  0.2563 -0.1402 -0.3323
 1420TIP3    H125675   0.502   5.437  16.074  0.7612  1.5372 -0.1003
 1420TIP3    H225676   0.376   5.517  16.049  0.5265  0.8731 -1.1363
 1421TIP3   OH225677   4.112   3.860  16.139  0.2055 -0.4642 -0.0642
 1421TIP3    H125678   4.126   3.765  16.141  0.0352 -0.5118 -0.7203
 1421TIP3    H225679   4.187   3.897  16.185  0.5632 -0.8941 -0.2937
 1422TIP3   OH225680   1.283   0.859  13.762 -0.1648  0.4927  0.0884
 1422TIP3    H125681   1.253   0.823  13.846  0.8451  0.2210  0.3609
 1422TIP3    H225682   1.368   0.898  13.783 -0.9726  2.5870 -0.3199
 1423TIP3   OH225683   5.900   4.772  16.718  0.1872 -0.3405  0.0006
 1423TIP3    H125684   5.897   4.695  16.661  0.2722  0.0549 -0.5470
 1423TIP3    H225685   5.978   4.820  16.689 -0.9936  1.0265 -1.0873
 1424TIP3   OH225686   5.592   5.490  10.477  0.2666 -0.0197  0.7976
 1424TIP3    H125687   5.542   5.414  10.447 -0.2952  0.9392 -0.7994
 1424TIP3    H225688   5.527   5.546  10.519  0.3252  0.4446  0.2671
 1425TIP3   OH225689   1.584   3.000  11.718  0.3823 -0.3451  0.1263
 1425TIP3    H125690   1.563   2.939  11.648 -0.4621  0.8192 -0.6717
 1425TIP3    H225691   1.510   2.993  11.779 -0.3496  0.7534 -0.5998
 1426TIP3   OH225692   4.309   2.727   3.659 -0.1314 -0.1375  0.2345
 1426TIP3    H125693   4.397   2.712   3.625 -0.2750  1.4412 -0.9396
 1426TIP3    H225694   4.257   2.749   3.582 -0.8310  2.0441  1.2512
 1427TIP3   OH225695   2.523   6.445   2.087 -0.8846 -0.2306  0.4292
 1427TIP3    H125696   2.474   6.513   2.040 -0.3046 -0.2237 -0.1914
 1427TIP3    H225697   2.613   6.457   2.057  0.1240  1.6636  3.6880
 1428TIP3   OH225698   2.443   3.071   0.157 -0.2815 -0.5473  0.1184
 1428TIP3    H125699   2.441   3.064   0.253  0.5458  1.4437  0.3416
 1428TIP3    H225700   2.452   3.165   0.141  2.7598 -1.0130 -1.8111
 1429TIP3   OH225701   4.984   6.752  16.370  0.3925 -0.2358  0.1949
 1429TIP3    H125702   5.018   6.829  16.325  1.4358 -2.1639 -2.6048
 1429TIP3    H225703   4.889   6.757  16.358  0.3030  1.3194  1.3490
 1430TIP3   OH225704   6.387   2.674  16.986 -0.2629  0.0086  0.5566
 1430TIP3    H125705   6.440   2.601  17.018  0.5832  0.4139  0.0891
 1430TIP3    H225706   6.446   2.726  16.932 -1.1995  0.3401 -0.1734
 1431TIP3   OH225707   0.409   4.697  12.340 -0.2298 -0.2185 -0.0655
 1431TIP3    H125708   0.410   4.639  12.416 -1.6066 -0.2954 -0.0980
 1431TIP3    H225709   0.317   4.720  12.328 -0.0443 -0.2481 -1.7451
 1432TIP3   OH225710   0.352   3.385  14.020 -0.4156  0.3344 -0.0763
 1432TIP3    H125711   0.282   3.322  14.039  0.1551 -0.0922  0.6399
 1432TIP3    H225712   0.425   3.358  14.076  0.7133  0.1065 -1.5794
 1433TIP3   OH225713   1.713   6.031  12.793  0.1617  0.0809 -0.3781
 1433TIP3    H125714   1.685   6.069  12.710  1.3203  2.1121  0.0870
 1433TIP3    H225715   1.632   6.008  12.838 -0.6886  2.5009 -0.5207
 1434TIP3   OH225716   0.674   4.481   0.537  0.3816 -0.6642 -0.2791
 1434TIP3    H125717   0.646   4.390   0.544  0.8821 -0.9058 -1.2844
 1434TIP3    H225718   0.764   4.476   0.505 -0.2990  0.2149 -2.4778
 1435TIP3   OH225719   4.421   1.742   0.907 -0.1491  0.7048  0.3858
 1435TIP3    H125720   4.504   1.713   0.944  0.5870  0.5039 -1.3377
 1435TIP3    H225721   4.440   1.827   0.867 -1.0048  1.0956  0.7882
 1436TIP3   OH225722   4.804   4.503  15.928  0.1017 -0.2915  0.1332
 1436TIP3    H125723   4.829   4.581  15.978 -0.3238 -0.2197  0.2379
 1436TIP3    H225724   4.757   4.537  15.853  0.3027 -0.4282 -0.0561
 1437TIP3   OH225725   3.819   5.418  15.368 -0.2478  0.1869  0.0920
 1437TIP3    H125726   3.845   5.345  15.311  2.0255  0.2153  1.0014
 1437TIP3    H225727   3.841   5.497  15.319  4.5796  0.2769  1.9261
 1438TIP3   OH225728   0.655   0.647  15.995 -0.3292 -0.3296  0.3015
 1438TIP3    H125729   0.716   0.612  15.930  0.7579  1.5570  0.2554
 1438TIP3    H225730   0.569   0.612  15.969  0.3415 -0.9551 -1.1353
 1439TIP3   OH225731   2.021   0.765   3.850 -0.0459  0.2228  0.2994
 1439TIP3    H125732   1.994   0.853   3.877 -0.5693  0.5226 -1.0962
 1439TIP3    H225733   2.086   0.738   3.915  0.3943  1.7865  0.5446
 1440TIP3   OH225734   1.453   4.822  14.164 -0.0889  0.2226  0.3332
 1440TIP3    H125735   1.481   4.765  14.236  1.1488  0.0097 -0.2915
 1440TIP3    H225736   1.488   4.780  14.085  1.3344  2.1069 -0.1091
 1441TIP3   OH225737   4.409   4.950  13.819  0.2570 -0.1659  0.5874
 1441TIP3    H125738   4.443   5.037  13.798  1.1547 -0.6728 -0.1656
 1441TIP3    H225739   4.404   4.905  13.734  0.0284 -0.9174  0.9897
 1442TIP3   OH225740   2.796   2.381  15.378 -0.1409 -0.5419  0.5396
 1442TIP3    H125741   2.856   2.334  15.320 -0.1806  3.4295 -3.1981
 1442TIP3    H225742   2.708   2.358  15.347 -0.2686 -0.4062  0.7921
 1443TIP3   OH225743   3.145   5.958  16.764  0.7906  0.6880  0.4639
 1443TIP3    H125744   3.170   6.035  16.816 -0.3133  1.4068 -0.0252
 1443TIP3    H225745   3.058   5.979  16.731  0.2486 -1.0091  0.7365
 1444TIP3   OH225746   4.399   0.972   1.129 -0.3409  0.1613  0.1712
 1444TIP3    H125747   4.349   0.989   1.050 -1.4319  0.8946  0.9940
 1444TIP3    H225748   4.445   1.054   1.147 -0.3882  0.1191  0.4978
 1445TIP3   OH225749   1.216   3.709   0.062 -0.4596 -0.0727  0.0216
 1445TIP3    H125750   1.197   3.633   0.117  1.7404 -0.4308  0.4014
 1445TIP3    H225751   1.229   3.673  -0.026 -0.9321  0.0858 -0.1169
 1446TIP3   OH225752   2.121   2.610  10.912 -0.4128  0.2188 -0.3768
 1446TIP3    H125753   2.151   2.583  10.998  0.6832  2.2044 -0.0652
 1446TIP3    H225754   2.066   2.687  10.928 -2.1174 -0.7269 -1.3147
 1447TIP3   OH225755   0.691   3.849   5.278  0.1201  0.0858  0.2569
 1447TIP3    H125756   0.652   3.905   5.345 -0.8448 -0.6013  0.2977
 1447TIP3    H225757   0.640   3.767   5.284  0.4157 -0.1916 -0.9084
 1448TIP3   OH225758   3.594   5.852   1.900  0.2380  0.3607 -0.5642
 1448TIP3    H125759   3.583   5.858   1.995  1.2037 -1.3087 -0.3101
 1448TIP3    H225760   3.609   5.942   1.872  0.9200  0.7734  1.0096
 1449TIP3   OH225761   2.600   3.394   4.203  0.1125 -0.1366 -0.0798
 1449TIP3    H125762   2.686   3.418   4.237  0.6241 -2.7037  0.6378
 1449TIP3    H225763   2.545   3.386   4.280 -0.4197  0.1775 -0.4232
 1450TIP3   OH225764   1.504   2.797  15.414  0.4161 -0.5242 -0.2228
 1450TIP3    H125765   1.536   2.789  15.324 -0.6126 -2.2954 -0.4994
 1450TIP3    H225766   1.583   2.800  15.468  1.0414  0.1134 -1.1450
 1451TIP3   OH225767   5.826   0.110   2.145 -0.3732  0.1777  0.1348
 1451TIP3    H125768   5.773   0.059   2.206  0.4838  0.0992  0.8319
 1451TIP3    H225769   5.851   0.188   2.194  0.5294 -0.0010 -0.0360
 1452TIP3   OH225770   5.760   4.549  13.406  0.0957 -0.2758  0.6587
 1452TIP3    H125771   5.842   4.505  13.428  0.2778 -0.0569  0.4302
 1452TIP3    H225772   5.738   4.599  13.484  1.1026  1.0475  0.1289
 1453TIP3   OH225773   3.086   3.012   3.427  0.1702  0.3148  0.0313
 1453TIP3    H125774   3.094   3.086   3.368  1.2095  0.2895  0.1160
 1453TIP3    H225775   3.168   3.012   3.476 -0.4629  0.0275  1.1125
 1454TIP3   OH225776   0.304   2.871  17.048 -0.2263 -0.0101  0.0517
 1454TIP3    H125777   0.273   2.836  16.964 -0.3227 -1.2738  0.5789
 1454TIP3    H225778   0.339   2.957  17.027  0.3764 -0.5769 -1.4173
 1455TIP3   OH225779   1.397   4.351   5.447  0.4126  0.4578  0.1615
 1455TIP3    H125780   1.452   4.390   5.515  0.4080  0.2689  0.2716
 1455TIP3    H225781   1.314   4.334   5.490  1.1955 -2.0936  0.8540
 1456TIP3   OH225782   1.146   5.799   4.076 -0.3747  0.0865 -0.3755
 1456TIP3    H125783   1.085   5.818   4.005 -0.2625  3.5931  0.3235
 1456TIP3    H225784   1.209   5.871   4.074  1.4872 -1.3799  1.3579
 1457TIP3   OH225785   3.471   0.571  15.617  0.1957 -0.1523  0.4811
 1457TIP3    H125786   3.494   0.662  15.637  0.1255 -0.0735  0.2140
 1457TIP3    H225787   3.402   0.549  15.679  0.6942 -0.2521  1.0113
 1458TIP3   OH225788   6.068   5.289  16.753  0.0296  0.0572 -0.3981
 1458TIP3    H125789   5.989   5.239  16.773  0.4509 -0.2939  0.4480
 1458TIP3    H225790   6.119   5.287  16.834  1.7059 -1.1975 -1.4062
 1459TIP3   OH225791   4.402   4.737   3.339 -0.1125  0.5668 -0.0616
 1459TIP3    H125792   4.384   4.827   3.311  1.0652  0.6731 -0.5367
 1459TIP3    H225793   4.331   4.685   3.300 -0.2931  1.1653 -0.5477
 1460TIP3   OH225794   1.893   4.251  10.661  0.1889  0.0109  0.0520
 1460TIP3    H125795   1.965   4.206  10.615 -0.1297  0.1325 -0.5740
 1460TIP3    H225796   1.814   4.223  10.614 -0.2036 -0.3088  0.8840
 1461TIP3   OH225797   2.107   3.158  12.454  0.7733  0.7280  0.6294
 1461TIP3    H125798   2.035   3.098  12.436  1.5639 -0.0712  0.0242
 1461TIP3    H225799   2.112   3.162  12.550 -2.3146  3.5874  0.8313
 1462TIP3   OH225800   3.042   3.975  14.832  0.0280 -0.1208 -0.4206
 1462TIP3    H125801   3.126   4.004  14.867  0.3486  0.4277 -1.5819
 1462TIP3    H225802   3.060   3.888  14.796  0.1892  0.1210 -0.9397
 1463TIP3   OH225803   5.800   3.875   0.344  0.2858  0.2028 -0.3916
 1463TIP3    H125804   5.760   3.871   0.431  1.4588  1.3039  0.2255
 1463TIP3    H225805   5.728   3.854   0.284 -0.2015 -2.1586  0.8918
 1464TIP3   OH225806   6.394   0.177  10.433  0.0242  0.5374  0.5559
 1464TIP3    H125807   6.417   0.095  10.476 -0.0297  0.5685  0.6454
 1464TIP3    H225808   6.402   0.159  10.340  1.8698  0.9682  0.6070
 1465TIP3   OH225809   4.207   0.713   3.907  0.0948  0.0805  0.1966
 1465TIP3    H125810   4.153   0.697   3.829  0.3172  0.8185 -0.1141
 1465TIP3    H225811   4.145   0.747   3.971  0.3241  1.8247 -0.4607
 1466TIP3   OH225812   2.201   5.898  14.549  0.0199 -0.4917  0.1845
 1466TIP3    H125813   2.184   5.840  14.623 -2.3766  0.9961  0.9304
 1466TIP3    H225814   2.290   5.930  14.564 -0.3224 -0.3812  2.3308
 1467TIP3   OH225815   4.162   6.007  15.842  0.2302 -0.4367 -0.1985
 1467TIP3    H125816   4.134   6.078  15.900  0.2027  0.1899 -0.9589
 1467TIP3    H225817   4.242   5.973  15.883 -0.0542 -0.3350  0.4596
 1468TIP3   OH225818   0.830   3.785  11.459  0.2219 -0.9489  0.1747
 1468TIP3    H125819   0.800   3.783  11.368 -1.0861  2.7112  0.3839
 1468TIP3    H225820   0.753   3.759  11.510  0.5960 -1.8109  0.3136
 1469TIP3   OH225821   2.415   3.121   1.620  0.6348  0.1193  0.1755
 1469TIP3    H125822   2.475   3.169   1.678  0.8994 -1.4860  1.2859
 1469TIP3    H225823   2.468   3.102   1.543  0.5220  1.5701 -0.3020
 1470TIP3   OH225824   1.718   6.743   2.714 -0.0424 -0.3518  0.3056
 1470TIP3    H125825   1.789   6.680   2.720  1.5502  1.2258 -0.9120
 1470TIP3    H225826   1.728   6.783   2.627 -0.4026  2.1872  1.3513
 1471TIP3   OH225827   3.615   1.674  13.260  0.0833 -0.3070 -0.1790
 1471TIP3    H125828   3.586   1.678  13.169  1.4959  0.4520 -0.6266
 1471TIP3    H225829   3.678   1.746  13.268  0.2752 -0.6107  1.2893
 1472TIP3   OH225830   1.983   6.702  11.401  0.0196 -0.3474 -0.0775
 1472TIP3    H125831   2.020   6.627  11.448  0.0615 -0.0835  0.3094
 1472TIP3    H225832   1.914   6.664  11.346  1.3076 -0.9618 -1.3590
 1473TIP3   OH225833   0.450   1.035  14.510 -0.3700  0.3415 -0.1244
 1473TIP3    H125834   0.444   0.995  14.423  1.4044  0.4186 -0.3282
 1473TIP3    H225835   0.490   0.968  14.565  1.1941  1.2393 -0.0973
 1474TIP3   OH225836   4.847   6.377   3.780  0.2481 -0.8285  0.0791
 1474TIP3    H125837   4.844   6.464   3.818 -1.3976  0.0647 -1.8818
 1474TIP3    H225838   4.941   6.360   3.765  0.5584  0.9515 -0.2067
 1475TIP3   OH225839   0.529   3.125   4.299  0.0602 -0.5073 -0.3458
 1475TIP3    H125840   0.465   3.178   4.346 -0.9519  0.0508 -2.2470
 1475TIP3    H225841   0.479   3.048   4.269  0.6698 -0.8429 -0.5168
 1476TIP3   OH225842   1.638   4.805   4.198 -0.4674  0.0584  0.0531
 1476TIP3    H125843   1.688   4.782   4.119 -0.7340 -0.5171  0.0502
 1476TIP3    H225844   1.628   4.900   4.192  0.6073  0.1831  0.0483
 1477TIP3   OH225845   3.543   4.670  14.643  0.3988  0.6179 -0.7133
 1477TIP3    H125846   3.626   4.669  14.692  0.7955  1.8700 -1.3196
 1477TIP3    H225847   3.476   4.689  14.710  0.6442  0.0220 -0.2898
 1478TIP3   OH225848   4.528   1.702   1.182 -0.5186  0.1236  0.0608
 1478TIP3    H125849   4.596   1.685   1.247 -1.7974 -0.6823  1.2481
 1478TIP3    H225850   4.466   1.760   1.226 -1.3530 -0.3556 -0.4447
 1479TIP3   OH225851   4.081   3.399   1.957 -0.8865  0.2403  0.5237
 1479TIP3    H125852   4.163   3.371   1.918 -0.0931  1.2148  1.4340
 1479TIP3    H225853   4.015   3.385   1.889  0.1787  0.3310 -0.5415
 1480TIP3   OH225854   1.333   0.944  13.292  0.3600 -0.0164  0.1270
 1480TIP3    H125855   1.356   0.965  13.202 -1.1665 -1.3452 -0.6242
 1480TIP3    H225856   1.409   0.898  13.327  1.1597  0.9534 -0.3034
 1481TIP3   OH225857   0.084   2.045  14.686  0.2971  0.1644  0.3026
 1481TIP3    H125858  -0.006   2.016  14.699  0.5977 -1.1241 -0.2994
 1481TIP3    H225859   0.137   1.977  14.727  1.0139  0.5145 -0.0229
 1482TIP3   OH225860   1.696   5.243   3.655  0.0706 -0.3663 -0.7990
 1482TIP3    H125861   1.630   5.262   3.721 -0.2997  2.4884 -1.8200
 1482TIP3    H225862   1.779   5.243   3.703 -0.4727 -3.2976  0.3738
 1483TIP3   OH225863   5.644   4.685   3.930 -0.4827  0.0868  0.5969
 1483TIP3    H125864   5.652   4.673   3.836 -0.0565  0.1805  0.6202
 1483TIP3    H225865   5.733   4.703   3.960 -0.2468 -1.9103  1.2875
 1484TIP3   OH225866   4.978   3.088  13.333  0.4007  0.4367  0.2415
 1484TIP3    H125867   5.041   3.016  13.331 -0.1302 -0.0602  0.7128
 1484TIP3    H225868   4.981   3.120  13.423 -1.3585 -0.8558  0.8333
 1485TIP3   OH225869   3.772   2.915  13.153 -0.1384  0.0175  0.8488
 1485TIP3    H125870   3.700   2.939  13.211  1.2902  1.6938  2.0179
 1485TIP3    H225871   3.789   2.993  13.101  0.8783 -0.3293  0.6405
 1486TIP3   OH225872   6.685   1.693   2.038  0.3838 -0.0491 -0.2583
 1486TIP3    H125873   6.677   1.781   2.075 -2.6881 -0.4826  0.3743
 1486TIP3    H225874   6.654   1.635   2.108  0.9869 -1.5348 -1.1680
 1487TIP3   OH225875   2.209   2.463   0.896 -0.3469  0.1825  0.0134
 1487TIP3    H125876   2.243   2.480   0.808 -2.1125  0.1540 -0.7240
 1487TIP3    H225877   2.144   2.394   0.883 -0.1774 -0.2859  1.4664
 1488TIP3   OH225878   5.553   2.003  14.276  0.4431  0.0385 -0.3517
 1488TIP3    H125879   5.502   2.014  14.357 -1.5093  1.3777 -1.6674
 1488TIP3    H225880   5.489   1.974  14.211  2.1523 -1.9744 -1.2547
 1489TIP3   OH225881   1.104   5.345  17.070  0.1614  0.1332  0.7124
 1489TIP3    H125882   1.032   5.387  17.118  0.9127  2.4862 -0.0428
 1489TIP3    H225883   1.066   5.322  16.986  0.5773  2.9287 -0.3458
 1490TIP3   OH225884   1.429   1.809  14.162 -0.2611  0.3114  0.1206
 1490TIP3    H125885   1.450   1.721  14.194  0.0293  0.4439  0.3013
 1490TIP3    H225886   1.429   1.800  14.066  0.2563  0.2261  0.1270
 1491TIP3   OH225887   6.245   4.417   3.492 -0.2268  0.0203 -0.0112
 1491TIP3    H125888   6.329   4.430   3.447 -0.7806  3.6042 -0.3322
 1491TIP3    H225889   6.258   4.338   3.544  2.1076 -1.5597 -2.6762
 1492TIP3   OH225890   2.399   1.812   4.006 -0.3276  0.2925  0.1088
 1492TIP3    H125891   2.427   1.749   4.072 -1.2976 -0.6452 -0.3385
 1492TIP3    H225892   2.311   1.782   3.980 -0.3303  1.1482 -0.9529
 1493TIP3   OH225893   1.958   6.048  10.834 -0.2825  0.3261 -0.3534
 1493TIP3    H125894   1.984   6.132  10.797 -0.8150  0.6236 -0.0766
 1493TIP3    H225895   1.922   5.999  10.760 -1.6928  1.0590 -0.1879
 1494TIP3   OH225896   4.548   6.182   5.331 -0.3635  0.2159  0.1779
 1494TIP3    H125897   4.466   6.225   5.307 -0.1227  0.9796  0.6910
 1494TIP3    H225898   4.557   6.198   5.425  0.4424  0.2545  0.0984
 1495TIP3   OH225899   1.776   4.502   5.412 -0.4142 -0.3325  0.4166
 1495TIP3    H125900   1.796   4.431   5.352 -0.8256 -1.5713  1.6738
 1495TIP3    H225901   1.846   4.499   5.478 -0.7404  0.0507  0.7909
 1496TIP3   OH225902   1.497   4.909   1.700  0.2075  0.0727 -0.0650
 1496TIP3    H125903   1.550   4.971   1.649  0.9546 -0.3992  0.1202
 1496TIP3    H225904   1.434   4.875   1.637 -0.2169  1.0180 -0.1665
 1497TIP3   OH225905   5.847   1.707   1.431 -0.1654 -0.2434  0.2645
 1497TIP3    H125906   5.787   1.662   1.372 -1.3423  1.6921 -0.1335
 1497TIP3    H225907   5.822   1.676   1.518 -0.8204 -0.4899 -0.0050
 1498TIP3   OH225908   5.514   2.316  17.069  0.0700  0.8654  0.0899
 1498TIP3    H125909   5.440   2.301  17.128  0.3823  0.7766  0.4670
 1498TIP3    H225910   5.481   2.296  16.982 -0.0294 -0.2617  0.3806
 1499TIP3   OH225911   2.862   5.424   2.147 -0.0295 -0.0798  0.7332
 1499TIP3    H125912   2.944   5.377   2.163  0.6560  0.0584 -1.9182
 1499TIP3    H225913   2.797   5.354   2.136  0.4750 -0.3691 -0.6331
 1500TIP3   OH225914   6.587   1.516  11.782 -0.5218 -0.0629  0.3152
 1500TIP3    H125915   6.504   1.534  11.827 -1.1715 -0.2563 -0.7572
 1500TIP3    H225916   6.564   1.453  11.713  0.3653  0.4496 -0.4784
 1501TIP3   OH225917   3.893   4.527  15.621  0.0015 -0.0178 -0.3529
 1501TIP3    H125918   3.848   4.551  15.703  1.2622 -1.4100  0.7993
 1501TIP3    H225919   3.985   4.542  15.639  0.2611  0.0663 -1.6900
 1502TIP3   OH225920   2.039   0.117   2.485  0.0348 -0.3758  0.6691
 1502TIP3    H125921   2.036   0.163   2.402  1.5628 -1.5628 -0.0886
 1502TIP3    H225922   2.087   0.175   2.544 -1.6804  0.7893  0.9839
 1503TIP3   OH225923   3.914   3.838  11.674 -0.2766 -0.3037 -0.1984
 1503TIP3    H125924   3.839   3.877  11.629 -0.4600 -1.0291 -0.5171
 1503TIP3    H225925   3.986   3.845  11.611  0.3972  1.8977  0.6787
 1504TIP3   OH225926   0.407   0.924   3.594  0.1085  0.2174 -0.4809
 1504TIP3    H125927   0.416   1.002   3.650  1.2428  1.3775 -2.1763
 1504TIP3    H225928   0.460   0.944   3.517 -0.8626 -1.6047 -1.6885
 1505TIP3   OH225929   6.066   4.428  13.830  0.2762 -0.4145 -0.5931
 1505TIP3    H125930   6.147   4.469  13.859 -0.0019  0.5064 -1.0567
 1505TIP3    H225931   6.067   4.439  13.735  0.2201 -1.5653 -0.7376
 1506TIP3   OH225932   3.039   0.882  11.058  0.0442  0.2210 -0.2180
 1506TIP3    H125933   3.028   0.918  11.146 -0.2898 -0.5989  0.0854
 1506TIP3    H225934   2.987   0.802  11.058  1.0206 -0.4363 -0.7663
 1507TIP3   OH225935   2.684   1.783   0.892 -1.0731 -0.9060  0.1463
 1507TIP3    H125936   2.640   1.839   0.956  0.9827 -0.1660  1.0206
 1507TIP3    H225937   2.777   1.800   0.906 -0.3984  1.4441 -4.8459
 1508TIP3   OH225938   1.674   6.044  10.934 -0.2702  0.1171  0.2720
 1508TIP3    H125939   1.607   6.102  10.897 -0.5964  1.1134  2.2873
 1508TIP3    H225940   1.753   6.098  10.939 -0.0034 -0.2663  0.2449
 1509TIP3   OH225941   1.264   5.053   5.046 -0.1064 -0.1550  0.2456
 1509TIP3    H125942   1.299   4.997   4.976 -0.2509  0.6166 -0.4490
 1509TIP3    H225943   1.210   5.117   5.001 -0.5350  0.1004  1.1097
 1510TIP3   OH225944   5.274   4.650  11.050 -0.4135 -0.3149  0.1975
 1510TIP3    H125945   5.304   4.703  10.976  0.4257  0.7494  1.2608
 1510TIP3    H225946   5.346   4.654  11.113 -0.7617 -1.9055  0.7414
 1511TIP3   OH225947   0.426   4.785   0.489 -0.4524  0.0995  0.3986
 1511TIP3    H125948   0.474   4.763   0.568 -0.0426  0.7292  0.3318
 1511TIP3    H225949   0.418   4.701   0.442  0.1500 -0.1037  0.6424
 1512TIP3   OH225950   6.096   2.292   0.711  0.3675 -0.3146  0.1038
 1512TIP3    H125951   6.175   2.346   0.714 -0.1290  0.4463 -0.3560
 1512TIP3    H225952   6.128   2.202   0.725  1.3937 -0.0895 -0.7066
 1513TIP3   OH225953   3.006   6.563   4.175  0.4450 -0.2482 -0.4969
 1513TIP3    H125954   2.932   6.587   4.231 -0.0623 -1.1782 -0.7485
 1513TIP3    H225955   3.083   6.596   4.222 -0.1514  1.0901 -0.4347
 1514TIP3   OH225956   4.163   4.780   6.077  0.3509 -0.8987 -0.6771
 1514TIP3    H125957   4.101   4.761   6.007  0.5826  0.8010 -1.3896
 1514TIP3    H225958   4.242   4.732   6.053 -0.5002 -2.7611  0.0309
 1515TIP3   OH225959   6.701   3.064  14.133  0.1296 -0.0373  0.0004
 1515TIP3    H125960   6.684   3.017  14.214 -0.8503  0.3620  0.0436
 1515TIP3    H225961   6.794   3.088  14.138  0.2999 -0.7928  0.5827
 1516TIP3   OH225962   1.947   4.341  13.446 -0.5552  0.0044 -0.1521
 1516TIP3    H125963   1.945   4.436  13.439 -2.6333 -0.0416 -0.8298
 1516TIP3    H225964   1.946   4.324  13.540  1.6857  0.6045  0.0413
 1517TIP3   OH225965   0.739   3.132   6.556 -0.2082  0.0835 -0.3473
 1517TIP3    H125966   0.805   3.161   6.494  0.2348  0.6027  0.3531
 1517TIP3    H225967   0.675   3.084   6.503  0.4336  0.0648 -1.1137
 1518TIP3   OH225968   6.407   0.086  16.623 -0.9680 -0.1412  0.3227
 1518TIP3    H125969   6.386   0.002  16.662  2.9729 -1.5997 -0.3043
 1518TIP3    H225970   6.490   0.111  16.662 -0.1287  1.5598 -2.2828
 1519TIP3   OH225971   0.431   4.228   5.937  0.6414  0.0679 -0.2153
 1519TIP3    H125972   0.381   4.305   5.964 -0.6210 -0.4223 -1.0710
 1519TIP3    H225973   0.478   4.201   6.016 -2.3251 -0.8712  1.4051
 1520TIP3   OH225974   1.259   3.301   5.436 -0.2572  0.0599 -0.1011
 1520TIP3    H125975   1.190   3.358   5.471  0.3486  0.1147  1.0726
 1520TIP3    H225976   1.305   3.354   5.372 -0.1402  0.6640  0.4749
 1521TIP3   OH225977   4.463   4.089   5.005  0.3654 -0.2945 -0.0113
 1521TIP3    H125978   4.476   3.995   4.991  0.1112 -0.6570  1.9217
 1521TIP3    H225979   4.369   4.098   5.019  0.2294  0.4326 -1.2888
 1522TIP3   OH225980   3.506   5.694  14.002  0.0661  0.0392  0.0585
 1522TIP3    H125981   3.552   5.764  13.955  0.7739 -0.9460 -0.7739
 1522TIP3    H225982   3.571   5.624  14.010 -0.2441 -0.0819  1.9569
 1523TIP3   OH225983   1.422   4.962   3.291  0.5487 -0.2581  0.5037
 1523TIP3    H125984   1.446   5.038   3.344 -1.0722  1.9545 -1.6931
 1523TIP3    H225985   1.491   4.956   3.225  0.5928 -0.6522  0.5788
 1524TIP3   OH225986   0.091   4.890   4.951  0.5646 -0.3939 -0.3211
 1524TIP3    H125987   0.021   4.895   4.886  1.9267  1.0429 -1.7646
 1524TIP3    H225988   0.148   4.820   4.919  0.5245 -0.6324  0.1131
 1525TIP3   OH225989   0.837   5.308   1.733  0.0528  0.5579 -0.5256
 1525TIP3    H125990   0.901   5.349   1.791 -0.5014 -0.8616  1.1563
 1525TIP3    H225991   0.886   5.291   1.652  1.3374  0.9914  0.1341
 1526TIP3   OH225992   4.552   1.204   1.181  0.4434 -0.0790  0.6996
 1526TIP3    H125993   4.553   1.250   1.097  0.7277  1.4047  1.4788
 1526TIP3    H225994   4.557   1.274   1.247 -1.5012 -1.0670  2.0146
 1527TIP3   OH225995   0.583   6.764  13.979  0.3114  0.0364 -0.4950
 1527TIP3    H125996   0.585   6.740  14.072  1.2355 -0.8898 -0.7291
 1527TIP3    H225997   0.675   6.759  13.951 -0.0638 -0.7592 -1.6986
 1528TIP3   OH225998   5.431   1.680  15.521  0.2070  0.5694  0.3186
 1528TIP3    H125999   5.453   1.768  15.490 -1.6369  1.9747  2.6202
 1528TIP3    H226000   5.362   1.650  15.462  1.0125  0.5193 -0.6279
 1529TIP3   OH226001   4.989   4.047   3.083  0.0561 -0.1062  0.3032
 1529TIP3    H126002   4.913   4.064   3.139 -0.6235  0.3549 -0.7241
 1529TIP3    H226003   4.976   3.958   3.051  0.7906 -0.6140  1.3900
 1530TIP3   OH226004   3.715   0.663  15.166  0.3430 -0.2351  0.0648
 1530TIP3    H126005   3.625   0.661  15.199 -0.2341 -1.7206 -1.4322
 1530TIP3    H226006   3.762   0.599  15.220  0.3603  0.1202  0.4725
 1531TIP3   OH226007   4.363   0.736  12.852 -0.2350  0.0403 -0.5047
 1531TIP3    H126008   4.448   0.772  12.877 -0.7849  0.2146  1.2195
 1531TIP3    H226009   4.308   0.747  12.929 -1.4874 -1.1701 -1.1719
 1532TIP3   OH226010   6.104   1.039  12.461  0.1228  0.4454 -0.2019
 1532TIP3    H126011   6.015   1.047  12.496 -0.4226  2.8306 -1.9156
 1532TIP3    H226012   6.101   0.960  12.407 -1.2335  1.0023 -0.9784
 1533TIP3   OH226013   6.132   5.199  16.270 -0.2853 -0.5608 -0.0260
 1533TIP3    H126014   6.164   5.136  16.206  1.8990  2.1770 -1.8685
 1533TIP3    H226015   6.158   5.163  16.355 -0.8961 -2.9899 -0.7779
 1534TIP3   OH226016   3.982   6.032   4.128 -0.2175 -0.2302  0.2700
 1534TIP3    H126017   4.042   6.006   4.057 -0.7486 -2.5621  0.5996
 1534TIP3    H226018   3.899   6.047   4.084  0.0469  0.7732  0.1001
 1535TIP3   OH226019   0.334   1.836  14.338 -0.7742  0.4627  0.0540
 1535TIP3    H126020   0.389   1.799  14.269 -0.4783  1.1435 -0.0894
 1535TIP3    H226021   0.272   1.893  14.292  0.5145  2.2653  0.4306
 1536TIP3   OH226022   4.765   4.121  10.947 -0.1363  0.5795  0.0233
 1536TIP3    H126023   4.832   4.179  10.981 -1.1699  1.3960  0.7166
 1536TIP3    H226024   4.771   4.043  11.002  0.1474  0.7037  0.1695
 1537TIP3   OH226025   0.522   3.760  17.078 -0.0016  0.1295  0.4064
 1537TIP3    H126026   0.558   3.726  16.996  1.5074  0.6254  0.8402
 1537TIP3    H226027   0.505   3.853  17.060  1.8081  0.6294  1.0859
 1538TIP3   OH226028   2.991   4.057   3.769  0.2512 -0.3870  0.2233
 1538TIP3    H126029   2.896   4.062   3.769  0.2799  0.7822  1.8418
 1538TIP3    H226030   3.020   4.148   3.774  1.4408 -0.7675  0.6481
 1539TIP3   OH226031   0.639   2.844   5.623  0.6258 -0.2722 -0.3035
 1539TIP3    H126032   0.652   2.834   5.529  3.2628 -0.7215  0.0365
 1539TIP3    H226033   0.725   2.828   5.661 -0.1763  0.7585  2.1387
 1540TIP3   OH226034   5.146   4.365  16.422  0.1419  0.6435  0.2412
 1540TIP3    H126035   5.221   4.419  16.398 -0.5001  1.8559  0.8724
 1540TIP3    H226036   5.074   4.397  16.367 -0.2657  0.4603  0.6599
 1541TIP3   OH226037   5.291   4.355   3.792  1.0848  0.6888  0.4813
 1541TIP3    H126038   5.218   4.332   3.849  0.6802  0.9844  0.0875
 1541TIP3    H226039   5.301   4.450   3.802  0.8779  0.7761 -0.0847
 1542TIP3   OH226040   4.049   4.757   2.372  0.1337  0.0009 -0.3057
 1542TIP3    H126041   4.068   4.681   2.317 -1.5356 -1.4021  0.9432
 1542TIP3    H226042   4.048   4.722   2.461  1.2182  1.9027  0.5217
 1543TIP3   OH226043   0.658   3.366  16.566 -0.3346 -0.0950  0.4712
 1543TIP3    H126044   0.593   3.297  16.552 -1.1360  0.9025 -1.0031
 1543TIP3    H226045   0.620   3.422  16.634 -1.0935  0.5337 -0.4471
 1544TIP3   OH226046   0.272   2.306  12.683 -0.3311  0.3584 -0.2526
 1544TIP3    H126047   0.360   2.343  12.693 -0.8255  1.6023 -0.2998
 1544TIP3    H226048   0.287   2.213  12.667  0.9769  0.5424 -0.2399
 1545TIP3   OH226049   3.605   5.279   4.494  0.4623  0.0395 -0.6771
 1545TIP3    H126050   3.570   5.353   4.444  1.7275  0.8539 -0.3703
 1545TIP3    H226051   3.575   5.202   4.445  0.0381  0.7709 -1.6039
 1546TIP3   OH226052   0.977   4.163   4.454  0.3335 -0.1584 -0.3396
 1546TIP3    H126053   1.000   4.250   4.421  1.2365 -0.7574 -1.3288
 1546TIP3    H226054   0.939   4.180   4.540  0.3921  1.2212 -0.5581
 1547TIP3   OH226055   4.689   4.282  12.203  0.1102  0.9247  0.0956
 1547TIP3    H126056   4.679   4.315  12.292 -1.6103  1.8462 -0.4061
 1547TIP3    H226057   4.641   4.199  12.203  1.2351  0.2516  0.3498
 1548TIP3   OH226058   5.237   6.475  11.955  0.3873  0.5997  0.0233
 1548TIP3    H126059   5.154   6.484  12.002  0.4745  0.6244  0.1731
 1548TIP3    H226060   5.299   6.528  12.005  0.8568 -0.6275  0.8027
 1549TIP3   OH226061   6.357   1.928   3.835 -0.5840  0.5622  0.4693
 1549TIP3    H126062   6.320   1.953   3.919  0.6900  0.7595  0.9891
 1549TIP3    H226063   6.362   2.010   3.785 -2.1844  0.3152 -0.1856
 1550TIP3   OH226064   4.151   2.963  11.065 -0.3900  0.1693  0.2493
 1550TIP3    H126065   4.139   2.912  10.985 -1.3962  1.6258 -0.5786
 1550TIP3    H226066   4.191   3.045  11.036 -0.3091  0.5217  1.3125
 1551TIP3   OH226067   6.117   6.607   4.910  0.0899  0.2592  0.3097
 1551TIP3    H126068   6.138   6.700   4.920  0.2530  0.0793  1.9519
 1551TIP3    H226069   6.035   6.595   4.959  1.7258 -1.0167  3.0270
 1552TIP3   OH226070   2.716   2.882   0.170  0.1802 -0.1489 -0.0727
 1552TIP3    H126071   2.629   2.886   0.130 -0.2506 -0.1675  0.8476
 1552TIP3    H226072   2.710   2.936   0.248  1.2043  0.4131 -0.3594
 1553TIP3   OH226073   6.423   5.014  17.148 -0.1647 -0.3309 -0.5806
 1553TIP3    H126074   6.474   5.037  17.226 -0.3566 -0.5995 -0.3730
 1553TIP3    H226075   6.333   5.034  17.172 -0.0322  1.4500 -1.4339
 1554TIP3   OH226076   3.863   3.562  15.963 -0.4269 -0.1879  0.2474
 1554TIP3    H126077   3.905   3.496  16.018 -2.7472 -1.3512  0.7525
 1554TIP3    H226078   3.838   3.515  15.883  1.0146  0.9817 -0.9577
 1555TIP3   OH226079   3.873   0.254  16.616  0.2252  0.3119  0.4569
 1555TIP3    H126080   3.841   0.340  16.644 -1.2874 -0.9008  2.8305
 1555TIP3    H226081   3.962   0.270  16.585 -0.7582  3.0298 -1.2645
 1556TIP3   OH226082   2.451   6.744  12.064 -0.2965 -0.2509 -0.0133
 1556TIP3    H126083   2.510   6.689  12.116 -0.3947 -1.3701 -1.0542
 1556TIP3    H226084   2.486   6.740  11.976  0.4215  2.4065  0.0940
 1557TIP3   OH226085   2.487   4.381   4.821  0.1007 -0.0712  0.1241
 1557TIP3    H126086   2.572   4.339   4.814  0.0562 -0.0750 -0.4436
 1557TIP3    H226087   2.429   4.330   4.764  0.2463  1.2263 -1.2491
 1558TIP3   OH226088   2.845   1.520  11.927 -0.3398 -0.3244 -0.4504
 1558TIP3    H126089   2.749   1.517  11.925 -0.3932  0.9852 -0.9334
 1558TIP3    H226090   2.870   1.525  11.835  0.0774  1.3700 -0.2704
 1559TIP3   OH226091   4.537   3.787   5.279 -0.5319  0.0081  0.9165
 1559TIP3    H126092   4.584   3.723   5.226  0.1711  0.4652  0.9790
 1559TIP3    H226093   4.452   3.746   5.296 -0.0546 -0.9399  1.0427
 1560TIP3   OH226094   6.430   1.993   0.525  0.7944  0.0981  0.2338
 1560TIP3    H126095   6.390   1.922   0.474  0.0452  0.2846  0.5532
 1560TIP3    H226096   6.438   2.065   0.462  0.4091  0.1358  0.2254
 1561TIP3   OH226097   0.685   1.079   3.791 -0.0559 -0.0540  0.2081
 1561TIP3    H126098   0.673   0.987   3.770 -0.5815  0.0336  0.0936
 1561TIP3    H226099   0.601   1.105   3.830  0.6594 -0.0505  1.8060
 1562TIP3   OH226100   2.948   0.692  12.446 -0.6391  0.2625  0.1468
 1562TIP3    H126101   2.939   0.603  12.412  2.0218  0.9101 -2.8001
 1562TIP3    H226102   3.042   0.701  12.461 -0.9251  2.4297  0.9007
 1563TIP3   OH226103   3.568   4.810   1.880 -0.4630 -0.4353 -0.4247
 1563TIP3    H126104   3.662   4.791   1.870 -0.5555 -1.9614  1.1679
 1563TIP3    H226105   3.559   4.900   1.851  2.0700  0.7750  2.0311
 1564TIP3   OH226106   4.097   0.643   4.359  0.1280 -0.0274 -0.3728
 1564TIP3    H126107   4.152   0.620   4.433 -0.3317  0.1962  0.0484
 1564TIP3    H226108   4.010   0.609   4.381  0.2764 -1.1839 -1.4377
 1565TIP3   OH226109   5.227   5.056   1.502 -0.4902 -0.0793  0.2786
 1565TIP3    H126110   5.173   5.023   1.430 -0.1518 -0.4772  0.2068
 1565TIP3    H226111   5.236   5.150   1.484 -3.5926  0.6673  1.8223
 1566TIP3   OH226112   0.838   1.416   2.214  0.4430  0.0346  0.2812
 1566TIP3    H126113   0.909   1.363   2.251 -0.0998  0.3344  1.8407
 1566TIP3    H226114   0.801   1.462   2.290 -0.3133  1.1917 -0.7624
 1567TIP3   OH226115   3.443   5.817  14.712  0.1314  0.0713 -0.0841
 1567TIP3    H126116   3.386   5.771  14.774  1.7974 -0.8212  0.8630
 1567TIP3    H226117   3.428   5.773  14.628 -1.1860  0.4289 -0.0634
 1568TIP3   OH226118   4.343   6.449   4.719  0.1680  0.2103 -0.5493
 1568TIP3    H126119   4.345   6.521   4.656  2.1243 -0.1471 -0.9692
 1568TIP3    H226120   4.322   6.372   4.666  0.4916  0.1146 -0.5429
 1569TIP3   OH226121   2.112   3.650  12.657 -0.0084  0.7051  0.2655
 1569TIP3    H126122   2.198   3.615  12.632 -0.4440  0.1059 -0.4364
 1569TIP3    H226123   2.076   3.585  12.717 -0.1932  0.7041  0.1517
 1570TIP3   OH226124   5.720   4.277  15.543  0.0809 -0.1032 -0.7211
 1570TIP3    H126125   5.706   4.295  15.636  0.8131  0.8258 -0.7679
 1570TIP3    H226126   5.689   4.356  15.498 -0.7187 -0.7352 -1.3138
 1571TIP3   OH226127   1.707   6.678  14.737  0.6500  0.1103 -0.1151
 1571TIP3    H126128   1.793   6.672  14.778  0.6229 -1.1012 -0.1879
 1571TIP3    H226129   1.662   6.598  14.764 -0.1875  0.3716 -0.6827
 1572TIP3   OH226130   3.480   2.819   4.693  0.5440 -0.4246 -0.2662
 1572TIP3    H126131   3.395   2.796   4.729  1.5350 -0.8279  2.0435
 1572TIP3    H226132   3.480   2.915   4.691 -0.5064 -0.4214 -1.8439
 1573TIP3   OH226133   1.730   2.948  16.784  0.2859  0.2079 -0.0790
 1573TIP3    H126134   1.791   2.990  16.845 -1.4635  0.8008  1.3849
 1573TIP3    H226135   1.715   3.013  16.716  0.2858  0.5871  0.2793
 1574TIP3   OH226136   4.042   3.351  12.127 -0.2246 -0.0937 -0.5432
 1574TIP3    H126137   4.078   3.269  12.161 -0.8403 -0.1306  0.0522
 1574TIP3    H226138   4.061   3.416  12.195 -2.3841 -0.3788  0.4270
 1575TIP3   OH226139   6.427   1.985  14.245  0.0163  0.0980  0.1953
 1575TIP3    H126140   6.452   1.992  14.337  2.5119  4.3583 -0.4766
 1575TIP3    H226141   6.510   1.997  14.197 -1.5900  1.4297 -2.5065
 1576TIP3   OH226142   3.606   3.616   1.082  0.2597 -0.0099  0.1550
 1576TIP3    H126143   3.602   3.697   1.032  0.2286 -0.2483 -0.2298
 1576TIP3    H226144   3.546   3.630   1.156  2.5020  1.4858  1.8337
 1577TIP3   OH226145   3.169   1.827  10.933 -0.0436  0.5408 -0.4008
 1577TIP3    H126146   3.249   1.782  10.904  1.5142  3.4105 -0.9566
 1577TIP3    H226147   3.176   1.830  11.028  0.6001  0.8514 -0.4484
 1578TIP3   OH226148   2.512   5.448  10.905  0.7067 -0.4484  0.0473
 1578TIP3    H126149   2.420   5.448  10.932 -0.0684  1.2164 -2.2812
 1578TIP3    H226150   2.558   5.408  10.979 -1.7644 -0.6168  1.6375
 1579TIP3   OH226151   3.409   6.288   0.582  1.0594 -0.1087  0.1707
 1579TIP3    H126152   3.398   6.380   0.607  0.4374 -0.2723  0.5184
 1579TIP3    H226153   3.442   6.292   0.492  3.7612  0.4981  1.0747
 1580TIP3   OH226154   1.150   0.531  15.028  0.3770  0.5001  0.1127
 1580TIP3    H126155   1.126   0.440  15.048 -0.1109  0.2930 -1.2968
 1580TIP3    H226156   1.102   0.582  15.093 -0.2705 -0.1912  0.1980
 1581TIP3   OH226157   6.562   4.558  15.752  0.5487  0.0510  0.1401
 1581TIP3    H126158   6.551   4.647  15.718  1.4315  0.2212  0.2636
 1581TIP3    H226159   6.629   4.566  15.820  0.4371 -0.6620  0.3478
 1582TIP3   OH226160   0.912   6.608   1.982 -0.0510 -0.0968  0.0524
 1582TIP3    H126161   0.881   6.574   2.066 -1.5751  1.5393  0.2000
 1582TIP3    H226162   0.891   6.701   1.984  3.0570  0.7330 -0.7487
 1583TIP3   OH226163   3.059   4.518  13.863  0.1846 -0.1998  0.2058
 1583TIP3    H126164   2.981   4.488  13.817  1.2668  1.4741 -3.0437
 1583TIP3    H226165   3.039   4.607  13.890  1.3852  0.8942 -2.1783
 1584TIP3   OH226166   5.008   3.158   3.211  0.0436 -0.3268 -0.0768
 1584TIP3    H126167   5.075   3.195   3.269 -0.9539 -0.6296  1.3278
 1584TIP3    H226168   4.942   3.227   3.205 -0.8105 -1.0382  0.8102
 1585TIP3   OH226169   4.798   1.647   6.145 -0.3298  0.7467 -0.1881
 1585TIP3    H126170   4.705   1.651   6.168 -1.1746 -0.0759 -3.0581
 1585TIP3    H226171   4.807   1.567   6.093  2.0801  0.6493  0.2408
 1586TIP3   OH226172   3.930   1.928   0.414 -0.1736  0.0465 -0.5014
 1586TIP3    H126173   3.918   2.021   0.395  2.7161  0.4542 -0.8758
 1586TIP3    H226174   3.889   1.882   0.341 -0.2632  1.1063 -1.1304
 1587TIP3   OH226175   4.481   6.188   4.784 -0.4998 -0.4318  0.2782
 1587TIP3    H126176   4.447   6.217   4.699  0.1304  1.7088  0.6973
 1587TIP3    H226177   4.484   6.093   4.778 -0.2546 -0.3151 -2.1835
 1588TIP3   OH226178   1.580   3.021   6.062 -0.5101 -0.1807 -0.9747
 1588TIP3    H126179   1.526   3.099   6.080 -0.1652  0.2623 -1.8189
 1588TIP3    H226180   1.620   3.001   6.147 -1.6852 -0.2894 -0.4172
 1589TIP3   OH226181   2.376   4.472   5.055 -0.0332 -0.1840  0.1151
 1589TIP3    H126182   2.297   4.521   5.033 -0.6129 -0.3406  1.6957
 1589TIP3    H226183   2.420   4.458   4.972 -1.5521  0.1053 -0.7644
 1590TIP3   OH226184   3.464   3.108   4.741 -0.0828  0.0526  0.0443
 1590TIP3    H126185   3.381   3.150   4.719  0.3600  0.6962 -0.4324
 1590TIP3    H226186   3.452   3.076   4.831 -0.0757  2.2091  0.8813
 1591TIP3   OH226187   5.630   4.128  10.414  0.4653 -0.8958 -0.3662
 1591TIP3    H126188   5.580   4.204  10.442 -0.4986 -0.6485 -2.5582
 1591TIP3    H226189   5.708   4.129  10.470  1.2768  2.6292 -1.2677
 1592TIP3   OH226190   6.406   3.815   1.546 -0.7220 -0.1257 -0.1174
 1592TIP3    H126191   6.475   3.753   1.524 -0.2841  0.0665  0.6586
 1592TIP3    H226192   6.448   3.901   1.541 -0.8447 -0.0215  0.5531
 1593TIP3   OH226193   6.226   2.384  11.102  0.1983  0.0391 -0.2653
 1593TIP3    H126194   6.132   2.373  11.118  0.2835 -0.5477 -0.1577
 1593TIP3    H226195   6.235   2.375  11.007 -0.1229  2.1610 -0.5349
 1594TIP3   OH226196   1.866   0.784   0.974  0.1373  0.0284 -0.1419
 1594TIP3    H126197   1.863   0.697   0.934 -0.2550  0.1155 -0.3090
 1594TIP3    H226198   1.958   0.810   0.969  0.7379 -1.3887  2.0908
 1595TIP3   OH226199   4.630   0.724   1.421 -0.1414  0.0637 -0.7541
 1595TIP3    H126200   4.628   0.635   1.386  0.2187 -0.0577 -0.4707
 1595TIP3    H226201   4.603   0.715   1.512 -2.2552  0.5348 -1.2741
 1596TIP3   OH226202   1.887   1.364   3.385  0.3671  0.2786  0.6644
 1596TIP3    H126203   1.895   1.420   3.308  2.8008 -0.1565  0.5368
 1596TIP3    H226204   1.877   1.276   3.348 -1.2054  0.3384  0.8785
 1597TIP3   OH226205   1.877   1.629   0.217 -0.4261  0.3761 -0.4582
 1597TIP3    H126206   1.844   1.607   0.130 -0.1500  0.5610 -0.6121
 1597TIP3    H226207   1.851   1.720   0.229  0.3140  0.6307 -0.7220
 1598TIP3   OH226208   0.436   1.788   4.921 -0.0063 -0.5355 -0.3387
 1598TIP3    H126209   0.519   1.742   4.937 -0.9443 -1.5553  2.2137
 1598TIP3    H226210   0.370   1.719   4.931 -1.3300  0.8971  1.2903
 1599TIP3   OH226211   4.670   6.428   4.547  0.3227 -0.4432 -0.4040
 1599TIP3    H126212   4.652   6.495   4.481 -1.5726 -1.2321 -0.7456
 1599TIP3    H226213   4.620   6.352   4.520 -0.2390 -0.9201  1.7360
 1600TIP3   OH226214   3.406   4.644   0.159 -0.4286  0.1165 -0.0176
 1600TIP3    H126215   3.453   4.617   0.080  0.1028  1.7373 -0.2950
 1600TIP3    H226216   3.316   4.660   0.129 -0.2316  0.7139 -0.2995
 1601TIP3   OH226217   3.305   0.581  15.863 -0.4589 -0.0922 -0.3821
 1601TIP3    H126218   3.297   0.675  15.849  1.2723  0.1859  0.1910
 1601TIP3    H226219   3.217   0.547  15.850 -1.4151  1.7845  0.7504
 1602TIP3   OH226220   0.396   5.907  13.195  0.0867  0.1304  0.0437
 1602TIP3    H126221   0.328   5.910  13.128 -0.2455 -0.5374  0.3403
 1602TIP3    H226222   0.352   5.933  13.275 -0.0185 -1.0188  0.3825
 1603TIP3   OH226223   3.640   5.308   3.088  0.0711 -0.0691  0.3771
 1603TIP3    H126224   3.732   5.282   3.082  0.0464  0.0929 -1.4853
 1603TIP3    H226225   3.593   5.227   3.107  0.6108 -0.0918  1.6847
 1604TIP3   OH226226   5.771   0.881  13.094  0.2042  0.0622  0.1142
 1604TIP3    H126227   5.705   0.817  13.118 -1.1310  1.2276 -0.3054
 1604TIP3    H226228   5.818   0.842  13.020 -2.0819  0.4533 -1.6370
 1605TIP3   OH226229   6.139   0.354  12.476  0.1195 -0.2802 -0.2421
 1605TIP3    H126230   6.154   0.321  12.565  0.1152 -1.2043 -0.5727
 1605TIP3    H226231   6.113   0.445  12.488 -0.4611 -0.5631  0.7466
 1606TIP3   OH226232   2.000   0.820  16.993 -0.5657  0.1768  0.1930
 1606TIP3    H126233   2.075   0.850  16.941  0.6552 -1.2777  1.0208
 1606TIP3    H226234   1.929   0.810  16.930  0.4296 -0.0285 -0.9302
 1607TIP3   OH226235   4.720   3.461  12.938  0.1629 -0.2856  0.2769
 1607TIP3    H126236   4.645   3.402  12.939 -1.6539  1.9099  0.3470
 1607TIP3    H226237   4.684   3.545  12.911  2.9975  0.4170 -1.7390
 1608TIP3   OH226238   3.876   4.442   3.628 -0.5978 -0.6011 -0.3380
 1608TIP3    H126239   3.818   4.515   3.651  0.0984 -0.4979  1.2815
 1608TIP3    H226240   3.862   4.427   3.535 -0.6500  1.7270 -0.7612
 1609TIP3   OH226241   5.217   6.361   2.856 -0.3573  0.0483 -0.4805
 1609TIP3    H126242   5.304   6.361   2.895  0.1797 -1.2160 -1.5818
 1609TIP3    H226243   5.178   6.444   2.882  1.6330  1.1903 -0.9884
 1610TIP3   OH226244   5.868   3.934  12.016 -0.9206 -0.6327  0.0072
 1610TIP3    H126245   5.934   4.003  12.010 -1.2914 -0.3442 -0.8855
 1610TIP3    H226246   5.871   3.905  12.107 -1.4142  1.2120  0.6458
 1611TIP3   OH226247   6.501   0.792   5.596  0.0628 -0.2166  0.3425
 1611TIP3    H126248   6.535   0.763   5.511 -1.6250 -0.1066 -0.4175
 1611TIP3    H226249   6.527   0.723   5.657 -0.4019 -1.3214 -0.6621
 1612TIP3   OH226250   6.098   2.068   4.325 -0.0659 -0.3338  0.7338
 1612TIP3    H126251   6.132   1.978   4.320 -0.2213 -0.3190 -1.1851
 1612TIP3    H226252   6.003   2.059   4.314 -0.0703  0.0647  0.4097
 1613TIP3   OH226253   5.882   6.676   5.068 -0.2095 -0.0464  1.1598
 1613TIP3    H126254   5.787   6.664   5.074 -0.4244  0.5400 -0.4632
 1613TIP3    H226255   5.910   6.699   5.157 -1.5702 -0.3004  1.6716
 1614TIP3   OH226256   0.695   1.427   2.507  0.1311 -0.0102  0.1428
 1614TIP3    H126257   0.616   1.394   2.463  0.2916 -0.8144  0.4347
 1614TIP3    H226258   0.702   1.373   2.586  0.8070  0.2570  0.2691
 1615TIP3   OH226259   4.124   6.760   5.799  0.0822  0.0037  0.3495
 1615TIP3    H126260   4.195   6.814   5.831 -0.4944 -0.4398  2.5442
 1615TIP3    H226261   4.094   6.803   5.719  0.3253  2.3368  1.4438
 1616TIP3   OH226262   4.485   3.973   3.699  0.3836  0.1112 -0.2374
 1616TIP3    H126263   4.562   4.011   3.741 -0.0449  1.1520 -0.3512
 1616TIP3    H226264   4.425   3.956   3.771 -0.4379  2.0983 -0.3780
 1617TIP3   OH226265   2.831   3.958  13.159  0.1255 -0.2668 -0.6872
 1617TIP3    H126266   2.861   3.895  13.093 -0.8125 -1.6224  0.1198
 1617TIP3    H226267   2.882   3.936  13.237  0.4192  0.5785 -0.6385
 1618TIP3   OH226268   4.920   1.457  16.518 -0.6190 -0.8394 -0.6127
 1618TIP3    H126269   4.881   1.435  16.434  0.4422 -2.0735 -0.8106
 1618TIP3    H226270   4.914   1.377  16.569  0.9705 -0.8507 -0.3965
 1619TIP3   OH226271   1.647   6.042   1.874 -0.0067  0.2625 -0.0661
 1619TIP3    H126272   1.626   6.087   1.792 -2.0170 -1.7882 -0.7976
 1619TIP3    H226273   1.592   6.086   1.940 -1.7468 -0.8504 -0.7185
 1620TIP3   OH226274   2.111   1.197  16.994  0.0889  0.2064  0.0220
 1620TIP3    H126275   2.090   1.166  17.082 -2.1547  1.0834 -0.1373
 1620TIP3    H226276   2.135   1.118  16.946 -0.3404 -0.5303  0.9925
 1621TIP3   OH226277   4.953   5.929   5.630 -0.3618  0.3579  0.3898
 1621TIP3    H126278   5.018   5.999   5.637 -0.8369  0.9981 -1.0783
 1621TIP3    H226279   4.995   5.862   5.577 -1.2064  1.2364 -1.4860
 1622TIP3   OH226280   5.152   3.339   6.304 -0.2347  0.3753  0.1471
 1622TIP3    H126281   5.126   3.430   6.318  2.9792  1.3116  0.8150
 1622TIP3    H226282   5.165   3.304   6.392 -2.2438 -1.1074 -0.0553
 1623TIP3   OH226283   1.992   2.441  12.393 -0.7996  0.2511  0.1715
 1623TIP3    H126284   2.044   2.483  12.462 -0.3966  1.4480 -0.8176
 1623TIP3    H226285   1.901   2.451  12.422 -0.6873  1.5544  0.1270
 1624TIP3   OH226286   3.879   6.025   3.544  0.0058 -0.3297 -0.0286
 1624TIP3    H126287   3.826   6.096   3.507 -0.9553 -0.8289  0.3319
 1624TIP3    H226288   3.965   6.064   3.559  0.0894  0.1907 -1.7037
 1625TIP3   OH226289   4.535   3.590   1.385 -0.6484 -0.2236  0.5644
 1625TIP3    H126290   4.495   3.510   1.421 -3.5970  0.6660 -0.4298
 1625TIP3    H226291   4.568   3.564   1.299 -1.0965 -0.5185  0.4771
 1626TIP3   OH226292   2.790   1.063   5.805 -0.3310 -0.4279 -0.1239
 1626TIP3    H126293   2.803   1.134   5.868  1.6799 -0.6014 -0.2781
 1626TIP3    H226294   2.792   0.984   5.859 -2.1372 -0.4259 -0.0067
 1627TIP3   OH226295   6.593   4.039   4.528 -0.1793  0.0774  0.3700
 1627TIP3    H126296   6.619   3.990   4.450  0.1446  0.3290  0.3189
 1627TIP3    H226297   6.501   4.016   4.541 -0.6059  0.9785 -0.8163
 1628TIP3   OH226298   3.266   1.576  15.649  0.0137  0.1369  0.0774
 1628TIP3    H126299   3.253   1.532  15.734  1.2797  2.4215  1.5548
 1628TIP3    H226300   3.350   1.543  15.618 -0.4623 -0.7203 -0.3601
 1629TIP3   OH226301   2.479   3.353  11.089 -0.1100  0.5236 -0.1661
 1629TIP3    H126302   2.564   3.338  11.131  0.3955  0.9234 -1.0279
 1629TIP3    H226303   2.499   3.365  10.997 -0.9972  1.6584 -0.2349
 1630TIP3   OH226304   6.037   2.792   2.235  0.0553  0.0495 -0.6790
 1630TIP3    H126305   6.043   2.819   2.144  3.2908  2.8071  0.1564
 1630TIP3    H226306   6.115   2.739   2.250 -0.2987 -0.1568  0.5293
 1631TIP3   OH226307   1.694   0.498  11.922  0.1481  0.5888 -0.0426
 1631TIP3    H126308   1.633   0.482  11.850  0.0479  1.2155 -0.1000
 1631TIP3    H226309   1.677   0.588  11.948 -0.3793  0.1300  1.2981
 1632TIP3   OH226310   6.590   1.273   1.264 -0.3943 -0.0189  0.3918
 1632TIP3    H126311   6.674   1.233   1.241  0.1847  0.7611  1.1010
 1632TIP3    H226312   6.524   1.210   1.233  0.3357  0.4984 -2.5137
 1633TIP3   OH226313   6.136   0.370  15.581  0.2025 -0.1682 -0.3068
 1633TIP3    H126314   6.113   0.398  15.670  1.8504 -1.1531  0.4606
 1633TIP3    H226315   6.051   0.357  15.538 -0.6276  1.9227  0.5645
 1634TIP3   OH226316   3.649   6.119  12.382  0.2304  0.0545 -0.2201
 1634TIP3    H126317   3.575   6.065  12.355  1.1855 -1.1107 -0.5973
 1634TIP3    H226318   3.627   6.207  12.352 -1.3491 -0.1014  0.3843
 1635TIP3   OH226319   2.932   4.867  14.632  0.1437  0.4498  0.2873
 1635TIP3    H126320   2.915   4.960  14.619 -0.3691  0.6524  2.1378
 1635TIP3    H226321   2.845   4.826  14.630 -0.1661  0.6508  3.6323
 1636TIP3   OH226322   3.107   2.158   5.952  0.4506  0.2196 -0.4938
 1636TIP3    H126323   3.153   2.185   5.873  0.7736 -0.0340 -0.3956
 1636TIP3    H226324   3.176   2.123   6.009 -0.0345 -1.5293 -0.9111
 1637TIP3   OH226325   4.978   4.785  14.726  0.0108  0.7123  0.2221
 1637TIP3    H126326   4.995   4.698  14.691 -1.9283 -0.0370  0.9827
 1637TIP3    H226327   5.010   4.845  14.659  1.3969 -0.5609 -0.3127
 1638TIP3   OH226328   3.427   1.078  14.701 -1.4150  0.0221  0.2903
 1638TIP3    H126329   3.334   1.058  14.694 -1.4911  0.7193 -0.9992
 1638TIP3    H226330   3.469   1.027  14.632 -1.1908  1.5940 -0.7907
 1639TIP3   OH226331   0.779   5.976  16.096  0.6102  0.4925  0.1484
 1639TIP3    H126332   0.765   5.882  16.101 -0.3152  0.6665  1.3792
 1639TIP3    H226333   0.812   5.991  16.007 -2.7091 -0.5889 -1.4486
 1640TIP3   OH226334   6.474   1.502  12.221 -0.7974 -0.3287 -0.2908
 1640TIP3    H126335   6.448   1.580  12.173 -1.2194  0.2974  0.9219
 1640TIP3    H226336   6.569   1.498  12.213 -0.8056  0.1457 -0.6031
 1641TIP3   OH226337   1.960   2.085   5.986 -0.0081  0.5737 -0.4470
 1641TIP3    H126338   1.977   2.179   5.979 -1.7133  1.1936  2.3144
 1641TIP3    H226339   1.951   2.069   6.079 -0.8255 -2.1809 -0.9057
 1642TIP3   OH226340   4.569   1.957  14.348 -0.2670  0.2554 -0.1935
 1642TIP3    H126341   4.627   2.032  14.333 -0.2463  0.5685  1.2620
 1642TIP3    H226342   4.501   1.966  14.282  1.6967 -0.5512 -2.4538
 1643TIP3   OH226343   0.013   0.449  13.926  0.5309 -0.3173  0.0680
 1643TIP3    H126344   0.102   0.459  13.961 -0.0487  1.4041  1.1367
 1643TIP3    H226345   0.023   0.460  13.832  1.3176  0.9262  0.2828
 1644TIP3   OH226346   4.088   1.686  11.595 -0.2666 -0.1100  0.4218
 1644TIP3    H126347   4.054   1.611  11.547 -2.5100  1.0867  0.0365
 1644TIP3    H226348   4.042   1.684  11.679 -0.3830  0.8445  0.3885
 1645TIP3   OH226349   2.837   1.456   1.230 -0.5921 -0.1155 -0.1411
 1645TIP3    H126350   2.770   1.496   1.286  0.9820  1.2560  0.8177
 1645TIP3    H226351   2.813   1.483   1.141 -0.7325  1.2227  0.2937
 1646TIP3   OH226352   4.588   4.018  12.193  0.2403  0.4240  0.6655
 1646TIP3    H126353   4.499   3.983  12.192 -0.8226  2.8172 -1.5191
 1646TIP3    H226354   4.613   4.020  12.285 -0.4612 -3.6223  1.1065
 1647TIP3   OH226355   4.211   2.718   4.124  0.1831  0.8298  0.0061
 1647TIP3    H126356   4.198   2.624   4.130 -1.9744  1.1243  0.7795
 1647TIP3    H226357   4.263   2.741   4.201 -1.3571  0.5514  1.1730
 1648TIP3   OH226358   5.408   4.529  12.988 -0.4420 -0.5323  0.1363
 1648TIP3    H126359   5.452   4.558  13.068  0.2388 -1.4360  0.1101
 1648TIP3    H226360   5.316   4.519  13.014 -0.5384  0.7858  0.3519
 1649TIP3   OH226361   4.724   4.249   5.414  0.0825 -0.3667 -0.2858
 1649TIP3    H126362   4.670   4.314   5.459 -0.1545 -0.3708 -0.5625
 1649TIP3    H226363   4.691   4.165   5.443  0.0861 -0.3672 -0.2825
 1650TIP3   OH226364   6.477   0.692  15.913  0.0206 -0.8437 -0.0477
 1650TIP3    H126365   6.485   0.647  15.997  1.3570 -0.5490 -0.0015
 1650TIP3    H226366   6.495   0.784  15.932  0.0109 -0.7219 -0.6080
 1651TIP3   OH226367   4.663   3.270  14.915  0.2122 -0.3504 -0.4570
 1651TIP3    H126368   4.710   3.353  14.924 -0.8443  0.4020 -1.6723
 1651TIP3    H226369   4.584   3.281  14.967  1.3005 -1.6420  1.6355
 1652TIP3   OH226370   6.229   0.613   2.925 -0.1038  0.4296 -0.1455
 1652TIP3    H126371   6.160   0.627   2.860 -0.1059 -2.1578 -0.7916
 1652TIP3    H226372   6.221   0.688   2.984 -1.9862  1.3619 -1.4789
 1653TIP3   OH226373   2.488   5.562  14.555  0.4276  0.6580  0.7779
 1653TIP3    H126374   2.571   5.518  14.535  0.4320  1.2342 -0.5971
 1653TIP3    H226375   2.504   5.653  14.532 -1.0852  0.4963 -1.1590
 1654TIP3   OH226376   0.877   1.308  15.777 -0.2239  0.1253  0.0483
 1654TIP3    H126377   0.823   1.352  15.843 -0.7084 -1.6510  0.8887
 1654TIP3    H226378   0.915   1.233  15.822  1.1332  0.0294 -1.1561
 1655TIP3   OH226379   1.598   1.965   5.449  0.5227 -0.0573 -0.3637
 1655TIP3    H126380   1.571   1.910   5.375  1.2765  1.9192 -2.2195
 1655TIP3    H226381   1.527   2.028   5.459  0.1468 -0.6686  1.0534
 1656TIP3   OH226382   1.508   5.393   0.621 -0.2257 -0.3549  0.6761
 1656TIP3    H126383   1.458   5.313   0.637 -1.8523  0.7525  1.3360
 1656TIP3    H226384   1.552   5.410   0.704  1.3455 -1.3304  0.0956
 1657TIP3   OH226385   0.211   6.588   6.008 -0.6795  0.8355 -0.2435
 1657TIP3    H126386   0.125   6.593   6.049 -0.7860  1.2219 -0.5077
 1657TIP3    H226387   0.271   6.565   6.079 -0.7961  1.9125  0.2157
 1658TIP3   OH226388   3.448   3.913  14.985  0.4269  0.0994 -0.6768
 1658TIP3    H126389   3.445   3.829  14.940  0.0328  0.0711 -0.6001
 1658TIP3    H226390   3.514   3.963  14.938  2.5739 -1.1373  0.8158
 1659TIP3   OH226391   3.739   3.691  13.603  0.1668 -0.1947  0.2048
 1659TIP3    H126392   3.831   3.710  13.582 -0.1143  0.9271 -0.0692
 1659TIP3    H226393   3.706   3.773  13.640 -0.4899 -0.8592  1.1544
 1660TIP3   OH226394   6.258   6.323   3.324  0.0778 -0.4027 -0.1284
 1660TIP3    H126395   6.211   6.357   3.401  0.2296  0.6390 -0.4707
 1660TIP3    H226396   6.222   6.236   3.310 -1.5185  0.2220 -0.1596
 1661TIP3   OH226397   0.637   4.624   3.479  0.1874 -0.0093 -0.5321
 1661TIP3    H126398   0.700   4.638   3.409  0.5744  1.6806  0.0962
 1661TIP3    H226399   0.553   4.650   3.441 -0.0069 -1.3793 -1.0824
 1662TIP3   OH226400   6.369   0.452  14.657  0.3579 -0.5488 -0.7839
 1662TIP3    H126401   6.300   0.434  14.594 -0.5282 -0.4095  0.1294
 1662TIP3    H226402   6.370   0.375  14.714 -1.3914  0.8944  1.2905
 1663TIP3   OH226403   1.478   0.322   1.092  0.0517  0.2977  0.6292
 1663TIP3    H126404   1.496   0.409   1.126  0.4416  0.1690  0.7562
 1663TIP3    H226405   1.394   0.331   1.047 -1.3372  0.1158  2.9989
 1664TIP3   OH226406   3.863   3.064  15.648  0.3352 -0.2069 -0.3375
 1664TIP3    H126407   3.852   3.094  15.558  0.8310 -0.9587 -0.6629
 1664TIP3    H226408   3.926   3.125  15.686  1.0040 -0.5607 -0.8583
 1665TIP3   OH226409   1.268   5.479  11.969  0.2454  0.0316  0.0094
 1665TIP3    H126410   1.342   5.453  11.914  0.8261  0.2727  0.6602
 1665TIP3    H226411   1.260   5.409  12.033  1.3266  1.0108  1.2934
 1666TIP3   OH226412   1.272   6.710   1.811 -0.6135 -0.1593  0.0182
 1666TIP3    H126413   1.245   6.752   1.893 -3.7662 -0.0633 -0.9457
 1666TIP3    H226414   1.240   6.767   1.742  1.5373 -0.5040 -1.3597
 1667TIP3   OH226415   5.257   0.888  13.877  0.4197 -0.1201  0.7825
 1667TIP3    H126416   5.311   0.836  13.818 -0.3683  0.4205 -0.4795
 1667TIP3    H226417   5.182   0.831  13.897 -1.2610  0.9319 -1.8704
 1668TIP3   OH226418   6.533   5.312  16.363  0.3771  0.6105 -0.0911
 1668TIP3    H126419   6.523   5.218  16.379  0.1638  0.8001  1.0171
 1668TIP3    H226420   6.550   5.320  16.269  2.5393 -0.7097  0.1132
 1669TIP3   OH226421   4.561   6.684   0.871 -0.5386 -0.0855 -0.0002
 1669TIP3    H126422   4.483   6.651   0.916 -0.3314 -2.3248 -1.1062
 1669TIP3    H226423   4.634   6.660   0.928 -0.5011 -0.2260 -0.1048
 1670TIP3   OH226424   4.163   2.041  16.722  0.2772  0.4673  0.5565
 1670TIP3    H126425   4.238   2.074  16.674  1.0232 -0.6625  0.9189
 1670TIP3    H226426   4.087   2.077  16.675  1.0099  0.5681 -0.5868
 1671TIP3   OH226427   1.748   5.598   1.309  0.1798 -0.3762  0.6425
 1671TIP3    H126428   1.709   5.632   1.228 -0.1599 -0.6774  0.6753
 1671TIP3    H226429   1.715   5.508   1.316 -0.3446 -0.1359  1.4647
 1672TIP3   OH226430   3.321   5.511  13.551  0.2711  0.5821 -0.2682
 1672TIP3    H126431   3.328   5.510  13.456  0.3628  0.1253 -0.2617
 1672TIP3    H226432   3.378   5.582  13.580  0.4513  0.5467 -0.5409
 1673TIP3   OH226433   0.010   3.733  13.162  0.4870 -0.4019 -0.2110
 1673TIP3    H126434   0.085   3.684  13.128  1.1116  0.2514  0.2066
 1673TIP3    H226435   0.049   3.811  13.202 -0.3824 -0.2893  0.4208
 1674TIP3   OH226436   3.253   4.356  13.621 -0.2288  0.3147  0.5429
 1674TIP3    H126437   3.335   4.317  13.594 -0.6152 -0.2963  0.2380
 1674TIP3    H226438   3.195   4.346  13.546 -1.0835 -0.7248  1.2965
 1675TIP3   OH226439   4.653   3.888  13.014 -0.4587 -0.1760 -0.5223
 1675TIP3    H126440   4.592   3.855  12.948 -0.0729 -3.0923  0.4024
 1675TIP3    H226441   4.725   3.926  12.964 -1.0390 -0.6353 -1.7443
 1676TIP3   OH226442   4.512   2.213   1.723  0.7031  0.0222  0.2579
 1676TIP3    H126443   4.557   2.194   1.805  1.7336 -3.0858 -0.8673
 1676TIP3    H226444   4.583   2.234   1.661  0.3522 -1.5334 -0.7188
 1677TIP3   OH226445   4.482   2.750  14.810  0.6692 -0.3619  0.3023
 1677TIP3    H126446   4.523   2.724  14.892  0.0023 -0.5334  0.5884
 1677TIP3    H226447   4.521   2.693  14.744 -2.2793 -3.7326  1.1958
 1678TIP3   OH226448   0.042   2.493   4.416  0.3724 -0.7022 -0.2946
 1678TIP3    H126449   0.105   2.526   4.352  0.9475 -1.0538  0.0869
 1678TIP3    H226450   0.051   2.398   4.413  0.1874 -0.7339  0.0950
 1679TIP3   OH226451   1.615   5.811   4.523 -0.5515 -0.2094 -0.2239
 1679TIP3    H126452   1.524   5.793   4.546 -0.5663  0.8625  0.6232
 1679TIP3    H226453   1.658   5.726   4.528 -0.9927 -0.3630  1.8739
 1680TIP3   OH226454   4.489   5.143   1.929  0.3309 -0.1187 -0.4771
 1680TIP3    H126455   4.461   5.056   1.957 -0.1240  0.2696  0.3086
 1680TIP3    H226456   4.407   5.191   1.915  0.5789  0.3215 -0.4308
 1681TIP3   OH226457   6.382   3.261   0.734 -0.0340  0.5106  0.1024
 1681TIP3    H126458   6.400   3.354   0.728 -0.1608  0.6451  1.5113
 1681TIP3    H226459   6.408   3.237   0.823  1.4231 -1.1231 -0.7058
 1682TIP3   OH226460   4.638   0.921   0.945  0.2150 -0.0810 -0.0549
 1682TIP3    H126461   4.605   0.942   1.033  0.6770  0.1847  0.0583
 1682TIP3    H226462   4.570   0.866   0.907  0.5301 -1.1979  0.9075
 1683TIP3   OH226463   2.855   1.529  13.683  0.0198 -0.2337  0.0452
 1683TIP3    H126464   2.767   1.558  13.708 -0.3411 -1.0555 -0.2354
 1683TIP3    H226465   2.899   1.609  13.654 -1.1344 -0.0399 -1.2628
 1684TIP3   OH226466   2.757   6.323  11.430  0.0823 -0.1889  1.0342
 1684TIP3    H126467   2.753   6.255  11.362 -3.0640  1.7375 -0.9401
 1684TIP3    H226468   2.842   6.309  11.472  1.9111 -2.0308 -2.7486
 1685TIP3   OH226469   2.000   3.369  13.481 -0.2995 -0.5583 -0.3002
 1685TIP3    H126470   1.909   3.342  13.471 -0.4900 -0.7893  1.6970
 1685TIP3    H226471   2.032   3.319  13.556  1.1679  0.3068 -0.3092
 1686TIP3   OH226472   5.478   4.277  13.130 -0.3052  0.2532 -0.0528
 1686TIP3    H126473   5.468   4.366  13.095 -0.6193  0.7071  1.1604
 1686TIP3    H226474   5.426   4.222  13.071 -0.3763  0.9186 -0.6166
 1687TIP3   OH226475   0.651   0.947  11.920 -0.1442 -0.1505 -0.1442
 1687TIP3    H126476   0.585   0.988  11.865 -0.2764 -1.2674 -0.8402
 1687TIP3    H226477   0.610   0.945  12.007 -0.0954  1.2415 -0.0669
 1688TIP3   OH226478   3.918   5.929   1.853 -0.1718 -1.3118  0.1340
 1688TIP3    H126479   3.927   5.959   1.944 -1.1876 -0.7716  0.0639
 1688TIP3    H226480   3.907   5.834   1.859 -2.5676 -1.0418  0.7572
 1689TIP3   OH226481   1.047   1.467   1.842  0.1477  0.0024 -0.6297
 1689TIP3    H126482   1.042   1.505   1.755 -1.0875 -2.0778 -1.5336
 1689TIP3    H226483   1.137   1.434   1.849  0.1472 -0.1270 -1.2529
 1690TIP3   OH226484   2.785   6.759  11.508  0.5131 -0.8673  0.0043
 1690TIP3    H126485   2.696   6.793  11.493  0.6516 -1.0361 -1.2857
 1690TIP3    H226486   2.809   6.792  11.595 -0.9103 -1.0332  0.4883
 1691TIP3   OH226487   6.181   5.710   3.731 -1.3266 -0.3565  0.4009
 1691TIP3    H126488   6.210   5.656   3.657  0.6046  0.9898  0.1108
 1691TIP3    H226489   6.248   5.697   3.797  0.4062  3.2029 -0.4453
 1692TIP3   OH226490   5.715   0.031  12.231 -0.8310 -0.4707  0.2780
 1692TIP3    H126491   5.645   0.095  12.241 -0.8168 -0.2477 -0.9556
 1692TIP3    H226492   5.738   0.007  12.321 -1.5701  0.4444  0.7282
 1693TIP3   OH226493   4.015   6.709  11.320 -0.2256 -0.4977  0.7377
 1693TIP3    H126494   4.021   6.642  11.252 -0.1446 -0.2217  0.4677
 1693TIP3    H226495   3.954   6.774  11.284  1.1464  0.5225  0.1590
 1694TIP3   OH226496   2.417   4.512   2.342  0.0437  0.2608 -0.0791
 1694TIP3    H126497   2.447   4.427   2.374 -0.0790  1.0719  2.4197
 1694TIP3    H226498   2.372   4.492   2.260  1.7684 -1.7918 -0.6327
 1695TIP3   OH226499   6.219   0.243  13.739  0.0706 -0.0056  0.3802
 1695TIP3    H126500   6.283   0.312  13.756 -0.3762  0.3192  0.7886
 1695TIP3    H226501   6.203   0.203  13.824 -1.5607  1.0827  0.6509
 1696TIP3   OH226502   3.055   3.562   3.541  0.2759  0.4084  0.0895
 1696TIP3    H126503   3.000   3.551   3.464  0.4596 -1.2381  0.1646
 1696TIP3    H226504   3.040   3.652   3.568  0.7814  1.2821 -2.3004
 1697TIP3   OH226505   4.903   2.928  16.813  0.7138 -0.1125 -0.2671
 1697TIP3    H126506   4.817   2.957  16.782  0.9830  0.2954 -0.6608
 1697TIP3    H226507   4.888   2.898  16.903  0.6293  2.5544  0.7016
 1698TIP3   OH226508   0.462   5.112   5.261  0.1607 -0.0895  0.4746
 1698TIP3    H126509   0.512   5.031   5.254 -0.2833 -0.3097 -0.2822
 1698TIP3    H226510   0.455   5.128   5.355  0.0271 -1.0667  0.6388
 1699TIP3   OH226511   2.459   0.695   3.841  0.4728 -0.1718 -0.1330
 1699TIP3    H126512   2.403   0.762   3.879 -0.0521  0.4049 -1.8229
 1699TIP3    H226513   2.424   0.612   3.874  0.7182  0.3261  1.4471
 1700TIP3   OH226514   6.304   6.439  16.742  0.5303  0.9379  0.0305
 1700TIP3    H126515   6.242   6.385  16.791 -0.9551  1.0122 -1.6513
 1700TIP3    H226516   6.278   6.428  16.651  2.7087  1.4051 -0.7003
 1701TIP3   OH226517   6.537   5.340   4.076  0.0266 -0.4153  0.4205
 1701TIP3    H126518   6.475   5.270   4.097 -1.3517  0.7304  0.3963
 1701TIP3    H226519   6.494   5.389   4.006 -0.3882  2.0608  2.2810
 1702TIP3   OH226520   3.529   6.533   0.196 -0.1260 -0.2739 -0.7677
 1702TIP3    H126521   3.600   6.468   0.191  0.1902  0.1234 -1.6276
 1702TIP3    H226522   3.561   6.608   0.146 -0.5889  0.4664  0.0096
 1703TIP3   OH226523   4.884   5.179  16.429  1.1505  0.1873 -0.4968
 1703TIP3    H126524   4.978   5.183  16.448  1.4266 -0.7348 -1.5731
 1703TIP3    H226525   4.848   5.258  16.469  2.0649 -0.3953  1.5779
 1704TIP3   OH226526   5.518   2.773  13.371 -0.6236 -0.4084 -0.6639
 1704TIP3    H126527   5.444   2.783  13.313 -0.1158  1.3608 -1.0596
 1704TIP3    H226528   5.492   2.816  13.452  0.4402  1.5444 -1.2906
 1705TIP3   OH226529   3.835   5.222  16.643 -0.1230  0.2011  0.3371
 1705TIP3    H126530   3.743   5.249  16.634 -1.3734 -2.8579  2.2906
 1705TIP3    H226531   3.859   5.192  16.556 -0.2928  2.7111 -0.6521
 1706TIP3   OH226532   5.037   5.344   4.611  0.1497  0.3031 -0.6263
 1706TIP3    H126533   5.027   5.393   4.692 -1.4834 -0.1863 -0.4896
 1706TIP3    H226534   5.098   5.396   4.559  0.4547  1.1298  0.5198
 1707TIP3   OH226535   1.503   3.545  13.963  0.4095  0.0532 -0.7006
 1707TIP3    H126536   1.442   3.472  13.952 -1.3983  1.3057  0.3171
 1707TIP3    H226537   1.527   3.542  14.056 -0.2135  1.1003 -0.4888
 1708TIP3   OH226538   3.067   6.001   1.217 -0.2479  0.3391 -0.3542
 1708TIP3    H126539   3.051   5.908   1.202  0.9314  0.2702 -1.2792
 1708TIP3    H226540   2.983   6.043   1.196 -0.2468 -0.3277 -1.8161
 1709TIP3   OH226541   5.060   3.081  14.174 -0.0701  0.1503  0.6427
 1709TIP3    H126542   5.009   3.005  14.146  2.9262 -1.3067 -1.4524
 1709TIP3    H226543   5.028   3.100  14.262 -2.2110 -2.3589  0.5451
 1710TIP3   OH226544   6.410   0.804  11.640 -0.3507  0.2855 -0.0480
 1710TIP3    H126545   6.392   0.758  11.722 -0.3789 -1.0775 -0.7875
 1710TIP3    H226546   6.384   0.895  11.657  0.1903  0.1627  1.6204
 1711TIP3   OH226547   1.982   6.501  11.003 -0.2422  0.3697 -0.0058
 1711TIP3    H126548   2.060   6.557  11.008  0.8095 -1.1480  1.9036
 1711TIP3    H226549   1.925   6.533  11.073 -0.6329  0.4571 -0.3600
 1712TIP3   OH226550   6.137   2.327   0.277 -0.7672 -0.2385  0.4541
 1712TIP3    H126551   6.204   2.262   0.253 -2.9366 -2.6616  0.5463
 1712TIP3    H226552   6.059   2.275   0.295 -2.4269  2.3969  1.3727
 1713TIP3   OH226553   1.034   5.268  15.574  0.1284  0.3171  0.0028
 1713TIP3    H126554   1.047   5.233  15.662 -1.7434  0.4761  0.3843
 1713TIP3    H226555   1.090   5.214  15.519  0.3305 -0.6707  1.1155
 1714TIP3   OH226556   1.103   0.469   0.473  0.3390 -0.0717 -0.4960
 1714TIP3    H126557   1.031   0.440   0.529  2.0511 -1.4508  1.1067
 1714TIP3    H226558   1.085   0.561   0.456 -0.3784  0.3495  2.1713
 1715TIP3   OH226559   1.154   2.433   2.549  0.1376  0.6958 -0.6788
 1715TIP3    H126560   1.208   2.491   2.602 -0.4077  2.0535 -1.5527
 1715TIP3    H226561   1.199   2.431   2.464  0.7825 -1.1259 -0.3408
 1716TIP3   OH226562   0.763   3.631   6.624 -0.2160  0.0867  0.8696
 1716TIP3    H126563   0.754   3.540   6.652 -0.9393 -0.3429 -0.6663
 1716TIP3    H226564   0.787   3.626   6.532  1.4735  1.4620  1.1841
 1717TIP3   OH226565   2.718   0.989   3.490  0.6259  0.0997 -0.1117
 1717TIP3    H126566   2.720   0.958   3.580 -0.8209  2.7393  0.9573
 1717TIP3    H226567   2.802   1.033   3.477  1.0659 -0.7818 -0.2520
 1718TIP3   OH226568   2.123   1.293   6.014  0.6728 -0.0046 -0.6665
 1718TIP3    H126569   2.211   1.264   6.040  0.4988 -1.1795 -1.3486
 1718TIP3    H226570   2.139   1.364   5.951  1.1174  0.2794 -0.2426
 1719TIP3   OH226571   3.896   5.677   2.951 -0.4878  0.3519 -0.0353
 1719TIP3    H126572   3.830   5.609   2.965  0.5886 -0.3598  2.2169
 1719TIP3    H226573   3.971   5.648   3.003 -0.0505  3.3516  1.2351
 1720TIP3   OH226574   5.263   1.113  14.702  0.1830 -0.0443  0.5009
 1720TIP3    H126575   5.186   1.102  14.646  0.4749 -1.0020  0.2715
 1720TIP3    H226576   5.338   1.098  14.644  0.4998 -0.5897  1.0356
 1721TIP3   OH226577   4.669   0.389  10.936  0.0836  0.3355  0.3247
 1721TIP3    H126578   4.725   0.442  10.993  0.5923 -0.7622  0.8563
 1721TIP3    H226579   4.729   0.347  10.875 -0.2636 -0.1069  0.2851
 1722TIP3   OH226580   0.148   4.154   0.571 -0.5530 -0.2219 -0.0048
 1722TIP3    H126581   0.075   4.205   0.605 -0.7014 -0.5757  0.2209
 1722TIP3    H226582   0.205   4.141   0.646  1.9178  3.5639 -0.9706
 1723TIP3   OH226583   1.715   4.825  13.131  0.0853 -0.2609 -0.0015
 1723TIP3    H126584   1.620   4.833  13.132  0.1483  2.3508 -2.4927
 1723TIP3    H226585   1.747   4.913  13.149  1.9559 -0.6160 -1.2992
 1724TIP3   OH226586   6.394   2.110   6.639  0.4538  0.2338  0.0129
 1724TIP3    H126587   6.458   2.163   6.592  1.6775  0.1620  1.5287
 1724TIP3    H226588   6.427   2.105   6.729 -0.5235 -1.6569  0.3314
 1725TIP3   OH226589   3.679   0.079   4.786  0.2776 -0.1286  0.2858
 1725TIP3    H126590   3.642  -0.009   4.790 -0.8319  0.3002  0.0210
 1725TIP3    H226591   3.616   0.133   4.834  1.2691  0.4247  0.9952
 1726TIP3   OH226592   0.642   6.646   0.375 -0.3669  0.1304  0.4078
 1726TIP3    H126593   0.626   6.605   0.460  0.8356 -2.2114 -0.4049
 1726TIP3    H226594   0.697   6.722   0.395  2.5850 -2.0777  1.6114
 1727TIP3   OH226595   1.813   6.792   0.176  0.6930 -0.6268  0.0665
 1727TIP3    H126596   1.884   6.732   0.158  1.7710  0.7747 -0.5631
 1727TIP3    H226597   1.830   6.826   0.264  1.9900  1.1895 -0.8171
 1728TIP3   OH226598   4.635   4.888   0.900 -0.5982  0.3785 -0.9014
 1728TIP3    H126599   4.678   4.810   0.865 -0.2429  0.4029 -0.5204
 1728TIP3    H226600   4.702   4.956   0.895 -0.3335  0.2258  0.4304
 1729TIP3   OH226601   0.933   4.865   5.773  0.9064 -0.1267 -0.2278
 1729TIP3    H126602   0.867   4.826   5.716 -0.6756  2.2040 -0.1473
 1729TIP3    H226603   0.922   4.821   5.857  0.7779 -1.0895 -0.7414
 1730TIP3   OH226604   6.092   5.690  16.821  0.0481 -0.0224 -0.3695
 1730TIP3    H126605   6.182   5.678  16.793 -0.3000  0.5981 -1.8742
 1730TIP3    H226606   6.093   5.673  16.915  1.1575 -3.0447 -0.8108
 1731TIP3   OH226607   0.925   0.992   2.814  0.0359  0.4558 -0.0685
 1731TIP3    H126608   0.836   0.957   2.818  0.3957 -0.6325 -0.9663
 1731TIP3    H226609   0.914   1.087   2.818 -1.1742  0.3431 -0.2866
 1732TIP3   OH226610   6.002   2.714   1.396  0.4175 -0.0024  0.0774
 1732TIP3    H126611   6.044   2.797   1.418 -0.5154  0.3354  0.6694
 1732TIP3    H226612   5.924   2.739   1.346  0.8265 -0.6028 -0.8842
 1733TIP3   OH226613   1.803   5.893   5.451  0.1974 -0.2347 -0.4587
 1733TIP3    H126614   1.839   5.835   5.519  0.6366  1.4029  0.7853
 1733TIP3    H226615   1.731   5.939   5.494 -0.3501 -0.0782 -1.5087
 1734TIP3   OH226616   6.642   3.769   0.280  0.1670  0.1244  0.5318
 1734TIP3    H126617   6.648   3.678   0.253 -1.0687  0.2561 -0.2776
 1734TIP3    H226618   6.593   3.767   0.362 -1.6054  0.1728 -0.4784
 1735TIP3   OH226619   6.738   3.566  15.001 -0.5687 -0.0571 -0.9890
 1735TIP3    H126620   6.780   3.589  15.084  1.1856 -1.4731 -1.4460
 1735TIP3    H226621   6.647   3.546  15.026  0.5494 -3.2766  1.1407
 1736TIP3   OH226622   3.674   2.810  12.277 -0.0304  0.3042  0.0760
 1736TIP3    H126623   3.760   2.845  12.300  0.3632 -1.0640  0.8090
 1736TIP3    H226624   3.625   2.811  12.360 -0.5454  0.5722 -0.2279
 1737TIP3   OH226625   0.114   3.365   4.327  0.2234  0.6816 -0.2012
 1737TIP3    H126626   0.084   3.447   4.365  3.6262  1.4083  1.2697
 1737TIP3    H226627   0.163   3.391   4.249  0.0557 -0.1444 -0.6005
 1738TIP3   OH226628   6.256   2.886   1.206 -0.3870 -0.3916 -0.8630
 1738TIP3    H126629   6.211   2.951   1.260 -1.1071 -1.2174 -0.4351
 1738TIP3    H226630   6.325   2.852   1.263 -0.5728 -0.6200 -0.7708
 1739TIP3   OH226631   3.232   2.353   3.502  0.0840  0.9845 -0.8412
 1739TIP3    H126632   3.192   2.265   3.502 -0.8139  1.3814 -0.5656
 1739TIP3    H226633   3.262   2.365   3.412  1.8952 -0.3321 -0.4748
 1740TIP3   OH226634   4.305   4.114  15.570  0.1386 -0.1745 -0.5823
 1740TIP3    H126635   4.216   4.116  15.603  0.7252 -0.5313  1.1144
 1740TIP3    H226636   4.295   4.106  15.475 -1.6129  0.5929 -0.5001
 1741TIP3   OH226637   2.693   5.106   2.762 -0.0560  0.1844  0.3102
 1741TIP3    H126638   2.665   5.168   2.694  0.8074  1.4011  1.0240
 1741TIP3    H226639   2.785   5.088   2.742 -0.5646 -1.7669 -0.5227
 1742TIP3   OH226640   5.319   2.694   4.530 -0.0053 -0.2980  0.4512
 1742TIP3    H126641   5.340   2.786   4.549  1.7768 -0.9668  1.9617
 1742TIP3    H226642   5.295   2.657   4.616  0.3846 -1.5122  0.0550
 1743TIP3   OH226643   6.781   3.313   2.880 -0.7157 -0.5797 -0.2101
 1743TIP3    H126644   6.872   3.288   2.898  0.3330  2.1837 -1.1329
 1743TIP3    H226645   6.747   3.341   2.965 -0.4925 -1.0097  0.0271
 1744TIP3   OH226646   3.854   0.035   1.353 -0.1343  0.0233  0.3790
 1744TIP3    H126647   3.850  -0.047   1.303  0.7888  0.1461  0.0882
 1744TIP3    H226648   3.799   0.019   1.429 -0.4226 -0.6689  0.0338
 1745TIP3   OH226649   5.774   4.063  16.043 -0.2158 -0.4392  0.0955
 1745TIP3    H126650   5.858   4.017  16.046  0.3294  0.5726  0.5469
 1745TIP3    H226651   5.784   4.127  15.973 -0.7010 -0.4496  0.0074
 1746TIP3   OH226652   4.087   4.070   5.427 -0.2011 -0.8116 -0.4528
 1746TIP3    H126653   4.004   4.047   5.469 -0.2992  0.1772 -0.0842
 1746TIP3    H226654   4.147   4.000   5.454 -0.5879 -0.8596  0.3231
 1747TIP3   OH226655   4.860   4.899  10.342  0.1419  0.1910 -0.4189
 1747TIP3    H126656   4.802   4.825  10.360  0.8949 -0.1458  0.7207
 1747TIP3    H226657   4.811   4.976  10.368 -0.5293  0.0763 -1.3152
 1748TIP3   OH226658   5.531   6.432   0.140  0.0911 -0.1475 -0.8065
 1748TIP3    H126659   5.456   6.416   0.083  0.3859 -0.8836 -1.0049
 1748TIP3    H226660   5.512   6.382   0.219  1.0773 -1.6538 -1.4770
 1749TIP3   OH226661   2.958   4.282  11.296  0.2290  0.6914 -0.0104
 1749TIP3    H126662   2.896   4.226  11.250 -0.3886  0.3408  1.2217
 1749TIP3    H226663   2.990   4.342  11.229  0.2742 -0.5897 -1.1642
 1750TIP3   OH226664   2.584   2.841  16.399  0.5798  0.3702  0.1892
 1750TIP3    H126665   2.516   2.775  16.388  0.4127  0.5300  0.2527
 1750TIP3    H226666   2.583   2.891  16.317  0.5657  0.4232  0.2224
 1751TIP3   OH226667   5.006   0.401   3.180 -0.4403  0.0622 -0.3283
 1751TIP3    H126668   4.962   0.363   3.103 -3.5905 -0.1735  1.4267
 1751TIP3    H226669   4.997   0.495   3.168  1.3663  0.1604 -1.3835
 1752TIP3   OH226670   3.659   6.250   1.959  0.1819 -0.1217 -0.0690
 1752TIP3    H126671   3.695   6.237   1.871  2.7906 -0.4429  0.9427
 1752TIP3    H226672   3.708   6.326   1.992 -1.9973  1.0901  0.5283
 1753TIP3   OH226673   2.006   4.395   4.902  0.0655  0.2509 -0.4468
 1753TIP3    H126674   2.052   4.421   4.823  1.2236  0.7985  0.3753
 1753TIP3    H226675   1.915   4.421   4.887  0.3475  0.7233 -1.4158
 1754TIP3   OH226676   3.629   0.623   0.454  0.1578 -0.3187 -0.0878
 1754TIP3    H126677   3.627   0.685   0.527  2.3631 -0.8012  0.4704
 1754TIP3    H226678   3.625   0.678   0.376  1.8981  0.5871  0.3979
 1755TIP3   OH226679   4.365   5.946   2.374  0.3509 -0.1690 -0.5630
 1755TIP3    H126680   4.417   5.926   2.452  0.3496  0.6510 -0.3342
 1755TIP3    H226681   4.382   5.874   2.314  0.8263 -0.5077 -0.0345
 1756TIP3   OH226682   0.514   5.148  16.060  0.0246 -0.2555  0.4675
 1756TIP3    H126683   0.515   5.131  16.154 -0.0826 -1.2526  0.3027
 1756TIP3    H226684   0.422   5.166  16.040 -0.2061 -1.5094  0.3251
 1757TIP3   OH226685   4.450   4.854  15.351  0.2206 -0.1703  0.2730
 1757TIP3    H126686   4.503   4.857  15.271 -1.7231 -0.9608 -1.1235
 1757TIP3    H226687   4.368   4.896  15.326  0.2797  1.4424  2.5107
 1758TIP3   OH226688   0.096   3.914  13.371 -0.6945  0.1942 -0.3842
 1758TIP3    H126689   0.139   3.980  13.426 -1.6717 -0.6445  1.4825
 1758TIP3    H226690   0.152   3.837  13.379 -0.8220  0.0771 -0.6118
 1759TIP3   OH226691   5.507   3.351   2.461  0.2222  0.1844  0.1013
 1759TIP3    H126692   5.548   3.271   2.493 -1.2418 -1.2868 -1.4608
 1759TIP3    H226693   5.416   3.344   2.488  0.4154  2.2345  1.4708
 1760TIP3   OH226694   0.071   3.341   1.812 -0.1262 -0.2864 -0.0691
 1760TIP3    H126695   0.110   3.309   1.893 -1.8083  1.2599  1.4622
 1760TIP3    H226696   0.125   3.417   1.788  1.1282 -1.4683 -1.1707
 1761TIP3   OH226697   6.413   6.157   4.697  0.1220 -0.1334  0.2703
 1761TIP3    H126698   6.383   6.066   4.706 -2.5966  0.5939 -0.7450
 1761TIP3    H226699   6.357   6.207   4.757  0.7982  1.0428 -0.0493
 1762TIP3   OH226700   6.604   1.521  13.884  0.1754  0.2150  0.2253
 1762TIP3    H126701   6.649   1.438  13.865  1.8114  1.0853  0.1085
 1762TIP3    H226702   6.553   1.540  13.806 -1.2171 -1.2803  0.7260
 1763TIP3   OH226703   5.940   4.274  11.511 -0.8036  0.0254 -0.4079
 1763TIP3    H126704   6.032   4.291  11.491 -0.9753  0.1449 -1.1490
 1763TIP3    H226705   5.913   4.349  11.564 -0.2717 -0.4113  0.5148
 1764TIP3   OH226706   5.373   4.141  12.614 -0.7487 -0.5273 -0.0365
 1764TIP3    H126707   5.285   4.166  12.584  0.1977  1.3763 -1.4873
 1764TIP3    H226708   5.403   4.216  12.665  1.2032  0.3690 -2.2865
 1765TIP3   OH226709   0.640   6.521   5.070  0.6616  0.2773 -0.2007
 1765TIP3    H126710   0.670   6.491   5.156 -1.4618  0.8677  0.8203
 1765TIP3    H226711   0.652   6.446   5.012  0.6100 -0.6809  0.9979
 1766TIP3   OH226712   4.863   5.231   4.431  0.6082  0.4392  0.1698
 1766TIP3    H126713   4.884   5.307   4.377  0.0016  0.5924  0.1359
 1766TIP3    H226714   4.925   5.234   4.503  1.0424  0.5664 -0.2083
 1767TIP3   OH226715   6.519   1.942   3.311 -0.0947  0.1608  0.0183
 1767TIP3    H126716   6.574   2.005   3.264 -3.1878  2.7116 -0.5296
 1767TIP3    H226717   6.516   1.865   3.255 -1.3009  2.0074 -2.6420
 1768TIP3   OH226718   0.352   3.780  13.979 -0.0807  0.5138 -0.1031
 1768TIP3    H126719   0.337   3.766  14.073 -0.5202 -0.3341 -0.2894
 1768TIP3    H226720   0.375   3.873  13.972  1.7297  0.1902  1.0538
 1769TIP3   OH226721   6.338   3.399   1.854  0.8171 -0.0081 -0.1461
 1769TIP3    H126722   6.368   3.354   1.933 -1.7677 -0.1410  0.8665
 1769TIP3    H226723   6.359   3.491   1.869  0.6585 -0.0814  0.5610
 1770TIP3   OH226724   3.273   4.951  15.668 -0.4116 -0.2851  0.3457
 1770TIP3    H126725   3.323   4.966  15.748  0.4310  1.1785 -0.3956
 1770TIP3    H226726   3.211   5.024  15.665 -1.3601 -1.0685  0.3156
 1771TIP3   OH226727   1.735   1.180  16.013 -0.7048 -0.7129 -0.5589
 1771TIP3    H126728   1.725   1.087  15.996 -1.7408 -0.9215  1.0151
 1771TIP3    H226729   1.647   1.216  16.003 -0.2319  0.2203 -1.6593
 1772TIP3   OH226730   5.120   6.799   3.384 -0.0322  0.1520  0.9422
 1772TIP3    H126731   5.184   6.868   3.401  2.1042 -1.3687 -0.4947
 1772TIP3    H226732   5.172   6.720   3.371 -2.2340 -1.2433  0.0516
 1773TIP3   OH226733   5.178   2.177  17.084 -0.4496  0.2280 -0.6244
 1773TIP3    H126734   5.220   2.198  17.168  2.4111  2.1131 -2.3317
 1773TIP3    H226735   5.230   2.104  17.050 -1.1670 -0.0799 -1.0634
 1774TIP3   OH226736   0.836   6.169   2.529 -0.2995 -0.4130 -0.0018
 1774TIP3    H126737   0.785   6.245   2.499 -0.9971 -0.5176  0.8807
 1774TIP3    H226738   0.780   6.126   2.593  0.1867 -1.5568 -0.3122
 1775TIP3   OH226739   5.605   4.641  15.255  0.6235 -0.3286 -0.1438
 1775TIP3    H126740   5.623   4.547  15.258 -1.4569 -0.7660  0.3168
 1775TIP3    H226741   5.550   4.653  15.178  1.6210  0.7002 -0.7322
 1776TIP3   OH226742   6.349   3.358  15.494  0.4893 -0.3126  0.4338
 1776TIP3    H126743   6.397   3.331  15.573 -0.9753  0.0918  1.4942
 1776TIP3    H226744   6.262   3.382  15.526 -0.4147 -0.9508 -1.4222
 1777TIP3   OH226745   3.921   3.309  14.587 -0.3840 -0.9354 -0.5050
 1777TIP3    H126746   3.947   3.331  14.497  0.2204 -3.4693 -1.0279
 1777TIP3    H226747   3.832   3.344  14.595  0.5296  1.7688 -1.0825
 1778TIP3   OH226748   2.028   3.765   0.033  0.3079 -0.3879 -0.2546
 1778TIP3    H126749   1.936   3.768   0.060  0.5681 -1.2859  0.7594
 1778TIP3    H226750   2.073   3.721   0.104  1.9678  2.1984  0.4371
 1779TIP3   OH226751   0.509   5.899  14.744 -0.1755 -0.3727  0.2652
 1779TIP3    H126752   0.569   5.919  14.815 -0.7999  1.1867  0.3928
 1779TIP3    H226753   0.560   5.912  14.664  0.5832 -2.3203  0.3873
 1780TIP3   OH226754   0.804   3.639   4.961 -0.1706  0.4533 -0.2228
 1780TIP3    H126755   0.850   3.721   4.948 -1.4951  1.4000  0.7498
 1780TIP3    H226756   0.864   3.585   5.012  0.4918  1.0227 -0.3932
 1781TIP3   OH226757   3.143   3.258  12.098  0.2539 -0.2273 -0.3390
 1781TIP3    H126758   3.158   3.257  12.192  0.7058  0.6745 -0.3880
 1781TIP3    H226759   3.098   3.175  12.079  0.9507 -0.8223  0.5328
 1782TIP3   OH226760   5.170   6.000  14.884  0.4409 -0.1132  0.6886
 1782TIP3    H126761   5.257   6.041  14.885 -0.0158  0.9320  3.2487
 1782TIP3    H226762   5.123   6.046  14.814  0.2412  3.3164  2.8525
 1783TIP3   OH226763   0.875   1.322   4.426 -0.0369 -0.5225 -0.4822
 1783TIP3    H126764   0.856   1.230   4.444 -0.5302 -0.2037  0.7299
 1783TIP3    H226765   0.849   1.335   4.336 -3.9455 -0.5659  0.4839
 1784TIP3   OH226766   5.046   0.002   5.025  0.1724 -0.1748 -0.1132
 1784TIP3    H126767   4.988   0.025   5.098  1.2746 -0.5085  0.8921
 1784TIP3    H226768   5.027  -0.091   5.008 -0.5100  0.0577 -0.6632
 1785TIP3   OH226769   3.813   6.117   2.715 -0.6239 -0.1935  0.0311
 1785TIP3    H126770   3.768   6.111   2.631  1.9896 -0.8008 -1.4352
 1785TIP3    H226771   3.792   6.034   2.759 -0.7307 -0.5911 -0.7426
 1786TIP3   OH226772   3.599   0.294   1.240 -0.6138 -0.1698  0.1111
 1786TIP3    H126773   3.651   0.352   1.296 -0.5160 -0.0572 -0.0906
 1786TIP3    H226774   3.600   0.209   1.284  0.6231 -0.4497 -0.3945
 1787TIP3   OH226775   6.466   1.636  14.509  0.1729  0.1047  0.2309
 1787TIP3    H126776   6.537   1.572  14.524 -0.1803 -0.3671 -0.0849
 1787TIP3    H226777   6.467   1.651  14.415 -2.1081 -2.2580 -0.2747
 1788TIP3   OH226778   0.726   3.071   1.990 -0.0314 -0.2924  0.5296
 1788TIP3    H126779   0.768   3.136   1.934  2.0010 -0.7612  1.4222
 1788TIP3    H226780   0.731   2.989   1.940  1.2600 -0.5908  1.1017
 1789TIP3   OH226781   3.712   5.370  11.859 -0.0318 -0.1342  0.1611
 1789TIP3    H126782   3.671   5.284  11.866 -0.6513  0.2476  1.6421
 1789TIP3    H226783   3.639   5.432  11.864  0.4482  0.5005 -0.4214
 1790TIP3   OH226784   4.276   3.608   5.560 -0.4786 -0.1041 -0.7591
 1790TIP3    H126785   4.298   3.519   5.587 -0.6838  0.1837  0.4228
 1790TIP3    H226786   4.313   3.617   5.472  1.5385 -0.6130 -0.0185
 1791TIP3   OH226787   4.272   3.780   0.456  0.1742  0.4823 -0.1492
 1791TIP3    H126788   4.226   3.817   0.381  2.0500  0.5259 -1.3528
 1791TIP3    H226789   4.241   3.831   0.531  0.0370  2.0956 -1.2471
 1792TIP3   OH226790   1.721   4.149   4.949  0.0996 -0.1342  0.0047
 1792TIP3    H126791   1.809   4.112   4.939 -0.0328 -0.4120 -0.1304
 1792TIP3    H226792   1.693   4.170   4.860  0.3071  0.6092  0.1081
 1793TIP3   OH226793   4.946   6.125  11.876  0.3700  0.3209  0.0926
 1793TIP3    H126794   4.972   6.111  11.967  1.4367 -2.5746 -0.5469
 1793TIP3    H226795   5.000   6.198  11.847 -0.9137  2.1601  2.0691
 1794TIP3   OH226796   5.169   1.483   0.361  0.1387 -0.3719  0.5533
 1794TIP3    H126797   5.142   1.511   0.273  1.2643  0.4664  0.4592
 1794TIP3    H226798   5.254   1.525   0.375  1.3574 -2.7319  0.8910
 1795TIP3   OH226799   5.277   4.562   0.053 -0.0979 -0.6970 -0.6120
 1795TIP3    H126800   5.272   4.506  -0.024 -1.4656 -0.4282 -0.7383
 1795TIP3    H226801   5.239   4.510   0.123 -0.9345 -0.1166 -0.6247
 1796TIP3   OH226802   6.552   5.418   2.620 -0.5402  0.0901 -0.6295
 1796TIP3    H126803   6.558   5.503   2.578 -1.5072 -0.1870 -1.3574
 1796TIP3    H226804   6.518   5.360   2.552  0.3663 -0.9463 -0.2315
 1797TIP3   OH226805   6.177   2.291  12.498  0.3148 -0.1523 -0.0823
 1797TIP3    H126806   6.191   2.196  12.496  2.6389  0.0738  1.6834
 1797TIP3    H226807   6.126   2.306  12.577 -0.1579  0.0912 -0.4270
 1798TIP3   OH226808   1.055   4.439  11.177 -0.8037 -0.4719  0.4277
 1798TIP3    H126809   1.072   4.351  11.211  1.1589  0.2957  1.6197
 1798TIP3    H226810   1.012   4.485  11.249  1.5233  0.5704  1.2377
 1799TIP3   OH226811   6.227   2.074  15.282 -0.1934  0.0547  0.0348
 1799TIP3    H126812   6.277   2.017  15.341  0.3936  0.6688  0.1391
 1799TIP3    H226813   6.243   2.039  15.195 -1.2305 -0.9871  0.2367
 1800TIP3   OH226814   5.250   0.165  12.355 -0.1269 -0.2209  0.3964
 1800TIP3    H126815   5.303   0.245  12.361 -0.2818 -0.0696 -0.1286
 1800TIP3    H226816   5.303   0.097  12.395 -0.1643  0.2245  1.2306
 1801TIP3   OH226817   5.565   3.810   4.005  0.0501 -0.2546 -0.0655
 1801TIP3    H126818   5.610   3.867   3.943  0.4513 -0.2174  0.2571
 1801TIP3    H226819   5.472   3.819   3.983  0.1990 -0.3561 -0.7546
 1802TIP3   OH226820   2.713   1.286  14.825 -0.0235  0.6224  0.4496
 1802TIP3    H126821   2.756   1.313  14.905 -0.3881  1.2318  0.4440
 1802TIP3    H226822   2.746   1.345  14.757  0.2873  0.1095  0.1474
 1803TIP3   OH226823   3.555   6.001  15.051 -0.1691  0.3683  0.9026
 1803TIP3    H126824   3.492   6.074  15.051 -0.7855 -0.0778  3.0134
 1803TIP3    H226825   3.605   6.014  15.132  0.4915 -0.9012  0.7188
 1804TIP3   OH226826   6.117   5.569  15.460 -0.1965 -0.3382  0.0448
 1804TIP3    H126827   6.063   5.628  15.407  0.2709 -0.8979 -1.1031
 1804TIP3    H226828   6.168   5.519  15.396 -0.5519 -1.9798  0.9783
 1805TIP3   OH226829   3.930   0.983  11.600 -0.7463 -0.0846  0.0707
 1805TIP3    H126830   3.975   0.942  11.526 -0.8634 -1.8542  0.9374
 1805TIP3    H226831   3.840   0.952  11.593 -0.8273 -0.0156  0.7717
 1806TIP3   OH226832   6.245   2.322   4.333 -0.4181 -0.0712  0.3088
 1806TIP3    H126833   6.330   2.286   4.358  0.0829  0.5748 -0.4067
 1806TIP3    H226834   6.187   2.246   4.326 -0.4427 -0.3578  2.7437
 1807TIP3   OH226835   0.437   3.157   3.620  0.1048 -0.2679 -0.5486
 1807TIP3    H126836   0.403   3.082   3.669 -1.4070  0.0219 -1.1141
 1807TIP3    H226837   0.460   3.121   3.534 -1.0169 -0.0344 -0.9653
 1808TIP3   OH226838   2.986   5.064  16.041  0.4158 -0.0527 -0.6535
 1808TIP3    H126839   3.002   5.077  16.135 -2.9004 -1.1562  0.2174
 1808TIP3    H226840   2.963   5.151  16.009 -1.0081 -0.0492  0.2542
 1809TIP3   OH226841   1.831   0.575  13.051  0.5460 -0.4094 -0.2570
 1809TIP3    H126842   1.924   0.596  13.060 -0.5065  4.6570  3.1102
 1809TIP3    H226843   1.811   0.523  13.129  0.2299  0.8059  0.5150
 1810TIP3   OH226844   5.055   0.398   5.532  0.4659 -0.0039  0.4445
 1810TIP3    H126845   4.993   0.357   5.471 -0.1004 -0.0736  1.0528
 1810TIP3    H226846   5.102   0.324   5.572  0.3402  0.0032  0.6067
 1811TIP3   OH226847   3.778   5.698   0.392  0.0710 -0.5379  0.0021
 1811TIP3    H126848   3.684   5.688   0.405 -0.4545  0.3111 -2.5241
 1811TIP3    H226849   3.813   5.719   0.478 -2.1271 -0.3926  0.8995
 1812TIP3   OH226850   5.020   0.068   5.727 -0.3785 -0.8567 -0.3365
 1812TIP3    H126851   5.000  -0.014   5.682  1.0145 -1.3496 -0.1062
 1812TIP3    H226852   5.103   0.096   5.689  0.1170 -0.5493  0.9326
 1813TIP3   OH226853   6.592   1.795   5.969  0.5752 -0.1561  0.3789
 1813TIP3    H126854   6.607   1.829   6.058  1.2211  0.2480  0.1217
 1813TIP3    H226855   6.675   1.754   5.945  1.0500  1.3607 -0.7419
 1814TIP3   OH226856   4.487   2.560   4.009 -0.1077  0.5523 -0.1335
 1814TIP3    H126857   4.569   2.541   3.963 -0.5712 -0.5492 -0.5489
 1814TIP3    H226858   4.514   2.607   4.088  0.8174  1.2616 -0.8571
 1815TIP3   OH226859   4.295   2.420  15.905 -0.0258 -0.3836 -0.3465
 1815TIP3    H126860   4.314   2.333  15.870  1.0733  0.1564 -1.1712
 1815TIP3    H226861   4.380   2.464  15.908 -0.5239  0.5829  0.2799
 1816TIP3   OH226862   3.644   0.569   1.786  0.3835 -0.4253  0.6166
 1816TIP3    H126863   3.630   0.583   1.880  0.3363 -2.8913  1.0284
 1816TIP3    H226864   3.729   0.526   1.780 -0.1760 -1.4446 -0.3551
 1817TIP3   OH226865   4.306   6.644   3.271  0.4363 -0.3478 -0.5803
 1817TIP3    H126866   4.398   6.653   3.298  0.2563  0.0081 -0.0674
 1817TIP3    H226867   4.256   6.666   3.350 -0.1534  2.3344 -1.6101
 1818TIP3   OH226868   5.472   4.875  14.174 -0.1723  0.0637  0.0100
 1818TIP3    H126869   5.426   4.793  14.156  0.5542 -0.5412  0.8013
 1818TIP3    H226870   5.413   4.923  14.233  0.1561 -0.6913  0.9904
 1819TIP3   OH226871   2.430   0.101  15.808 -0.2197 -0.1715 -0.1285
 1819TIP3    H126872   2.476   0.018  15.809  1.0666  0.4978  1.5394
 1819TIP3    H226873   2.348   0.083  15.762  0.1308 -2.2883  0.0001
 1820TIP3   OH226874   1.300   5.768  10.775 -0.0915 -0.2224  0.2137
 1820TIP3    H126875   1.271   5.860  10.768  1.8899  0.3462 -1.2780
 1820TIP3    H226876   1.377   5.771  10.832 -0.9155 -1.2407  1.4498
 1821TIP3   OH226877   5.112   6.726   5.461 -0.2530  0.5958  0.1190
 1821TIP3    H126878   5.093   6.665   5.533 -2.0751  0.6968 -0.2351
 1821TIP3    H226879   5.184   6.685   5.413 -0.6140 -0.6669  0.6119
 1822TIP3   OH226880   5.019   4.245  16.136  0.0377  0.0387  0.0944
 1822TIP3    H126881   5.031   4.337  16.159 -0.0712 -0.0768  0.6280
 1822TIP3    H226882   4.984   4.247  16.048  1.6417  0.4614 -0.5789
 1823TIP3   OH226883   5.160   3.712   0.865 -0.3495 -0.6583  0.2873
 1823TIP3    H126884   5.169   3.743   0.775  3.0728 -0.1941  0.6260
 1823TIP3    H226885   5.187   3.620   0.861 -1.4742 -1.0189  0.6730
 1824TIP3   OH226886   3.890   5.974   1.590 -0.1692  0.1516  0.0065
 1824TIP3    H126887   3.820   6.039   1.582  0.6548  0.9315 -1.3232
 1824TIP3    H226888   3.887   5.946   1.681 -1.7708  0.6557  0.1390
 1825TIP3   OH226889   3.855   4.621  16.463  0.1256  0.2521  0.2737
 1825TIP3    H126890   3.791   4.558  16.431 -1.2744  1.4327  0.6326
 1825TIP3    H226891   3.876   4.674  16.386  3.1305 -2.0080 -0.6531
 1826TIP3   OH226892   5.467   6.789   2.606  0.2512  0.0967 -0.3375
 1826TIP3    H126893   5.525   6.778   2.681  0.4089 -2.2904 -0.7473
 1826TIP3    H226894   5.394   6.842   2.639  1.7180  1.5962  0.6519
 1827TIP3   OH226895   5.456   0.372  15.408  0.6657 -0.3096 -0.2158
 1827TIP3    H126896   5.506   0.292  15.417  1.4019  0.3959  3.8236
 1827TIP3    H226897   5.473   0.421  15.489 -2.6603  2.2351 -0.8127
 1828TIP3   OH226898   6.729   4.340  11.292  0.5825  0.4609 -0.0962
 1828TIP3    H126899   6.668   4.408  11.321  0.7676  0.7582 -0.3981
 1828TIP3    H226900   6.713   4.266  11.351 -1.5918 -0.2809 -1.4732
 1829TIP3   OH226901   0.480   3.977  14.256  0.1689  0.1739  0.3349
 1829TIP3    H126902   0.388   3.974  14.231  0.2299 -3.3118 -0.0647
 1829TIP3    H226903   0.481   4.018  14.342 -2.0807 -1.4233  1.2024
 1830TIP3   OH226904   0.731   5.736   5.661  0.5453 -0.2469 -0.8161
 1830TIP3    H126905   0.723   5.831   5.672 -0.2775 -0.3500 -0.4967
 1830TIP3    H226906   0.690   5.718   5.577  0.3341 -0.3701 -0.6875
 1831TIP3   OH226907   4.616   3.696  12.817  0.5053  0.1517  0.2567
 1831TIP3    H126908   4.688   3.706  12.756 -0.6309  1.4582 -0.9425
 1831TIP3    H226909   4.537   3.706  12.764 -0.5741 -0.8591  1.5788
 1832TIP3   OH226910   1.451   3.818   1.664  0.0971 -0.2553 -0.1414
 1832TIP3    H126911   1.510   3.756   1.706 -0.4218  1.0757  2.8055
 1832TIP3    H226912   1.508   3.889   1.635  0.2576 -0.3275 -0.0060
 1833TIP3   OH226913   1.814   4.596  13.518  0.1453  0.6388 -0.4089
 1833TIP3    H126914   1.888   4.595  13.458 -0.6243 -1.0969 -1.3598
 1833TIP3    H226915   1.742   4.634  13.468 -0.9607 -2.3176 -1.2558
 1834TIP3   OH226916   0.425   6.562   0.189 -0.7942 -0.3245 -0.5961
 1834TIP3    H126917   0.515   6.551   0.158 -0.6988  0.6710 -0.6941
 1834TIP3    H226918   0.431   6.632   0.254 -1.4133 -0.6475 -0.1795
 1835TIP3   OH226919   0.971   6.768   2.703  0.2449  0.4656  0.2035
 1835TIP3    H126920   1.045   6.719   2.668  0.7280  0.7613  0.7998
 1835TIP3    H226921   0.896   6.710   2.690  0.7242 -0.2189  0.4227
 1836TIP3   OH226922   1.732   2.631  11.232 -0.1136 -0.1361 -0.6303
 1836TIP3    H126923   1.741   2.724  11.213  0.5538  0.1097  0.8324
 1836TIP3    H226924   1.745   2.588  11.147 -0.9520  1.1105 -1.4111
 1837TIP3   OH226925   0.333   1.103   3.330 -0.5636  0.6903  0.1315
 1837TIP3    H126926   0.358   1.092   3.239 -2.1321  1.9570 -0.4992
 1837TIP3    H226927   0.302   1.017   3.358 -0.2705  0.3469 -0.5839
 1838TIP3   OH226928   2.963   4.861  11.380 -0.8094  0.5526 -0.1402
 1838TIP3    H126929   2.960   4.886  11.288  0.4620  0.9373 -0.0999
 1838TIP3    H226930   2.987   4.942  11.426  0.9720 -0.1356  0.2484
 1839TIP3   OH226931   0.873   3.188   4.165  0.0595  0.1636  0.4340
 1839TIP3    H126932   0.839   3.159   4.250 -1.6737  0.3792 -0.1433
 1839TIP3    H226933   0.795   3.214   4.115  1.0846  0.6011 -1.0217
 1840TIP3   OH226934   0.084   6.005   0.882  0.1611 -0.1715  0.4687
 1840TIP3    H126935   0.120   5.920   0.908  2.1039  0.5124  0.1731
 1840TIP3    H226936  -0.006   5.986   0.855  0.3725 -2.0293  0.9621
 1841TIP3   OH226937   4.379   4.262   3.318 -0.1071  0.1762 -0.2536
 1841TIP3    H126938   4.411   4.275   3.229  0.7337 -1.3650 -0.2114
 1841TIP3    H226939   4.421   4.181   3.347 -2.8827 -1.1257  0.3863
 1842TIP3   OH226940   4.306   5.635  14.006 -0.3441 -0.2846 -0.0487
 1842TIP3    H126941   4.310   5.539  14.005 -0.1643 -0.3056  1.4003
 1842TIP3    H226942   4.322   5.660  13.915  0.8917 -1.5796 -0.2283
 1843TIP3   OH226943   2.288   1.300  16.374  0.1520  0.0959 -0.6050
 1843TIP3    H126944   2.368   1.327  16.420  0.0629 -2.1977  1.0781
 1843TIP3    H226945   2.219   1.355  16.411  0.4301 -0.2867  0.5192
 1844TIP3   OH226946   1.239   2.058   5.437  0.4595  0.2019 -0.0370
 1844TIP3    H126947   1.269   2.101   5.356  0.3775  0.0682 -0.1377
 1844TIP3    H226948   1.203   1.975   5.408 -0.3061  0.4950  0.0445
 1845TIP3   OH226949   4.938   6.000  12.125 -0.1305 -0.4290 -0.2054
 1845TIP3    H126950   4.965   5.981  12.214 -0.1807  0.1328 -0.0648
 1845TIP3    H226951   4.843   5.992  12.126 -0.0301 -1.9809 -0.5965
 1846TIP3   OH226952   3.459   1.574   3.721 -0.0984  0.3283  0.6071
 1846TIP3    H126953   3.364   1.568   3.704 -0.0477 -0.4704  0.5740
 1846TIP3    H226954   3.493   1.624   3.647 -0.4180  0.1360  0.3276
 1847TIP3   OH226955   6.324   2.663  15.511  0.3334 -0.2206 -0.0692
 1847TIP3    H126956   6.361   2.750  15.500 -0.3804  0.1652  0.5213
 1847TIP3    H226957   6.337   2.620  15.426 -1.8151  1.4187 -1.3150
 1848TIP3   OH226958   2.193   0.160  16.003  0.4309 -0.2038 -0.2489
 1848TIP3    H126959   2.209   0.065  16.004 -1.4658 -0.5700 -0.7335
 1848TIP3    H226960   2.264   0.197  16.055  1.0121 -1.9256  0.2433
 1849TIP3   OH226961   3.190   3.211   0.741 -0.2292 -0.3242  0.7979
 1849TIP3    H126962   3.247   3.287   0.737 -0.2510 -0.2862  1.1802
 1849TIP3    H226963   3.208   3.163   0.660 -1.6701  1.1054 -0.4373
 1850TIP3   OH226964   0.640   6.301   4.915 -0.1593 -0.9130 -0.3383
 1850TIP3    H126965   0.696   6.255   4.852 -1.5596 -0.6366 -1.8453
 1850TIP3    H226966   0.574   6.236   4.939  0.0565 -0.8454  0.4644
 1851TIP3   OH226967   6.743   5.567   3.427 -0.0380 -0.2161 -0.0509
 1851TIP3    H126968   6.763   5.474   3.437  1.6051  0.1241  0.1203
 1851TIP3    H226969   6.762   5.604   3.513 -0.4882  0.3240 -0.1800
 1852TIP3   OH226970   0.307   6.695  16.211 -0.4060 -0.3047 -0.6183
 1852TIP3    H126971   0.326   6.776  16.258 -1.8314  0.3537 -1.1494
 1852TIP3    H226972   0.255   6.643  16.273 -0.6385 -0.2550 -0.7756
 1853TIP3   OH226973   1.488   3.502   0.587 -0.4268  0.6284 -0.1471
 1853TIP3    H126974   1.501   3.585   0.542 -0.2203  0.7078  0.0610
 1853TIP3    H226975   1.482   3.437   0.516  0.3993  0.6830 -0.2678
 1854TIP3   OH226976   5.454   1.801   0.396 -0.3714  0.0252  0.0142
 1854TIP3    H126977   5.473   1.735   0.329  0.8071 -1.1972  1.4728
 1854TIP3    H226978   5.372   1.771   0.436  0.4745 -0.9643  1.0833
 1855TIP3   OH226979   3.964   4.786   3.603 -0.2450 -0.5527  0.1944
 1855TIP3    H126980   4.005   4.828   3.528 -0.6043 -1.7031 -0.6820
 1855TIP3    H226981   3.871   4.783   3.581 -0.5776  0.4359  1.3632
 1856TIP3   OH226982   6.409   6.695   3.845 -0.4457 -0.3826  0.1150
 1856TIP3    H126983   6.401   6.624   3.781 -0.7096 -0.1560 -0.1072
 1856TIP3    H226984   6.393   6.774   3.794  0.3075 -0.1292  0.2697
 1857TIP3   OH226985   2.734   0.906   0.885  0.0678 -0.2561  0.2128
 1857TIP3    H126986   2.714   0.855   0.963 -0.9803 -1.2922 -0.6989
 1857TIP3    H226987   2.686   0.988   0.897 -1.2543 -0.9794  0.0279
 1858TIP3   OH226988   6.172   0.851  13.063 -0.2420 -0.5842 -0.4189
 1858TIP3    H126989   6.249   0.796  13.048  0.6884  0.2585  0.9658
 1858TIP3    H226990   6.099   0.800  13.029  0.8556 -1.6599 -1.2586
 1859TIP3   OH226991   3.401   3.133  15.144 -0.0084  0.5760  0.1544
 1859TIP3    H126992   3.454   3.176  15.076  1.2700  0.7977  1.2535
 1859TIP3    H226993   3.375   3.050  15.105  0.8596  0.6231 -0.5498
 1860TIP3   OH226994   3.594   3.400   0.893 -0.5776  0.0732  0.1013
 1860TIP3    H126995   3.612   3.472   0.954  0.4162  1.8403 -2.1397
 1860TIP3    H226996   3.506   3.371   0.916 -0.6979  1.4534  1.5928
 1861TIP3   OH226997   0.471   5.775  13.544 -0.0235  0.1260 -0.9978
 1861TIP3    H126998   0.502   5.840  13.481  0.8880 -1.1849 -1.9605
 1861TIP3    H226999   0.489   5.815  13.630  0.2352  1.2539 -1.5496
 1862TIP3   OH227000   3.110   6.583  13.422 -0.4589  0.2064  0.7389
 1862TIP3    H127001   3.124   6.508  13.365 -2.1891 -0.1005  0.6696
 1862TIP3    H227002   3.197   6.622  13.432  0.2682 -1.1070 -0.1730
 1863TIP3   OH227003   2.655   3.245  16.087 -0.4567  0.0623  0.4626
 1863TIP3    H127004   2.709   3.233  16.009  3.2314  1.1920  2.5742
 1863TIP3    H227005   2.625   3.336  16.082  0.3670  0.3568  0.6225
 1864TIP3   OH227006   4.563   1.169   3.192  0.5221 -0.5371  0.4796
 1864TIP3    H127007   4.494   1.235   3.197 -0.4823 -1.6137  1.8495
 1864TIP3    H227008   4.525   1.098   3.141  0.2927 -1.4361  1.8344
 1865TIP3   OH227009   4.279   2.735  11.799 -0.1749  0.2029 -0.3497
 1865TIP3    H127010   4.224   2.677  11.746 -0.8098  1.9071 -1.6566
 1865TIP3    H227011   4.352   2.757  11.742  2.5210 -2.7222  1.6554
 1866TIP3   OH227012   3.807   0.307   2.909  0.1974 -0.1788 -0.2006
 1866TIP3    H127013   3.713   0.297   2.919  0.1893  1.1303  1.4138
 1866TIP3    H227014   3.820   0.324   2.816 -1.1158 -0.7150 -0.4954
 1867TIP3   OH227015   0.422   6.593  10.674 -0.4401  1.1196  0.2260
 1867TIP3    H127016   0.501   6.593  10.620 -0.8108 -0.7982 -0.4006
 1867TIP3    H227017   0.454   6.602  10.763  0.8765 -2.4845  0.3014
 1868TIP3   OH227018   6.000   1.609   1.755 -0.5179  0.3106  0.1867
 1868TIP3    H127019   6.091   1.634   1.736 -0.8236  1.7846  0.5702
 1868TIP3    H227020   6.003   1.514   1.761  0.9069  0.2891 -0.3294
 1869TIP3   OH227021   2.355   3.514   2.471 -0.1380 -0.0176 -0.3782
 1869TIP3    H127022   2.342   3.460   2.549  3.7727 -0.7376  0.0082
 1869TIP3    H227023   2.302   3.473   2.403 -0.5586 -1.7708  0.9460
 1870TIP3   OH227024   4.433   6.298  12.882  0.0056 -0.3978  0.0822
 1870TIP3    H127025   4.343   6.311  12.914  0.0673 -1.5000  0.7377
 1870TIP3    H227026   4.477   6.381  12.903 -1.3559  1.0010 -2.1347
 1871TIP3   OH227027   3.727   1.223   3.699  0.5042  0.1900  0.1822
 1871TIP3    H127028   3.696   1.282   3.630  1.6048 -2.7956 -3.1694
 1871TIP3    H227029   3.814   1.196   3.669  0.9049 -1.5137  2.6303
 1872TIP3   OH227030   6.656   5.978   4.960 -0.3548 -0.2351 -0.3382
 1872TIP3    H127031   6.621   6.022   5.037 -1.4927  0.0355 -0.9882
 1872TIP3    H227032   6.588   5.916   4.935  0.9751 -2.0103  0.2199
 1873TIP3   OH227033   6.087   4.936   0.688  0.0157  0.4224 -0.0931
 1873TIP3    H127034   6.088   5.023   0.649 -0.8183  0.8021  0.6651
 1873TIP3    H227035   6.177   4.905   0.682 -0.0986  0.4285 -2.3157
 1874TIP3   OH227036   0.315   2.519   3.158  0.0358 -0.1070  0.1870
 1874TIP3    H127037   0.246   2.576   3.124 -1.1980 -3.0676 -2.8059
 1874TIP3    H227038   0.395   2.572   3.154 -1.2158  1.7637 -1.3204
 1875TIP3   OH227039   3.981   3.761  12.178 -0.1690  0.5770  0.7604
 1875TIP3    H127040   3.986   3.736  12.086 -1.1439 -0.2783  0.9265
 1875TIP3    H227041   3.915   3.702  12.216 -0.8091  1.8430  1.6945
 1876TIP3   OH227042   5.099   6.124   2.359 -0.5930 -0.0716  0.5797
 1876TIP3    H127043   5.132   6.213   2.353 -1.5707  0.4327  2.0883
 1876TIP3    H227044   5.172   6.069   2.329  0.1394  1.2010 -0.0442
 1877TIP3   OH227045   4.790   4.538   1.347 -0.3311 -0.0488  0.5684
 1877TIP3    H127046   4.724   4.607   1.344 -0.6624 -0.3918 -0.9560
 1877TIP3    H227047   4.741   4.457   1.358 -0.0335 -0.1575  1.1217
 1878TIP3   OH227048   2.388   3.799   0.230  0.2594 -0.0732 -0.3473
 1878TIP3    H127049   2.428   3.717   0.202  1.1676  0.3260 -0.2620
 1878TIP3    H227050   2.440   3.827   0.306 -0.1636  0.4744 -0.2528
 1879TIP3   OH227051   3.013   6.170   0.248  0.4641 -0.3139 -0.1017
 1879TIP3    H127052   3.068   6.237   0.287 -1.2483  1.0410  0.1164
 1879TIP3    H227053   3.017   6.097   0.310  0.9649  0.2710  0.5633
 1880TIP3   OH227054   6.486   2.977  10.843  0.5480  0.8720 -0.6325
 1880TIP3    H127055   6.390   2.978  10.842  0.5050  1.0257  1.2184
 1880TIP3    H227056   6.511   3.062  10.878  1.2698 -0.0308  1.1497
 1881TIP3   OH227057   0.252   5.524  12.850 -0.0544 -0.3121 -0.2623
 1881TIP3    H127058   0.178   5.570  12.810 -1.2115 -1.3086  0.6566
 1881TIP3    H227059   0.277   5.457  12.786 -1.3672 -1.3667  0.2830
 1882TIP3   OH227060   2.098   2.287  16.554 -0.0616  0.7595 -0.2788
 1882TIP3    H127061   2.101   2.313  16.461 -0.4896 -0.5308 -0.6659
 1882TIP3    H227062   2.027   2.223  16.559  0.3685  0.3458  0.8288
 1883TIP3   OH227063   3.117   0.195   4.519 -0.0216 -0.2374  0.2917
 1883TIP3    H127064   3.190   0.256   4.508  0.1273 -0.6282 -1.1607
 1883TIP3    H227065   3.043   0.249   4.547  0.1813  0.5663 -0.6907
 1884TIP3   OH227066   3.066   3.742   5.054 -0.4297  0.0288 -0.0517
 1884TIP3    H127067   2.982   3.754   5.011 -1.0470  0.9938  1.3394
 1884TIP3    H227068   3.070   3.812   5.120  0.5699 -1.2044  1.2806
 1885TIP3   OH227069   2.778   5.239  11.473  0.3544  0.6090 -0.0625
 1885TIP3    H127070   2.687   5.269  11.475  0.0418 -0.2933 -0.3018
 1885TIP3    H227071   2.798   5.228  11.380  0.3552 -0.2189  0.0313
 1886TIP3   OH227072   5.496   2.067   0.502  0.0155 -0.1488 -0.7418
 1886TIP3    H127073   5.497   1.974   0.477 -0.8870 -0.5712  0.6775
 1886TIP3    H227074   5.519   2.067   0.594  1.2045  1.1787 -0.9990
 1887TIP3   OH227075   1.817   1.365   1.712  0.1381 -0.4204 -0.2210
 1887TIP3    H127076   1.775   1.324   1.637 -1.2377  0.4747  0.0184
 1887TIP3    H227077   1.904   1.325   1.717 -0.4892 -1.9337 -1.0677
 1888TIP3   OH227078   1.059   5.626  16.499 -0.4477  0.1008  0.4056
 1888TIP3    H127079   1.093   5.561  16.438 -0.3532 -0.4484  1.0323
 1888TIP3    H227080   1.011   5.575  16.565  1.9032  0.3452  2.4662
 1889TIP3   OH227081   5.826   4.862  15.337 -0.5389 -0.4618 -0.4508
 1889TIP3    H127082   5.756   4.800  15.318 -0.1713 -0.7205 -0.9854
 1889TIP3    H227083   5.833   4.916  15.259 -1.4575  0.8559  0.3434
 1890TIP3   OH227084   3.153   0.152   6.203  0.2032 -0.2347 -0.3283
 1890TIP3    H127085   3.133   0.060   6.184  0.0667 -0.2273 -0.2211
 1890TIP3    H227086   3.118   0.200   6.128 -2.9074  0.0905  1.1728
 1891TIP3   OH227087   4.816   0.067  10.803  0.1354  0.7504  0.6694
 1891TIP3    H127088   4.874  -0.005  10.781 -0.8866 -0.3301  1.3960
 1891TIP3    H227089   4.758   0.032  10.870 -0.9255  1.9897  0.4494
 1892TIP3   OH227090   5.483   0.494  13.944 -0.7202  0.5483  0.3988
 1892TIP3    H127091   5.422   0.535  13.883 -0.6802 -0.3997 -0.3007
 1892TIP3    H227092   5.539   0.439  13.888  0.4596  1.0093  1.0757
 1893TIP3   OH227093   3.370   3.947   5.419 -0.0158 -0.2588 -0.2843
 1893TIP3    H127094   3.410   4.002   5.486  1.2314 -0.3646 -0.9144
 1893TIP3    H227095   3.317   4.007   5.366 -0.0780  0.0239  0.0991
 1894TIP3   OH227096   2.467   2.741   3.910  0.0300  0.0225  0.5471
 1894TIP3    H127097   2.452   2.826   3.951  1.9777  0.7121 -0.0786
 1894TIP3    H227098   2.547   2.752   3.859 -1.5828 -1.1346 -2.5298
 1895TIP3   OH227099   1.794   2.331  15.603 -0.1512 -0.6498  0.3695
 1895TIP3    H127100   1.756   2.244  15.592  0.4453 -0.9761  0.8058
 1895TIP3    H227101   1.722   2.385  15.635 -1.2095 -0.3395 -2.2510
 1896TIP3   OH227102   4.861   4.725  15.135  0.0449 -0.1079  0.0964
 1896TIP3    H127103   4.935   4.674  15.168 -1.0350 -1.4522  0.5399
 1896TIP3    H227104   4.806   4.661  15.090 -0.7807  0.8873 -0.3600
 1897TIP3   OH227105   5.519   6.682   4.759  0.3241 -0.5108  0.2460
 1897TIP3    H127106   5.493   6.767   4.723  0.5000 -0.0057  1.2516
 1897TIP3    H227107   5.452   6.662   4.824  1.5121  0.0155  1.6932
 1898TIP3   OH227108   0.302   4.550  13.827  0.0255  0.0718  0.2436
 1898TIP3    H127109   0.385   4.577  13.787  0.8977 -1.2949  1.0486
 1898TIP3    H227110   0.257   4.503  13.757  1.4551 -2.1328  0.6783
 1899TIP3   OH227111   0.883   6.083   3.846  0.4853  0.0480  0.6480
 1899TIP3    H127112   0.921   6.157   3.893 -0.7830  1.1775 -0.0259
 1899TIP3    H227113   0.820   6.123   3.785 -1.2084 -1.6544  1.1744
 1900TIP3   OH227114   3.088   1.897  16.199  0.4787  0.2959  0.4614
 1900TIP3    H127115   3.146   1.973  16.189  0.7555  0.0925  0.5217
 1900TIP3    H227116   3.145   1.827  16.231  0.8563 -0.7770 -2.2394
 1901TIP3   OH227117   3.237   6.086   2.393 -0.0586  0.2837 -0.1985
 1901TIP3    H127118   3.146   6.064   2.373 -0.1978  2.3705 -2.2811
 1901TIP3    H227119   3.263   6.146   2.324  3.6768 -1.9541 -1.0430
 1902TIP3   OH227120   4.109   0.278   2.059  0.2079 -0.0717 -0.1020
 1902TIP3    H127121   4.015   0.295   2.059  0.0570 -0.8672 -0.8847
 1902TIP3    H227122   4.116   0.183   2.066  0.9579 -0.0161 -0.0315
 1903TIP3   OH227123   5.672   6.640   1.308 -0.1211  0.2829  0.2481
 1903TIP3    H127124   5.663   6.575   1.378  1.0229  0.5223  0.6374
 1903TIP3    H227125   5.582   6.668   1.291 -0.3906  0.6783  2.0762
 1904TIP3   OH227126   6.590   5.445  14.073 -0.4711  0.1340 -0.3380
 1904TIP3    H127127   6.593   5.498  14.152 -1.3726 -0.1558 -0.0972
 1904TIP3    H227128   6.599   5.508  14.001  0.5686  0.3759 -0.0182
 1905TIP3   OH227129   0.343   1.010   1.283 -0.0621 -0.5023  0.7248
 1905TIP3    H127130   0.427   0.968   1.303 -0.3736 -2.1681 -1.1302
 1905TIP3    H227131   0.322   0.981   1.194 -1.0759  2.4738 -0.1189
 1906TIP3   OH227132   2.397   2.750  11.665  0.2865  0.3050  0.3525
 1906TIP3    H127133   2.352   2.759  11.749  0.4805  2.1971  0.2946
 1906TIP3    H227134   2.331   2.770  11.600  0.4450  0.0101  0.0978
 1907TIP3   OH227135   2.199   5.206  12.667  0.8676  0.6007  0.1152
 1907TIP3    H127136   2.176   5.223  12.759  2.9435 -0.5687  0.9150
 1907TIP3    H227137   2.270   5.268  12.649  0.6482  0.6379 -0.6257
 1908TIP3   OH227138   0.563   1.199   4.040 -0.0703 -0.7143 -0.3164
 1908TIP3    H127139   0.499   1.146   3.994  1.3222 -0.5031 -2.6647
 1908TIP3    H227140   0.620   1.135   4.084 -1.3926 -0.9173  1.2013
 1909TIP3   OH227141   3.900   2.833   1.088 -0.2093 -0.4985 -0.1524
 1909TIP3    H127142   3.844   2.844   1.011  0.4505 -2.4051 -0.9561
 1909TIP3    H227143   3.987   2.818   1.053 -0.0345 -2.1865  0.9163
 1910TIP3   OH227144   4.469   1.830   1.645  0.2475 -0.6279 -0.6371
 1910TIP3    H127145   4.451   1.910   1.597  0.8388  0.7920  1.3651
 1910TIP3    H227146   4.390   1.816   1.698  0.3446 -1.0892 -0.6089
 1911TIP3   OH227147   1.523   6.500   6.029 -0.1193 -0.0247 -0.0578
 1911TIP3    H127148   1.524   6.595   6.023 -0.5802 -0.0560 -0.6723
 1911TIP3    H227149   1.438   6.474   5.994  0.1679 -0.6861 -0.2886
 1912TIP3   OH227150   4.906   0.515  12.474 -0.4374 -0.1573 -0.0182
 1912TIP3    H127151   4.991   0.475  12.495 -0.5621  0.5402  2.0110
 1912TIP3    H227152   4.855   0.507  12.554 -1.6204  1.1375 -0.6016
 1913TIP3   OH227153   3.996   3.200  14.263 -0.0284  0.3586  0.4915
 1913TIP3    H127154   3.933   3.161  14.324 -1.7846  0.7675 -0.9610
 1913TIP3    H227155   3.960   3.182  14.176  1.4535  1.3350 -0.3742
 1914TIP3   OH227156   2.752   0.460   3.024  0.3610  0.1966  0.3543
 1914TIP3    H127157   2.750   0.443   3.119 -2.3410  1.5792  0.6618
 1914TIP3    H227158   2.771   0.375   2.985 -0.1272 -0.7748  2.1044
 1915TIP3   OH227159   3.302   2.884  14.969  0.2295  0.1375 -0.7296
 1915TIP3    H127160   3.359   2.836  15.028 -0.9307 -1.1988 -0.6424
 1915TIP3    H227161   3.304   2.833  14.887  0.1189  0.7487 -1.1179
 1916TIP3   OH227162   1.150   5.113  12.917 -0.2603 -0.0691  0.5390
 1916TIP3    H127163   1.174   5.023  12.938 -0.3510 -0.6262 -1.5809
 1916TIP3    H227164   1.067   5.106  12.870  0.7593  0.8714 -1.5264
 1917TIP3   OH227165   3.124   1.520   2.074 -0.0673 -0.0261 -0.0494
 1917TIP3    H127166   3.191   1.537   2.140 -1.1257 -0.8434  1.2856
 1917TIP3    H227167   3.068   1.597   2.076 -1.4929 -1.0195  1.8157
 1918TIP3   OH227168   0.961   1.595   2.667  0.1049  0.2579  0.1928
 1918TIP3    H127169   1.029   1.583   2.601 -0.2512  2.4777 -0.6678
 1918TIP3    H227170   0.900   1.657   2.628 -2.6271 -1.8843  0.8153
 1919TIP3   OH227171   2.829   0.355   1.519  0.1371  0.3924  0.1961
 1919TIP3    H127172   2.809   0.438   1.475 -0.0974  1.2216  1.7911
 1919TIP3    H227173   2.748   0.331   1.564  0.5319 -0.1214  0.6478
 1920TIP3   OH227174   6.552   5.926   3.178  0.4909  0.0934 -0.0786
 1920TIP3    H127175   6.637   5.970   3.172  1.0054 -0.8969 -0.1623
 1920TIP3    H227176   6.542   5.906   3.271  1.5887 -2.1549 -0.4021
 1921TIP3   OH227177   3.523   2.633   6.171  0.6459 -0.2820 -0.3106
 1921TIP3    H127178   3.605   2.625   6.121  1.0940 -0.9786  0.5049
 1921TIP3    H227179   3.545   2.600   6.258 -0.5166 -0.5006 -0.0827
 1922TIP3   OH227180   4.493   6.106  11.817 -0.4306 -0.4392  0.5140
 1922TIP3    H127181   4.422   6.050  11.848 -0.5995 -0.3824  0.2384
 1922TIP3    H227182   4.573   6.055  11.832 -0.3563  0.1388  2.3449
 1923TIP3   OH227183   1.612   0.301  17.064 -0.4099  0.1316 -0.3384
 1923TIP3    H127184   1.530   0.342  17.093 -0.5584 -0.8908  0.8165
 1923TIP3    H227185   1.616   0.318  16.970 -1.1041  1.6202 -0.1323
 1924TIP3   OH227186   2.606   0.756  11.879  0.0707 -0.7403 -0.0494
 1924TIP3    H127187   2.662   0.787  11.808  0.7150  1.7508  1.3835
 1924TIP3    H227188   2.667   0.736  11.950 -0.7003  0.5232  1.0270
 1925TIP3   OH227189   0.844   0.502   2.047 -0.4577 -0.2935  0.6935
 1925TIP3    H127190   0.810   0.442   2.113  1.3427 -0.0737  1.8869
 1925TIP3    H227191   0.939   0.496   2.056  0.0093 -1.8235 -3.3023
 1926TIP3   OH227192   6.354   2.282  14.834 -0.2935 -0.1491 -0.3142
 1926TIP3    H127193   6.430   2.339  14.824 -0.4420  0.2360  0.5766
 1926TIP3    H227194   6.385   2.211  14.890  0.2699 -1.7243 -2.5126
 1927TIP3   OH227195   0.840   3.767  10.929 -0.3688  0.8105 -0.1248
 1927TIP3    H127196   0.772   3.811  10.878 -0.0483  4.2315  2.0623
 1927TIP3    H227197   0.795   3.693  10.970 -1.4551  0.0739 -2.4779
 1928TIP3   OH227198   4.205   2.573  13.507 -0.9209  0.0233  0.0003
 1928TIP3    H127199   4.272   2.627  13.465  1.0158 -1.0041  1.6528
 1928TIP3    H227200   4.162   2.528  13.434  1.7323 -1.0284 -1.0197
 1929TIP3   OH227201   0.728   2.332   0.068  0.2550  0.5209 -0.4149
 1929TIP3    H127202   0.722   2.257   0.128  0.3689  1.7316  1.1924
 1929TIP3    H227203   0.729   2.293  -0.019 -1.7404 -1.2472  0.2663
 1930TIP3   OH227204   2.146   3.780   3.691  0.3493  0.0517 -0.4792
 1930TIP3    H127205   2.180   3.864   3.659  0.7420 -0.4513 -1.4004
 1930TIP3    H227206   2.171   3.778   3.784  1.6765  0.2749 -0.8181
 1931TIP3   OH227207   0.574   0.023  12.226 -0.0352  0.1077  0.4024
 1931TIP3    H127208   0.485   0.026  12.262 -0.3806  1.1148 -0.4741
 1931TIP3    H227209   0.582  -0.063  12.186 -0.5466 -0.0641  0.6658
 1932TIP3   OH227210   6.568   2.204   5.103  0.0711 -0.3049 -0.3327
 1932TIP3    H127211   6.506   2.145   5.148  0.0714 -1.3328 -1.6201
 1932TIP3    H227212   6.654   2.175   5.132  0.1219 -1.6551 -1.7485
 1933TIP3   OH227213   3.199   4.538  14.803 -0.3144  0.4242  0.0452
 1933TIP3    H127214   3.139   4.602  14.842 -1.4599 -0.7155  0.2096
 1933TIP3    H227215   3.257   4.512  14.874  0.3342  1.4434 -0.0852
 1934TIP3   OH227216   1.207   6.319   4.819 -0.0075 -0.0280  0.1500
 1934TIP3    H127217   1.162   6.335   4.736 -0.2945  1.3175  0.5388
 1934TIP3    H227218   1.182   6.230   4.843  0.2958 -0.5285 -1.3320
 1935TIP3   OH227219   4.605   3.068  14.670 -0.2376 -0.1753  0.2056
 1935TIP3    H127220   4.550   2.994  14.643  2.2911 -1.8308 -0.8389
 1935TIP3    H227221   4.619   3.055  14.764  1.2339 -1.8833 -0.1950
 1936TIP3   OH227222   2.406   5.633   1.347  0.4803  0.0816  0.0750
 1936TIP3    H127223   2.438   5.690   1.417  2.5675 -1.8202  0.7716
 1936TIP3    H227224   2.380   5.694   1.277  0.2020  1.9442  1.7091
 1937TIP3   OH227225   5.861   6.675   2.824  0.4716  0.4268  0.4404
 1937TIP3    H127226   5.815   6.619   2.762 -0.4983 -0.8632  2.2273
 1937TIP3    H227227   5.792   6.726   2.867  0.6763 -0.9975  2.6339
 1938TIP3   OH227228   3.486   5.755  16.829  0.4180  0.0170  0.0420
 1938TIP3    H127229   3.507   5.835  16.781 -0.9967 -0.1796 -0.9499
 1938TIP3    H227230   3.421   5.783  16.894  2.4269  0.3157  2.0510
 1939TIP3   OH227231   5.513   2.913  13.843  0.3983 -0.0834  0.4954
 1939TIP3    H127232   5.436   2.937  13.895  0.3691  1.5970 -0.2575
 1939TIP3    H227233   5.569   2.866  13.904 -0.1596  0.7845  1.7295
 1940TIP3   OH227234   0.130   4.421  13.200 -0.2306 -0.1593 -0.3613
 1940TIP3    H127235   0.191   4.474  13.251 -0.4385  0.6816 -0.9662
 1940TIP3    H227236   0.102   4.352  13.260 -0.0655  0.4993  0.4877
 1941TIP3   OH227237   3.718   2.784   5.540 -0.1763 -0.6094 -0.1899
 1941TIP3    H127238   3.736   2.841   5.466  0.3611 -1.5353 -0.7836
 1941TIP3    H227239   3.801   2.779   5.588 -0.6435  0.3751  0.7763
 1942TIP3   OH227240   6.756   4.429  15.583 -0.0338 -0.6139  0.1923
 1942TIP3    H127241   6.749   4.377  15.663  1.5674 -0.8742  0.1855
 1942TIP3    H227242   6.690   4.498  15.593 -2.5997 -2.8472 -0.0094
 1943TIP3   OH227243   3.109   6.602   0.077  0.2762 -0.1587  0.1901
 1943TIP3    H127244   3.020   6.585   0.108  0.9291 -1.2375  1.5932
 1943TIP3    H227245   3.150   6.653   0.146  0.1353  2.3297 -1.4357
 1944TIP3   OH227246   3.795   0.677   0.134  0.0462 -0.6143 -0.2141
 1944TIP3    H127247   3.720   0.724   0.170 -0.2069 -0.7804 -0.5259
 1944TIP3    H227248   3.860   0.678   0.205  0.5756  1.3887 -0.6388
 1945TIP3   OH227249   5.157   3.864  12.680  0.1013 -0.0734 -0.1490
 1945TIP3    H127250   5.150   3.882  12.774 -0.2778  0.0906 -0.2035
 1945TIP3    H227251   5.069   3.835  12.655  0.2695 -0.3636 -0.4019
 1946TIP3   OH227252   6.314   6.016   3.062 -0.0325  0.4204  0.3288
 1946TIP3    H127253   6.244   6.034   3.124  0.4243 -2.4550  1.8666
 1946TIP3    H227254   6.392   6.001   3.116  0.9340  0.0895 -1.0800
 1947TIP3   OH227255   1.638   2.125   2.269  0.1497  0.6287 -0.0839
 1947TIP3    H127256   1.676   2.079   2.194  2.0404  0.1734  1.1040
 1947TIP3    H227257   1.556   2.079   2.286  0.2725 -0.0061 -1.1170
 1948TIP3   OH227258   6.741   1.997   2.856  0.0877 -0.7236 -0.7208
 1948TIP3    H127259   6.753   1.902   2.862 -1.5736 -0.9457 -0.5153
 1948TIP3    H227260   6.784   2.021   2.773  2.0319 -1.3518  0.0414
 1949TIP3   OH227261   3.266   5.021  14.292 -0.4495 -0.5791  0.3138
 1949TIP3    H127262   3.183   5.043  14.250  0.6457  1.6460 -0.8545
 1949TIP3    H227263   3.300   5.105  14.324  2.4110 -1.0055 -1.3056
 1950TIP3   OH227264   6.749   0.094   2.899  0.1542  0.0011  0.1177
 1950TIP3    H127265   6.809   0.097   2.825  0.2062  0.9936  0.1857
 1950TIP3    H227266   6.714   0.183   2.905 -1.2676 -0.5276  0.1229
 1951TIP3   OH227267   5.048   4.399  14.132  0.3257 -0.1202  0.3052
 1951TIP3    H127268   4.978   4.341  14.102 -1.1462  2.0796 -0.8207
 1951TIP3    H227269   5.073   4.449  14.055  4.8743 -2.2737  0.0751
 1952TIP3   OH227270   1.278   3.185   4.155 -0.5055 -0.1235 -0.2452
 1952TIP3    H127271   1.305   3.094   4.143  0.4547  0.1095  0.0815
 1952TIP3    H227272   1.320   3.232   4.083 -0.6079  0.1383 -0.1352
 1953TIP3   OH227273   4.530   5.274  15.072  0.0515 -0.1921  0.3650
 1953TIP3    H127274   4.624   5.287  15.056 -0.1801  1.1917 -0.0072
 1953TIP3    H227275   4.519   5.292  15.165  0.0613  0.2721  0.2781
 1954TIP3   OH227276   0.609   0.997  14.241 -0.4201  0.1529 -0.4351
 1954TIP3    H127277   0.684   1.022  14.187  0.2410  1.1138  0.8715
 1954TIP3    H227278   0.534   1.039  14.200  0.2780  2.0570  0.1693
 1955TIP3   OH227279   0.827   4.698  14.927  1.0396  0.1041  0.0257
 1955TIP3    H127280   0.888   4.648  14.982  2.0256  0.2321 -0.9073
 1955TIP3    H227281   0.829   4.786  14.965 -0.8964 -0.5369  1.8297
 1956TIP3   OH227282   2.654   0.355  11.216 -0.6812  0.0041 -0.1838
 1956TIP3    H127283   2.727   0.298  11.238  0.5967  1.7065  0.2311
 1956TIP3    H227284   2.654   0.358  11.120 -2.2227 -2.4092 -0.3403
 1957TIP3   OH227285   1.874   3.070  13.323 -0.0498 -0.2470 -0.0512
 1957TIP3    H127286   1.928   3.013  13.377  0.3524  1.5556  1.5817
 1957TIP3    H227287   1.936   3.114  13.265  0.1693  1.0107  1.0724
 1958TIP3   OH227288   1.387   2.044  16.670 -0.7019  0.8451 -0.3143
 1958TIP3    H127289   1.444   2.102  16.719  0.1978 -0.8458  0.7592
 1958TIP3    H227290   1.422   2.044  16.581 -1.6797  3.1036 -0.7448
 1959TIP3   OH227291   2.904   2.095   6.246  0.0651 -0.1937  0.0496
 1959TIP3    H127292   2.918   2.189   6.257 -0.8853  0.2809 -2.3037
 1959TIP3    H227293   2.820   2.078   6.288 -0.2534  0.2150 -0.4167
 1960TIP3   OH227294   5.761   5.704   6.221 -0.1020  0.8947  0.2001
 1960TIP3    H127295   5.794   5.654   6.296  0.6022 -0.6350 -1.0650
 1960TIP3    H227296   5.838   5.748   6.185  0.2946 -1.0718 -1.5608
 1961TIP3   OH227297   1.083   3.026   2.763 -0.3381  0.4430 -0.3464
 1961TIP3    H127298   1.003   3.079   2.758  0.0229  0.9326 -0.9530
 1961TIP3    H227299   1.106   3.007   2.672 -0.2505 -0.4500 -0.1508
 1962TIP3   OH227300   1.032   2.183   5.953  0.2318 -0.0113  0.6240
 1962TIP3    H127301   1.047   2.217   5.864 -1.0227 -1.0772 -0.0320
 1962TIP3    H227302   1.076   2.098   5.954 -0.8625 -0.6026  0.5537
 1963TIP3   OH227303   6.359   6.390  14.444 -0.6822 -0.1449  0.7065
 1963TIP3    H127304   6.330   6.372  14.533 -0.4497  0.3696  0.8874
 1963TIP3    H227305   6.366   6.485  14.439 -1.6716 -0.1006 -0.1709
 1964TIP3   OH227306   2.971   3.888  15.095  0.4269  0.0124 -0.5898
 1964TIP3    H127307   2.979   3.911  15.003  1.1513 -0.1696 -0.5833
 1964TIP3    H227308   3.058   3.904  15.132  0.0224  0.5278  0.1695
 1965TIP3   OH227309   2.500   0.502  13.135 -0.1292  0.1631 -0.0164
 1965TIP3    H127310   2.531   0.465  13.052 -1.4647  1.2705 -1.0558
 1965TIP3    H227311   2.489   0.426  13.192  0.9304 -0.6183 -0.7990
 1966TIP3   OH227312   3.629   5.262   5.795  0.2152  0.2420  0.1353
 1966TIP3    H127313   3.595   5.305   5.717 -0.0535 -1.6037 -0.8298
 1966TIP3    H227314   3.722   5.284   5.797 -0.0460  1.4167  0.0915
 1967TIP3   OH227315   6.357   6.378   1.627  0.5135 -0.0954 -0.1540
 1967TIP3    H127316   6.366   6.327   1.547 -1.0359  0.7778 -0.9282
 1967TIP3    H227317   6.423   6.447   1.619  0.6671 -0.2801 -0.4704
 1968TIP3   OH227318   3.123   3.780   4.566 -0.1670 -0.3199 -0.5752
 1968TIP3    H127319   3.054   3.751   4.507 -1.1019  0.3263  0.1666
 1968TIP3    H227320   3.188   3.711   4.562 -1.1878 -1.3034 -0.7434
 1969TIP3   OH227321   6.624   2.739   4.636 -0.2012 -0.0177  0.0945
 1969TIP3    H127322   6.701   2.712   4.586  0.0751  2.2468 -0.8370
 1969TIP3    H227323   6.659   2.766   4.721 -0.0090  0.4757 -0.1328
 1970TIP3   OH227324   1.681   6.033  13.265 -0.2179  0.2733 -0.4043
 1970TIP3    H127325   1.746   5.968  13.239  0.3151  0.9375 -0.7669
 1970TIP3    H227326   1.672   6.021  13.360 -2.1089 -2.1058 -0.7692
 1971TIP3   OH227327   5.979   3.141   4.164 -0.2418  0.3289 -0.0860
 1971TIP3    H127328   5.935   3.080   4.105 -0.8569 -0.2961  1.0115
 1971TIP3    H227329   5.922   3.148   4.240 -0.3691  2.5672 -0.3228
 1972TIP3   OH227330   4.819   2.503   5.518  0.2396 -0.2031 -0.2113
 1972TIP3    H127331   4.770   2.440   5.571 -0.7012  0.9875  0.3811
 1972TIP3    H227332   4.752   2.557   5.477  1.0341  0.4208 -0.7108
 1973TIP3   OH227333   4.903   1.478   5.547  0.0990  0.4432 -0.5278
 1973TIP3    H127334   4.954   1.513   5.621 -0.9050  1.0352 -0.0986
 1973TIP3    H227335   4.827   1.535   5.541 -1.0586 -1.0318 -0.4940
 1974TIP3   OH227336   0.829   3.182  15.812 -0.0411 -0.1033 -0.7496
 1974TIP3    H127337   0.795   3.153  15.727 -1.9727 -1.3825  0.3746
 1974TIP3    H227338   0.830   3.278  15.806 -1.6843 -0.1015 -1.7038
 1975TIP3   OH227339   2.936   1.982  16.429 -0.2884 -0.3891  0.1060
 1975TIP3    H127340   2.851   2.001  16.389 -0.9545 -1.7743  0.7959
 1975TIP3    H227341   2.987   1.942  16.358 -0.4068 -0.0947 -0.1488
 1976TIP3   OH227342   3.472   0.605   5.386  0.6849 -0.1532  0.0537
 1976TIP3    H127343   3.379   0.584   5.395  0.8106 -0.2942  1.1234
 1976TIP3    H227344   3.517   0.529   5.424  1.1815  1.1871  2.3257
 1977TIP3   OH227345   1.207   3.062  13.173  0.2258 -0.3509 -0.1019
 1977TIP3    H127346   1.255   3.008  13.237  0.0617  0.6490  0.8955
 1977TIP3    H227347   1.134   3.099  13.223 -0.5496 -0.4319 -1.1614
 1978TIP3   OH227348   1.474   3.389  16.585  0.0434 -0.1495  0.5414
 1978TIP3    H127349   1.480   3.367  16.678 -0.8603 -0.4968  0.5387
 1978TIP3    H227350   1.403   3.333  16.552  0.6318 -0.3367 -0.4510
 1979TIP3   OH227351   0.954   2.949   3.058 -0.4508  0.2664 -0.6592
 1979TIP3    H127352   0.910   2.949   3.143  1.2509 -1.3210  0.2909
 1979TIP3    H227353   0.988   2.860   3.049  0.7501  0.8465 -2.2851
 1980TIP3   OH227354   6.075   5.030  14.630 -0.3449 -0.3910 -0.2310
 1980TIP3    H127355   5.989   4.991  14.646 -0.6023  0.0881 -0.4393
 1980TIP3    H227356   6.060   5.124  14.636  0.4883 -0.3173  1.4181
 1981TIP3   OH227357   3.452   6.021   3.529  0.2023  0.0234 -0.3179
 1981TIP3    H127358   3.372   6.072   3.520  1.0628  1.0990 -2.6427
 1981TIP3    H227359   3.457   5.969   3.449  3.2155  2.1600 -1.7037
 1982TIP3   OH227360   4.004   1.300   0.804  1.1447 -0.3730 -0.3309
 1982TIP3    H127361   4.098   1.318   0.806  1.0993 -0.0744 -0.6934
 1982TIP3    H227362   3.975   1.312   0.894  1.3522  0.1217 -0.3275
 1983TIP3   OH227363   5.032   1.203   1.545 -0.4495 -0.2333  0.3746
 1983TIP3    H127364   5.086   1.162   1.477  1.1291  1.0140  0.8197
 1983TIP3    H227365   4.981   1.269   1.498 -0.6031 -0.4999  0.1601
 1984TIP3   OH227366   4.159   1.159   2.990 -0.8758  0.4589  0.0478
 1984TIP3    H127367   4.090   1.099   2.962 -1.4878  0.1331  2.0827
 1984TIP3    H227368   4.240   1.122   2.954 -1.3063 -1.3002  0.7950
 1985TIP3   OH227369   1.752   2.409  15.050  0.1826 -0.1325  0.4015
 1985TIP3    H127370   1.789   2.498  15.045 -0.3405  0.0187 -1.7401
 1985TIP3    H227371   1.777   2.378  15.137  4.0525  0.5335 -0.2960
 1986TIP3   OH227372   0.092   3.582   0.347  0.5145  0.2610 -0.3923
 1986TIP3    H127373   0.083   3.675   0.365  0.7594  0.1865  0.1323
 1986TIP3    H227374   0.069   3.573   0.254 -0.1568  0.7404 -0.2789
 1987TIP3   OH227375   2.398   4.676  12.577  0.5021  0.1420  0.1063
 1987TIP3    H127376   2.370   4.597  12.624 -3.0399  0.1665 -1.6265
 1987TIP3    H227377   2.483   4.653  12.540 -0.2821 -2.8044 -0.1060
 1988TIP3   OH227378   6.471   5.429  11.781  0.8081 -0.3515  0.1399
 1988TIP3    H127379   6.532   5.495  11.813  0.8742 -0.3439 -0.0016
 1988TIP3    H227380   6.519   5.383  11.712  0.9279 -0.8436  0.5392
 1989TIP3   OH227381   3.520   0.355  16.657 -0.2313 -0.0068 -0.4320
 1989TIP3    H127382   3.524   0.272  16.704  2.0031 -0.0331 -0.5914
 1989TIP3    H227383   3.495   0.331  16.567  0.0235 -0.4663 -0.3823
 1990TIP3   OH227384   3.316   4.076   0.221 -0.3784  0.2563  0.0070
 1990TIP3    H127385   3.220   4.076   0.226 -0.3207 -0.6775  1.9550
 1990TIP3    H227386   3.340   4.168   0.223 -1.2159  0.4778  0.7392
 1991TIP3   OH227387   1.189   5.686   6.214 -0.2089 -0.0737 -0.0187
 1991TIP3    H127388   1.264   5.716   6.265  0.0653 -0.8984  0.0693
 1991TIP3    H227389   1.114   5.730   6.254  0.1260  0.0997  0.4233
 1992TIP3   OH227390   1.099   0.554   4.316  0.2713 -0.2212  0.2056
 1992TIP3    H127391   1.144   0.521   4.393  1.9478 -1.7889 -1.3421
 1992TIP3    H227392   1.169   0.574   4.254 -1.0314  0.6809 -1.0467
 1993TIP3   OH227393   4.711   4.639  13.095 -0.4270  0.3753  0.0552
 1993TIP3    H127394   4.742   4.589  13.169 -1.7833  1.0295  1.1046
 1993TIP3    H227395   4.615   4.633  13.099 -0.5393 -0.1616 -2.0593
 1994TIP3   OH227396   2.823   4.322  16.163 -0.0737  0.3378 -0.5232
 1994TIP3    H127397   2.795   4.230  16.162  0.7862  0.0519  0.3545
 1994TIP3    H227398   2.918   4.317  16.153  0.1042  1.0657  0.6773
 1995TIP3   OH227399   5.770   0.980   6.677  0.2638 -0.3104  0.2973
 1995TIP3    H127400   5.842   1.041   6.670  0.1645 -0.2301 -0.0099
 1995TIP3    H227401   5.716   0.996   6.600 -1.6777  1.6794  1.9242
 1996TIP3   OH227402   5.467   2.267   5.259 -0.1509 -0.4171  0.3344
 1996TIP3    H127403   5.519   2.348   5.256 -1.5952  0.5282 -0.5582
 1996TIP3    H227404   5.435   2.262   5.348  2.1222 -1.5032  1.1738
 1997TIP3   OH227405   3.135   3.652  14.073  0.0366 -0.4083  0.3088
 1997TIP3    H127406   3.078   3.590  14.119 -0.6393 -0.2587 -0.3053
 1997TIP3    H227407   3.156   3.719  14.139 -1.9133  0.4664  0.1239
 1998TIP3   OH227408   1.541   3.327  12.952  0.2809  0.3759 -0.1238
 1998TIP3    H127409   1.539   3.249  13.008 -1.7296 -0.0901 -0.7521
 1998TIP3    H227410   1.527   3.400  13.012  0.9671  0.1526  0.3204
 1999TIP3   OH227411   1.249   0.955  16.238  0.7509  0.1284 -0.6279
 1999TIP3    H127412   1.273   0.869  16.271  2.5201  0.6331 -0.4955
 1999TIP3    H227413   1.206   0.938  16.155 -0.5433 -0.9596  0.2178
 2000TIP3   OH227414   5.927   2.401   3.110 -0.0972 -0.0334 -0.1505
 2000TIP3    H127415   5.975   2.379   3.030 -1.0241 -0.4134 -0.6091
 2000TIP3    H227416   5.984   2.371   3.181  1.6930  2.1210 -0.5526
 2001TIP3   OH227417   3.777   1.845  12.869  0.4953 -0.0786  0.0780
 2001TIP3    H127418   3.784   1.766  12.816  2.1260 -0.5257  0.8719
 2001TIP3    H227419   3.756   1.915  12.807  0.6439 -0.8708 -0.8815
 2002TIP3   OH227420   0.887   4.609  12.968  0.2834  0.1452 -0.9357
 2002TIP3    H127421   0.873   4.613  13.063  1.1294 -0.7450 -0.7527
 2002TIP3    H227422   0.840   4.685  12.934  0.2777  0.6949  0.2300
 2003TIP3   OH227423   6.134   0.166   4.425 -0.6111 -0.1499  0.3666
 2003TIP3    H127424   6.069   0.167   4.496  0.8890  2.7005  1.8561
 2003TIP3    H227425   6.207   0.114   4.461 -0.6113 -0.2843  0.1704
 2004TIP3   OH227426   6.543   1.929  15.203 -0.1531 -0.1198 -0.2196
 2004TIP3    H127427   6.520   1.930  15.296  1.3944  1.6945  0.2258
 2004TIP3    H227428   6.615   1.866  15.197  2.1931  2.2535  0.6190
 2005TIP3   OH227429   5.637   0.871   1.328  0.2926  0.6203  0.2085
 2005TIP3    H127430   5.555   0.844   1.287  0.3911 -0.7030  0.8472
 2005TIP3    H227431   5.703   0.812   1.291  0.4506 -0.3223  1.9130
 2006TIP3   OH227432   5.587   2.659   5.061 -0.5994 -0.7657  0.0404
 2006TIP3    H127433   5.588   2.579   5.114 -0.2677  0.6815  2.3510
 2006TIP3    H227434   5.594   2.730   5.125  0.8740  1.0820 -2.0440
 2007TIP3   OH227435   4.459   4.029   3.440 -0.1207  0.4342  0.7472
 2007TIP3    H127436   4.469   4.010   3.533  0.4137 -1.1012  0.4025
 2007TIP3    H227437   4.379   3.983   3.414  0.1401  0.2225  0.2982
 2008TIP3   OH227438   1.313   0.598  12.594  0.5083  0.4084  0.6128
 2008TIP3    H127439   1.254   0.574  12.521 -0.1688  0.1476  1.2297
 2008TIP3    H227440   1.388   0.540  12.583  0.5851  0.6287 -0.0940
 2009TIP3   OH227441   4.161   1.357   4.054  0.5564  0.8416  0.3126
 2009TIP3    H127442   4.158   1.306   4.135  0.6813 -1.3228 -0.9669
 2009TIP3    H227443   4.070   1.356   4.023  0.7537  0.4446 -0.2635
 2010TIP3   OH227444   6.249   5.831  11.319 -0.0203  0.6372 -0.1758
 2010TIP3    H127445   6.169   5.796  11.281  0.3437 -1.8377  1.1522
 2010TIP3    H227446   6.239   5.926  11.312 -2.3241  0.3682 -1.4749
 2011TIP3   OH227447   5.829   2.996  13.856 -0.1372  0.1800  0.2518
 2011TIP3    H127448   5.756   2.988  13.793  1.2266 -0.3101 -1.3518
 2011TIP3    H227449   5.888   3.059  13.815 -0.2796  1.6453  2.2062
 2012TIP3   OH227450   3.705   5.957   4.355  0.3499  0.2887 -0.1688
 2012TIP3    H127451   3.663   5.918   4.431 -1.6867  2.9240  0.2204
 2012TIP3    H227452   3.764   6.023   4.391  2.1971 -0.9121 -0.8453
 2013TIP3   OH227453   6.149   5.921  10.474 -0.3416 -0.4288  0.0586
 2013TIP3    H127454   6.093   5.928  10.397 -0.3342 -2.6472 -0.2054
 2013TIP3    H227455   6.206   5.847  10.456  1.4236  0.5845  1.1463
 2014TIP3   OH227456   0.653   2.761   4.717 -0.2751 -0.7607  0.1537
 2014TIP3    H127457   0.715   2.720   4.777 -0.4376 -1.8478 -0.4004
 2014TIP3    H227458   0.694   2.754   4.631 -0.4888 -0.1170 -0.0002
 2015TIP3   OH227459   1.066   2.774  13.122  0.6036 -0.4579  0.5865
 2015TIP3    H127460   1.155   2.779  13.086  0.4797 -0.9794  0.1927
 2015TIP3    H227461   1.067   2.834  13.196  1.3543 -0.6423  0.7357
 2016TIP3   OH227462   3.137   0.269  14.073  0.1462  0.3860 -0.5549
 2016TIP3    H127463   3.157   0.339  14.011 -1.4706  0.2112 -1.3222
 2016TIP3    H227464   3.060   0.300  14.121  0.7618  0.0771  0.6739
 2017TIP3   OH227465   1.385   1.794   4.136 -0.3148 -0.1125 -0.4626
 2017TIP3    H127466   1.357   1.741   4.211  0.6252 -0.7255 -0.5228
 2017TIP3    H227467   1.413   1.876   4.175  3.3053 -1.5346  0.3870
 2018TIP3   OH227468   3.238   6.759  14.081 -0.0720 -1.1167 -0.5536
 2018TIP3    H127469   3.160   6.813  14.093  0.9571  0.5398 -0.9849
 2018TIP3    H227470   3.234   6.731  13.989  1.4789  1.8265 -1.6555
 2019TIP3   OH227471   4.197   3.739  14.509 -0.0002  0.3490 -0.2108
 2019TIP3    H127472   4.142   3.806  14.551  0.8413  0.2847  1.0176
 2019TIP3    H227473   4.157   3.656  14.534  1.1534  0.2637  1.4573
 2020TIP3   OH227474   6.060   4.126  16.075  0.4450 -0.3943 -0.3255
 2020TIP3    H127475   6.078   4.035  16.097  1.2494 -0.4977 -1.3446
 2020TIP3    H227476   6.145   4.164  16.054 -0.0821  0.0692 -1.7528
 2021TIP3   OH227477   0.545   4.612   1.857  0.3186 -0.2566 -0.2328
 2021TIP3    H127478   0.553   4.520   1.835  1.9003 -0.2052 -0.0083
 2021TIP3    H227479   0.589   4.620   1.942  3.4749  1.2518 -1.8419
 2022TIP3   OH227480   6.772   1.670   6.788  0.1445  0.1801 -0.3268
 2022TIP3    H127481   6.725   1.732   6.731 -1.4424  0.0617  0.8007
 2022TIP3    H227482   6.757   1.703   6.876  0.7485 -0.8602  0.1753
 2023TIP3   OH227483   4.914   0.591   1.051  0.4437  0.0725 -0.2423
 2023TIP3    H127484   4.970   0.563   1.123  2.1245  3.2932 -0.1002
 2023TIP3    H227485   4.825   0.574   1.081  1.1913 -2.0923  0.9511
 2024TIP3   OH227486   3.453   5.399  14.266  0.3347  0.3188 -0.2450
 2024TIP3    H127487   3.423   5.409  14.176 -1.7471  1.3097  0.4918
 2024TIP3    H227488   3.506   5.477  14.283  0.5283  0.2481 -0.5179
 2025TIP3   OH227489   1.508   5.273  11.125  0.4932 -0.5498 -0.3080
 2025TIP3    H127490   1.474   5.211  11.189 -2.0055  1.5969  0.6526
 2025TIP3    H227491   1.479   5.240  11.040  0.9223 -1.6865 -0.0237
 2026TIP3   OH227492   1.786   6.690  12.424  0.0110 -0.0638  0.5600
 2026TIP3    H127493   1.788   6.664  12.516  0.3910  1.1554  0.9061
 2026TIP3    H227494   1.860   6.749  12.414 -0.5137  0.4634 -0.3408
 2027TIP3   OH227495   4.073   0.190  13.127  0.0680 -0.1777  0.1763
 2027TIP3    H127496   3.995   0.152  13.167 -0.1104  0.5585  0.5583
 2027TIP3    H227497   4.119   0.116  13.086 -0.8224 -0.6167 -0.0453
 2028TIP3   OH227498   2.169   1.727  16.717  0.0612  0.0479  0.0037
 2028TIP3    H127499   2.193   1.716  16.809  0.0809  0.6083  0.0669
 2028TIP3    H227500   2.078   1.755  16.719  0.1660  0.3999 -0.1330
 2029TIP3   OH227501   3.184   5.479  11.811 -0.0481 -0.1281  0.5673
 2029TIP3    H127502   3.150   5.551  11.865 -0.7162  0.2598 -0.3386
 2029TIP3    H227503   3.278   5.479  11.828  0.1206  1.6274 -0.1665
 2030TIP3   OH227504   2.551   3.688  11.542 -0.2941 -0.2435  0.2413
 2030TIP3    H127505   2.612   3.646  11.481  0.0015 -0.3094  0.5795
 2030TIP3    H227506   2.470   3.697  11.492 -0.1707 -0.6461 -0.0393
 2031TIP3   OH227507   0.106   0.568  17.026 -0.3634 -0.5526  0.1461
 2031TIP3    H127508   0.092   0.496  16.964  0.1979  0.4018 -1.1216
 2031TIP3    H227509   0.200   0.568  17.043 -0.4052 -0.3181  0.3855
 2032TIP3   OH227510   1.469   2.728   0.271 -0.0904  0.6259 -0.3536
 2032TIP3    H127511   1.444   2.640   0.297  0.8381  0.5311  0.2511
 2032TIP3    H227512   1.456   2.781   0.350 -0.2963  0.9624 -0.6090
 2033TIP3   OH227513   1.299   2.470   2.297  0.1491 -0.2076  0.1622
 2033TIP3    H127514   1.393   2.454   2.305  0.2448 -0.3006 -0.9762
 2033TIP3    H227515   1.275   2.429   2.215 -0.8374  0.0818  0.2958
 2034TIP3   OH227516   6.711   4.786  10.358  0.4387  0.1849  0.1433
 2034TIP3    H127517   6.759   4.829  10.429  2.0543  0.2332 -0.9395
 2034TIP3    H227518   6.771   4.719  10.326 -1.2235 -1.4898  0.3917
 2035TIP3   OH227519   5.054   3.710   4.415 -0.3172  0.5224 -0.3464
 2035TIP3    H127520   5.054   3.805   4.402  3.0079  0.6930  0.1672
 2035TIP3    H227521   5.047   3.674   4.326 -2.2437  1.1433 -0.5102
 2036TIP3   OH227522   1.064   0.020   4.091  0.2354 -0.0304  0.2324
 2036TIP3    H127523   1.135   0.068   4.050  0.9811 -1.0243  0.3194
 2036TIP3    H227524   1.042   0.071   4.169  0.2791  0.7221 -0.2425
 2037TIP3   OH227525   0.538   4.997   1.430 -0.0915 -0.2638  0.0391
 2037TIP3    H127526   0.477   5.058   1.472  2.3812  2.1064  0.4633
 2037TIP3    H227527   0.581   4.952   1.503  0.0345 -0.4983 -0.1792
 2038TIP3   OH227528   4.002   4.655   2.048 -0.2025  0.0868  0.1323
 2038TIP3    H127529   3.998   4.606   2.130 -1.1040 -0.3921 -0.1801
 2038TIP3    H227530   3.923   4.628   2.000  0.7066 -0.2833 -1.2462
 2039TIP3   OH227531   1.300   2.773  13.014  0.1845 -0.3666 -0.1002
 2039TIP3    H127532   1.381   2.784  13.063  0.1093 -1.9535  0.4038
 2039TIP3    H227533   1.316   2.821  12.932  1.5959 -0.5951  0.0173
 2040TIP3   OH227534   6.716   1.439  12.003 -0.0593  0.8334 -0.1454
 2040TIP3    H127535   6.654   1.371  12.030 -0.2012  1.5158  1.3371
 2040TIP3    H227536   6.671   1.486  11.933 -1.4411  1.5676  1.1665
 2041TIP3   OH227537   4.064   3.862  11.408 -0.2805 -0.0744  0.2419
 2041TIP3    H127538   4.016   3.938  11.375  1.3045  0.2193 -1.5680
 2041TIP3    H227539   4.135   3.899  11.460  1.2319 -0.1508 -1.6313
 2042TIP3   OH227540   5.854   3.250   0.312  0.5648  0.5555  0.1165
 2042TIP3    H127541   5.916   3.236   0.240 -0.3222  1.5418 -0.8911
 2042TIP3    H227542   5.844   3.346   0.317 -0.9953  0.4300  0.1176
 2043TIP3   OH227543   0.965   4.447  15.760  0.1250 -0.1881 -0.1558
 2043TIP3    H127544   1.013   4.368  15.784 -1.3537 -1.3156 -0.7296
 2043TIP3    H227545   0.954   4.495  15.843  0.8522 -0.6775  0.2329
 2044TIP3   OH227546   0.383   4.541  12.584  0.1585  0.1584 -0.0624
 2044TIP3    H127547   0.380   4.454  12.623  1.5332  0.2856  0.3892
 2044TIP3    H227548   0.297   4.579  12.601  0.0822 -0.5248  1.1234
 2045TIP3   OH227549   1.590   4.803   3.508 -0.0841 -0.2788  0.6421
 2045TIP3    H127550   1.625   4.741   3.444 -1.3616  0.0346 -0.4031
 2045TIP3    H227551   1.667   4.847   3.544  0.7335 -1.4324  0.3270
 2046TIP3   OH227552   5.287   0.107  14.484 -0.2878 -1.1594  0.1582
 2046TIP3    H127553   5.279   0.028  14.431 -0.5877 -0.7325 -0.4545
 2046TIP3    H227554   5.381   0.119  14.495 -0.2066 -1.0781 -0.5669
 2047TIP3   OH227555   4.581   2.017  14.914 -0.4253 -0.0054 -0.0505
 2047TIP3    H127556   4.545   2.084  14.856  0.1711 -1.5712 -2.3666
 2047TIP3    H227557   4.673   2.010  14.889 -0.8715 -2.9761 -1.3527
 2048TIP3   OH227558   2.703   5.935   6.257 -0.0093  0.0123 -1.0932
 2048TIP3    H127559   2.713   5.844   6.283 -2.0795 -0.0137 -0.2296
 2048TIP3    H227560   2.704   5.984   6.339  0.8638  0.7656 -1.5320
 2049TIP3   OH227561   4.261   3.583  14.885 -0.4354 -0.4081 -0.5024
 2049TIP3    H127562   4.230   3.560  14.973  0.9865  0.2848  0.2070
 2049TIP3    H227563   4.291   3.500  14.848  1.1930 -0.3586  0.6141
 2050TIP3   OH227564   6.098   2.552   4.960 -0.3207 -0.1231 -0.3764
 2050TIP3    H127565   6.038   2.617   4.923  0.3414  0.3326 -0.6609
 2050TIP3    H227566   6.052   2.519   5.037 -0.3460  1.2837  0.2553
 2051TIP3   OH227567   2.082   2.137   0.940  0.1673  0.0824  0.2455
 2051TIP3    H127568   2.088   2.200   0.868  2.1528 -0.1372  0.1561
 2051TIP3    H227569   2.013   2.172   0.996 -1.8921 -0.0890 -2.0311
 2052TIP3   OH227570   0.905   2.520   6.845  0.1891 -0.3169 -0.3487
 2052TIP3    H127571   0.918   2.524   6.750 -0.7468  1.1288 -0.4521
 2052TIP3    H227572   0.979   2.568   6.881 -0.9217  1.6426 -0.5426
 2053TIP3   OH227573   2.752   3.653   3.970  0.0689 -0.5568 -0.1434
 2053TIP3    H127574   2.794   3.727   3.925  0.0722 -1.3939 -1.5747
 2053TIP3    H227575   2.814   3.628   4.038  0.3975  0.3059 -0.1145
 2054TIP3   OH227576   4.243   5.682  12.130  0.7458  0.3449 -0.2974
 2054TIP3    H127577   4.291   5.601  12.111 -0.5008 -0.8777  1.4074
 2054TIP3    H227578   4.186   5.694  12.055  1.8359  0.3695 -1.1452
 2055TIP3   OH227579   2.206   1.350  11.230  0.2896 -0.7264 -0.6773
 2055TIP3    H127580   2.217   1.332  11.137  1.5605 -0.2868 -0.6299
 2055TIP3    H227581   2.286   1.396  11.255 -0.0789 -0.7556  0.6129
 2056TIP3   OH227582   3.266   5.540   2.301 -0.3285  0.1017 -0.2430
 2056TIP3    H127583   3.184   5.526   2.349 -0.1302 -0.2556 -0.0040
 2056TIP3    H227584   3.332   5.496   2.354 -0.2671 -1.2842 -1.3950
 2057TIP3   OH227585   1.233   1.543   3.726  0.1741  0.4869 -0.2123
 2057TIP3    H127586   1.141   1.549   3.699  0.3350  0.2086 -0.8382
 2057TIP3    H227587   1.279   1.516   3.647  0.6786 -0.2439  0.3287
 2058TIP3   OH227588   2.991   0.197   1.719  0.7968  0.3438  0.3911
 2058TIP3    H127589   2.960   0.109   1.694  0.0220  0.4939  0.7906
 2058TIP3    H227590   2.939   0.256   1.665  1.5571  0.5516 -0.1211
 2059TIP3   OH227591   0.375   3.869  10.322 -0.3148  0.2818  0.3143
 2059TIP3    H127592   0.409   3.874  10.412  0.7827  1.8212 -0.1497
 2059TIP3    H227593   0.292   3.916  10.325 -0.0078  0.8236  0.4123
 2060TIP3   OH227594   4.535   4.625   2.349 -0.1768  0.0549  0.0619
 2060TIP3    H127595   4.525   4.554   2.287  0.2468  0.4986 -0.5267
 2060TIP3    H227596   4.484   4.697   2.312 -1.5709 -0.2834  1.2359
 2061TIP3   OH227597   0.874   5.681  15.079  0.8235  0.1547 -0.0292
 2061TIP3    H127598   0.914   5.732  15.009 -2.1750  4.0336  0.7490
 2061TIP3    H227599   0.805   5.630  15.035  0.0124  1.3413 -0.1775
 2062TIP3   OH227600   3.713   2.166  13.383 -0.0701 -0.6651 -0.1887
 2062TIP3    H127601   3.730   2.243  13.437 -0.0599 -0.5015 -0.4206
 2062TIP3    H227602   3.694   2.202  13.296  0.4638 -0.9455 -0.4269
 2063TIP3   OH227603   5.209   5.683   6.499  0.1555 -0.0451 -0.3371
 2063TIP3    H127604   5.180   5.596   6.470 -2.1660  0.7912 -0.6868
 2063TIP3    H227605   5.165   5.744   6.440 -0.2746  1.4844  1.4954
 2064TIP3   OH227606   1.168   5.397  13.011 -0.0996 -0.2531 -0.6545
 2064TIP3    H127607   1.175   5.302  13.001  1.1083 -0.6376  2.5195
 2064TIP3    H227608   1.256   5.430  12.995 -0.1250  0.0915 -0.1098
 2065TIP3   OH227609   5.365   1.991  14.580  0.2276  0.4278  0.0588
 2065TIP3    H127610   5.403   2.075  14.605  1.3102  0.3024 -1.0459
 2065TIP3    H227611   5.270   2.003  14.590  0.3990  1.6208  0.3559
 2066TIP3   OH227612   3.730   3.990  11.577  0.5996  0.2664  0.0575
 2066TIP3    H127613   3.683   4.001  11.495  0.7021  1.0175  0.0976
 2066TIP3    H227614   3.768   4.076  11.595 -0.7653  0.5862  1.7222
 2067TIP3   OH227615   2.604   1.334  13.460  0.7585  0.6924 -0.3086
 2067TIP3    H127616   2.605   1.428  13.447  0.4983  0.3657 -3.4924
 2067TIP3    H227617   2.656   1.299  13.388 -1.5620 -1.6955 -0.9990
 2068TIP3   OH227618   5.956   1.575   0.098  0.1395  0.0171 -0.0079
 2068TIP3    H127619   5.956   1.479   0.093 -1.4031  0.0553 -2.1338
 2068TIP3    H227620   5.964   1.604   0.007  1.0822  1.9451  0.6299
 2069TIP3   OH227621   3.716   4.151   5.638  0.6262  0.7309 -0.0416
 2069TIP3    H127622   3.758   4.088   5.579  0.1553 -0.3446  0.7390
 2069TIP3    H227623   3.772   4.228   5.635  0.3320  0.9225 -2.3099
 2070TIP3   OH227624   2.731   5.446   5.374  0.3047 -0.4796 -0.0564
 2070TIP3    H127625   2.722   5.357   5.409 -0.9383  0.3400  1.9028
 2070TIP3    H227626   2.798   5.486   5.429 -0.4252  0.3132  0.2822
 2071TIP3   OH227627   6.354   5.997  14.408 -0.2281  0.2722 -0.3595
 2071TIP3    H127628   6.384   6.017  14.497  0.5898 -1.1898 -0.2765
 2071TIP3    H227629   6.260   5.981  14.418 -0.0036 -0.6609  0.3998
 2072TIP3   OH227630   5.522   1.738  13.659 -0.0653  0.2172  0.0313
 2072TIP3    H127631   5.591   1.704  13.716 -1.2814  1.5652  2.4822
 2072TIP3    H227632   5.536   1.833  13.658 -1.5951  0.4683  0.2143
 2073TIP3   OH227633   4.898   0.108   1.930 -0.1111 -0.2697 -0.4886
 2073TIP3    H127634   4.904   0.187   1.875  1.4113 -0.8591 -1.2230
 2073TIP3    H227635   4.903   0.141   2.020  1.7671  0.4248 -0.8040
 2074TIP3   OH227636   3.611   4.293  11.121  0.0068  0.0911 -0.3744
 2074TIP3    H127637   3.659   4.299  11.039 -1.2189  1.2478 -1.0504
 2074TIP3    H227638   3.526   4.255  11.097 -0.1778 -0.0315  0.4441
 2075TIP3   OH227639   5.102   5.548   0.385 -0.0799  0.1382  0.3627
 2075TIP3    H127640   5.185   5.560   0.340  0.4046  0.3998  1.2943
 2075TIP3    H227641   5.035   5.554   0.316  0.7229 -1.2005 -0.5675
 2076TIP3   OH227642   0.232   0.878  11.042  0.0460  0.1947  0.1317
 2076TIP3    H127643   0.279   0.931  10.977  0.4366  0.7100  0.8187
 2076TIP3    H227644   0.161   0.837  10.993 -0.1780  1.2500 -0.4617
 2077TIP3   OH227645   6.228   2.935   3.756 -0.3714  0.0190 -0.5047
 2077TIP3    H127646   6.300   2.943   3.819 -1.0846 -1.2596  0.5317
 2077TIP3    H227647   6.268   2.954   3.671  0.7684  1.0940  0.2399
 2078TIP3   OH227648   5.949   0.012  17.140 -0.0175 -0.1076 -0.1490
 2078TIP3    H127649   6.045   0.011  17.139  0.0063  0.1707  0.9511
 2078TIP3    H227650   5.924  -0.062  17.195 -0.4155  0.2125  0.1087
 2079TIP3   OH227651   5.645   0.057   1.057 -0.1943  0.1902  0.7748
 2079TIP3    H127652   5.659  -0.034   1.030  0.1558  0.5974 -0.4548
 2079TIP3    H227653   5.662   0.056   1.151 -0.0826 -0.9922  0.7652
 2080TIP3   OH227654   4.218   4.654  13.229 -0.5953  0.0069 -0.1027
 2080TIP3    H127655   4.141   4.612  13.267 -2.5514  1.4638 -2.2261
 2080TIP3    H227656   4.206   4.647  13.135  1.8765  0.3556 -0.5117
 2081TIP3   OH227657   1.881   4.736  17.002 -0.3491  0.0422 -0.0072
 2081TIP3    H127658   1.817   4.800  17.033 -2.1022 -1.5328 -0.1590
 2081TIP3    H227659   1.888   4.753  16.908 -1.7068 -0.6849 -0.2659
 2082TIP3   OH227660   0.473   4.059  16.487 -0.2347  0.1577  0.2672
 2082TIP3    H127661   0.567   4.044  16.499 -0.2343 -0.4638 -0.4717
 2082TIP3    H227662   0.443   4.087  16.574  0.0943 -2.5422  1.3859
 2083TIP3   OH227663   1.579   5.626  11.887 -0.2588 -0.5765 -0.1508
 2083TIP3    H127664   1.551   5.552  11.833 -0.8846  0.1776 -0.8855
 2083TIP3    H227665   1.623   5.685  11.827 -1.0753  0.3322  0.1263
 2084TIP3   OH227666   1.280   0.233  14.156  0.2896 -0.7508 -0.0989
 2084TIP3    H127667   1.331   0.152  14.158 -1.2603 -1.7857 -0.8003
 2084TIP3    H227668   1.234   0.231  14.072 -0.0643  0.6816  0.0271
 2085TIP3   OH227669   6.219   4.663  10.523  0.4215  0.1341  0.5062
 2085TIP3    H127670   6.140   4.681  10.573 -2.3109 -1.4890 -2.8107
 2085TIP3    H227671   6.243   4.574  10.549 -0.3170 -0.2779 -0.1777
 2086TIP3   OH227672   1.087   5.678  15.268 -0.8396  0.3627 -0.3489
 2086TIP3    H127673   1.140   5.616  15.219 -2.3313 -1.1809 -0.1143
 2086TIP3    H227674   1.010   5.692  15.213 -1.2360  0.7997  0.2989
 2087TIP3   OH227675   2.140   5.762   2.150  0.0747  0.0839  0.4266
 2087TIP3    H127676   2.100   5.722   2.073 -0.6159 -0.9035  1.2686
 2087TIP3    H227677   2.114   5.854   2.145  0.4736  0.1448 -0.7806
 2088TIP3   OH227678   0.955   0.621  13.742 -0.1226 -0.7782 -0.0844
 2088TIP3    H127679   0.942   0.708  13.704  1.0639  1.0074  3.1727
 2088TIP3    H227680   1.048   0.605  13.734  0.1938 -0.2808  1.9343
 2089TIP3   OH227681   3.081   4.270  10.887  0.3113  0.6199  0.1798
 2089TIP3    H127682   3.115   4.296  10.802 -0.7983  1.9403  0.1046
 2089TIP3    H227683   3.042   4.183  10.872  1.0804  0.3640 -0.3793
 2090TIP3   OH227684   6.277   5.154  11.135  0.4398 -0.2905  0.7946
 2090TIP3    H127685   6.203   5.187  11.186  1.7317  1.8414  1.4320
 2090TIP3    H227686   6.297   5.068  11.174 -1.2854 -0.6266  0.9929
 2091TIP3   OH227687   5.652   1.308   5.629 -0.7958 -0.4629 -0.3670
 2091TIP3    H127688   5.680   1.394   5.600  0.9983 -1.1080 -0.6876
 2091TIP3    H227689   5.610   1.269   5.552 -1.1197 -0.0822 -0.3831
 2092TIP3   OH227690   2.018   5.288  14.149  0.0189 -0.2123  0.1030
 2092TIP3    H127691   2.038   5.357  14.086  0.8357 -0.6186 -0.1112
 2092TIP3    H227692   1.976   5.333  14.222  0.1568  0.4466 -0.2148
 2093TIP3   OH227693   0.037   2.722  14.628 -0.0741 -0.4392  0.1405
 2093TIP3    H127694   0.037   2.662  14.554 -0.1335 -1.6263  1.0658
 2093TIP3    H227695   0.030   2.665  14.705  0.2703  0.7330  1.0759
 2094TIP3   OH227696   5.726   6.127  14.789  0.6724  0.2062 -0.1369
 2094TIP3    H127697   5.712   6.221  14.801  2.1512  0.4780 -0.2718
 2094TIP3    H227698   5.746   6.118  14.696  1.3876 -0.1027  0.0395
 2095TIP3   OH227699   0.021   3.521   6.609 -0.3412 -0.3909 -0.3065
 2095TIP3    H127700   0.080   3.586   6.572  2.1037 -0.9474  2.2650
 2095TIP3    H227701   0.054   3.437   6.578 -1.0816 -0.6041 -0.5291
 2096TIP3   OH227702   1.117   2.377   1.600 -0.3872  0.0376  0.3632
 2096TIP3    H127703   1.119   2.464   1.562  0.6754 -0.1212  0.0149
 2096TIP3    H227704   1.190   2.331   1.558 -1.6129 -1.3789 -0.2976
 2097TIP3   OH227705   3.690   2.255  13.783 -0.2001  0.0703  0.0326
 2097TIP3    H127706   3.596   2.248  13.768 -0.3907  1.7729  0.2713
 2097TIP3    H227707   3.721   2.315  13.715  1.0218 -1.6941 -1.0662
 2098TIP3   OH227708   3.810   5.287  12.877 -0.2174  0.2036  0.2286
 2098TIP3    H127709   3.873   5.330  12.936 -0.5338  0.4038  0.4241
 2098TIP3    H227710   3.819   5.334  12.794 -0.7032  0.7812  0.4989
 2099TIP3   OH227711   5.934   6.190   1.464 -0.1180  0.2168 -0.3325
 2099TIP3    H127712   5.983   6.169   1.544 -0.2296  2.2204  0.3285
 2099TIP3    H227713   5.885   6.111   1.444  1.6941 -1.1193  0.2407
 2100TIP3   OH227714   1.605   5.853  14.178 -0.2420 -0.3964  0.0775
 2100TIP3    H127715   1.552   5.911  14.124  1.8513  0.2337 -1.4180
 2100TIP3    H227716   1.576   5.765  14.154 -0.9581 -0.0599 -0.3208
 2101TIP3   OH227717   6.793   1.167  11.011 -0.0458 -0.1661 -0.0134
 2101TIP3    H127718   6.796   1.072  11.002 -1.6241 -0.2514 -0.0107
 2101TIP3    H227719   6.829   1.200  10.928  3.1554 -0.6737  1.0665
 2102TIP3   OH227720   2.047   0.962  13.733 -0.5396  0.1296 -0.0178
 2102TIP3    H127721   2.009   0.877  13.709 -0.5455  0.5321 -1.5269
 2102TIP3    H227722   2.102   0.943  13.809 -2.6132 -0.7315  1.3902
 2103TIP3   OH227723   1.179   1.397  11.785  0.5469 -0.2143  0.1401
 2103TIP3    H127724   1.150   1.306  11.789 -0.7573  0.2167  2.1366
 2103TIP3    H227725   1.115   1.441  11.729  0.5473 -0.3161  0.0599
 2104TIP3   OH227726   6.671   1.322  16.639  0.3871  0.3892 -0.3468
 2104TIP3    H127727   6.605   1.253  16.639  2.6713 -1.9364  0.1535
 2104TIP3    H227728   6.725   1.304  16.563  2.0021  0.6246  0.7034
 2105TIP3   OH227729   3.758   6.295  16.882  0.3811  0.4647  0.2598
 2105TIP3    H127730   3.675   6.254  16.858  0.5299  1.1430 -1.6140
 2105TIP3    H227731   3.748   6.387  16.854  1.4763  0.7371  0.7165
 2106TIP3   OH227732   5.759   6.053   3.775  0.4105  0.4656  0.3999
 2106TIP3    H127733   5.721   6.118   3.834 -2.4180 -1.2888  0.7393
 2106TIP3    H227734   5.757   5.971   3.826 -0.4098 -0.7506 -1.4698
 2107TIP3   OH227735   2.211   1.963   1.953  0.0872 -0.2314  0.4948
 2107TIP3    H127736   2.181   2.045   1.914  2.5615  0.8695  0.7122
 2107TIP3    H227737   2.306   1.972   1.958  0.5382 -3.4429 -0.1295
 2108TIP3   OH227738   5.442   5.391  16.537 -0.0202  0.4345  0.2054
 2108TIP3    H127739   5.461   5.411  16.446  0.3453  0.5244  0.2984
 2108TIP3    H227740   5.359   5.433  16.555 -0.6980 -0.5915 -0.4266
 2109TIP3   OH227741   3.470   6.083  14.710  0.0698 -0.6999  0.5719
 2109TIP3    H127742   3.454   5.990  14.723 -0.7397 -0.3786  2.2741
 2109TIP3    H227743   3.553   6.088  14.662 -0.4268 -2.2901 -0.5088
 2110TIP3   OH227744   3.433   0.265  12.776 -0.4251 -0.1213 -0.0999
 2110TIP3    H127745   3.511   0.209  12.768  0.4904  0.8850  1.3155
 2110TIP3    H227746   3.380   0.224  12.843 -0.0463  0.3621  0.5028
 2111TIP3   OH227747   1.230   4.059   2.534  0.3778  0.0375  0.5064
 2111TIP3    H127748   1.195   3.985   2.584 -0.2042  0.6891  1.0735
 2111TIP3    H227749   1.280   4.018   2.463 -1.2410 -0.9164 -0.1283
 2112TIP3   OH227750   2.725   2.975  12.885 -0.2291  0.2202  0.6017
 2112TIP3    H127751   2.632   2.992  12.866 -0.4199  0.5899  1.7780
 2112TIP3    H227752   2.768   3.060  12.872  0.2615 -0.3044 -1.5583
 2113TIP3   OH227753   2.187   5.259  12.952  0.3155  0.1250 -0.0976
 2113TIP3    H127754   2.239   5.180  12.937 -0.5188 -0.2698 -1.0028
 2113TIP3    H227755   2.147   5.245  13.038  1.0606  0.0721  0.2442
 2114TIP3   OH227756   5.114   0.304   1.564 -0.3566  0.4480  0.1843
 2114TIP3    H127757   5.084   0.213   1.575  0.5402  0.1551  0.2761
 2114TIP3    H227758   5.209   0.299   1.575  0.0671  0.9444 -2.5710
 2115TIP3   OH227759   4.230   2.610  10.952  0.0455 -0.7947  0.2204
 2115TIP3    H127760   4.271   2.655  11.026 -0.0794 -0.1417 -0.0999
 2115TIP3    H227761   4.204   2.680  10.893 -1.0269 -1.2237  0.1514
 2116TIP3   OH227762   2.032   3.226  16.890  0.1747 -0.3501 -0.1018
 2116TIP3    H127763   2.016   3.138  16.924 -1.7193  0.2409  0.6825
 2116TIP3    H227764   2.096   3.263  16.951 -0.4052 -0.5693  0.6628
 2117TIP3   OH227765   4.998   1.287   2.900  0.2307  0.0063  0.3046
 2117TIP3    H127766   4.928   1.267   2.962  0.7324  0.7936  1.1525
 2117TIP3    H227767   4.964   1.360   2.849 -0.5862 -1.2679 -1.0824
 2118TIP3   OH227768   4.171   1.645  13.722 -0.4209 -0.0106  0.4847
 2118TIP3    H127769   4.098   1.695  13.759 -1.4019 -0.0768 -1.2636
 2118TIP3    H227770   4.223   1.711  13.674 -0.2988 -0.2392  0.3010
 2119TIP3   OH227771   4.895   0.723  16.662  0.4760 -0.5106  0.2615
 2119TIP3    H127772   4.937   0.756  16.742 -0.0223  0.8551 -0.0076
 2119TIP3    H227773   4.959   0.662  16.625  0.8743 -0.8818  1.4937
 2120TIP3   OH227774   2.687   6.303  15.536 -0.1592  0.1002  0.2813
 2120TIP3    H127775   2.706   6.397  15.530 -0.1973  0.1966  1.3954
 2120TIP3    H227776   2.755   6.261  15.484  0.6098  0.6846  0.7865
 2121TIP3   OH227777   5.176   6.147   5.636 -0.4427  0.1324 -0.0414
 2121TIP3    H127778   5.129   6.208   5.579 -0.7478 -0.2041 -0.1535
 2121TIP3    H227779   5.148   6.169   5.724  0.7572  1.2963  0.0831
 2122TIP3   OH227780   5.476   1.308   0.500 -0.2384 -0.3365  0.4808
 2122TIP3    H127781   5.521   1.230   0.533  1.1795  0.0437 -0.4747
 2122TIP3    H227782   5.413   1.275   0.437  1.2981 -0.6649 -0.9432
 2123TIP3   OH227783   2.173   1.609  15.794 -0.0628 -0.4781 -0.3676
 2123TIP3    H127784   2.194   1.661  15.716 -1.9133 -0.6532 -1.0506
 2123TIP3    H227785   2.199   1.663  15.868 -0.2898  0.6427 -1.0929
 2124TIP3   OH227786   3.982   5.307   4.538 -0.3117  0.0893  0.4913
 2124TIP3    H127787   3.936   5.328   4.457  0.0888 -1.9421 -0.3379
 2124TIP3    H227788   3.937   5.229   4.571  1.2301 -0.7531  0.7039
 2125TIP3   OH227789   3.247   2.610  13.085  0.4718 -0.4329  0.0921
 2125TIP3    H127790   3.224   2.526  13.123  0.5305 -1.2000 -1.4699
 2125TIP3    H227791   3.207   2.609  12.998 -0.0671  1.4356  0.2779
 2126TIP3   OH227792   0.487   1.651   4.164  0.5249  0.4079 -0.4534
 2126TIP3    H127793   0.579   1.625   4.154  0.1888 -0.7577 -0.6729
 2126TIP3    H227794   0.486   1.744   4.141  2.2023  1.3597  2.7357
 2127TIP3   OH227795   0.904   0.510   2.814  0.3780 -0.0386  0.1453
 2127TIP3    H127796   0.946   0.426   2.797 -0.9099 -0.6681 -0.0980
 2127TIP3    H227797   0.952   0.572   2.760  0.6050 -0.8392 -0.6046
 2128TIP3   OH227798   5.510   5.872   2.396 -0.2112 -0.1945 -0.0947
 2128TIP3    H127799   5.536   5.779   2.400  0.6167  0.0680  1.9840
 2128TIP3    H227800   5.576   5.917   2.449 -1.5683  1.3486  0.3600
 2129TIP3   OH227801   4.574   5.616  14.929 -1.0126  0.2274  0.2689
 2129TIP3    H127802   4.620   5.693  14.895 -2.4246  1.0940  0.2106
 2129TIP3    H227803   4.599   5.545  14.870 -1.0904  1.0526 -0.7859
 2130TIP3   OH227804   3.480   5.201  11.609 -0.4030  0.4157 -0.5397
 2130TIP3    H127805   3.389   5.203  11.582 -0.5384  0.8480 -0.0694
 2130TIP3    H227806   3.508   5.293  11.607 -0.1288  0.3430 -0.1984
 2131TIP3   OH227807   5.556   1.983  13.740 -0.0069  0.3846  0.1264
 2131TIP3    H127808   5.482   2.024  13.784 -1.3281 -1.3419 -0.3555
 2131TIP3    H227809   5.612   1.952  13.811 -2.2661 -2.6643  0.7886
 2132TIP3   OH227810   4.990   3.849   1.058  0.3941 -0.4155 -0.7715
 2132TIP3    H127811   5.053   3.907   1.014  0.4343 -1.4549 -2.1638
 2132TIP3    H227812   5.031   3.763   1.054  0.3414 -0.5748  1.2763
 2133TIP3   OH227813   2.883   1.978  12.582 -0.0413 -1.3507 -0.2119
 2133TIP3    H127814   2.877   2.063  12.538 -0.5760 -1.3622 -0.1663
 2133TIP3    H227815   2.896   1.916  12.511  1.9557 -1.0877 -0.1443
 2134TIP3   OH227816   5.912   5.216  10.610 -0.4821  0.2824 -0.0470
 2134TIP3    H127817   5.913   5.121  10.596  0.1024  0.1146  1.0439
 2134TIP3    H227818   5.884   5.252  10.526  1.1004 -0.7621 -1.0876
 2135TIP3   OH227819   1.871   2.468   1.011  0.4441  0.3838 -0.3880
 2135TIP3    H127820   1.917   2.535   1.061 -0.3178  0.8793 -0.3239
 2135TIP3    H227821   1.868   2.392   1.070 -0.3826  0.9378  0.3273
 2136TIP3   OH227822   6.390   5.334  12.887  0.1085 -0.3095 -0.3517
 2136TIP3    H127823   6.340   5.412  12.864  1.8057  0.9023 -0.1417
 2136TIP3    H227824   6.347   5.263  12.839 -0.9615  0.8995 -1.2570
 2137TIP3   OH227825   1.565   4.749  15.553 -0.2745 -0.1665 -0.0535
 2137TIP3    H127826   1.555   4.654  15.566 -0.5556 -0.1549 -0.1830
 2137TIP3    H227827   1.487   4.787  15.593  1.3205  0.2612  2.9569
 2138TIP3   OH227828   1.950   5.143   1.576 -0.1390  0.0271 -0.3362
 2138TIP3    H127829   1.964   5.233   1.547  0.7476  0.1640  0.4548
 2138TIP3    H227830   2.002   5.135   1.656 -0.5998 -1.0441 -0.1206
 2139TIP3   OH227831   2.426   0.740   4.275 -0.3690  0.2814 -0.1139
 2139TIP3    H127832   2.428   0.785   4.360  1.3853 -0.7756  0.4656
 2139TIP3    H227833   2.474   0.658   4.291 -1.8317 -0.9158 -1.6100
 2140TIP3   OH227834   3.083   3.749  16.494  0.1318 -0.0879 -0.1964
 2140TIP3    H127835   3.008   3.768  16.550 -0.0369 -0.0375 -0.4385
 2140TIP3    H227836   3.084   3.821  16.430  1.0996  0.5801  0.5382
 2141TIP3   OH227837   2.977   5.061  12.322 -0.1891  0.2174 -0.5943
 2141TIP3    H127838   3.067   5.093  12.310 -0.5301  1.1047 -0.8824
 2141TIP3    H227839   2.952   5.095  12.408 -0.9288  1.7085 -1.3513
 2142TIP3   OH227840   5.601   1.128   1.531  0.3891 -0.1753 -0.0017
 2142TIP3    H127841   5.554   1.046   1.518 -0.9100  0.1565  2.0912
 2142TIP3    H227842   5.687   1.102   1.564  0.8992 -0.7203 -1.6668
 2143TIP3   OH227843   2.831   2.124  17.079 -0.0735  0.0311  0.8732
 2143TIP3    H127844   2.742   2.137  17.048 -0.9008 -1.0283  2.6536
 2143TIP3    H227845   2.823   2.062  17.152  2.3548 -1.7274 -0.2152
 2144TIP3   OH227846   0.554   0.760  14.495 -0.5978 -0.5045  0.3270
 2144TIP3    H127847   0.483   0.757  14.431  1.0435 -0.0066 -1.6076
 2144TIP3    H227848   0.581   0.669  14.505 -3.3496 -1.1778  3.4103
 2145TIP3   OH227849   3.336   3.370   3.519  0.0157  0.3051  0.4770
 2145TIP3    H127850   3.294   3.411   3.594 -0.7191  0.4574 -0.0006
 2145TIP3    H227851   3.277   3.389   3.446  1.6824  1.8905 -0.5460
 2146TIP3   OH227852   5.697   3.077   6.839 -0.4459 -0.1175 -0.1845
 2146TIP3    H127853   5.671   3.027   6.762 -0.1074  1.3548 -1.3020
 2146TIP3    H227854   5.792   3.073   6.839 -0.4656 -0.7641  0.6262
 2147TIP3   OH227855   0.590   4.263  15.191  0.3564  0.1392  0.1704
 2147TIP3    H127856   0.634   4.348  15.196  1.5359 -0.4299 -0.4053
 2147TIP3    H227857   0.506   4.282  15.148 -0.6039  1.4555  2.4312
 2148TIP3   OH227858   6.652   6.302   3.055  0.4960  0.3498 -0.3711
 2148TIP3    H127859   6.588   6.308   2.984 -0.2896 -0.1945  0.2648
 2148TIP3    H227860   6.737   6.297   3.010 -0.0436 -1.0709 -1.3323
 2149TIP3   OH227861   5.129   6.666  12.986 -0.3630 -0.0156 -0.7660
 2149TIP3    H127862   5.205   6.644  13.039 -1.7198 -1.7852  0.5744
 2149TIP3    H227863   5.147   6.626  12.900  0.3179 -0.2252 -0.5286
 2150TIP3   OH227864   3.446   3.482   4.285  0.1631  0.3043 -0.1419
 2150TIP3    H127865   3.511   3.552   4.274 -0.3522  0.7562 -0.3648
 2150TIP3    H227866   3.479   3.430   4.358  0.8049  0.4934 -0.2849
 2151TIP3   OH227867   6.643   5.165   1.418  0.7676 -0.2158 -0.3644
 2151TIP3    H127868   6.664   5.242   1.365  1.7628  0.5242  1.0516
 2151TIP3    H227869   6.552   5.144   1.394  0.0716  2.0731 -0.0192
 2152TIP3   OH227870   5.174   4.007  15.429  0.6075 -0.6465 -0.0371
 2152TIP3    H127871   5.209   3.940  15.371 -0.2888  0.4571 -1.9653
 2152TIP3    H227872   5.246   4.068  15.442  1.5025 -2.0056  1.9226
 2153TIP3   OH227873   4.381   0.959  13.783  0.0054 -0.2265  0.5155
 2153TIP3    H127874   4.416   0.993  13.865 -1.4368  0.7613  0.7660
 2153TIP3    H227875   4.288   0.943  13.801 -0.6225  1.1044 -1.2147
 2154TIP3   OH227876   3.546   5.388  15.280 -0.0639 -0.3174  0.2788
 2154TIP3    H127877   3.530   5.470  15.328  1.7445  1.2852 -1.6395
 2154TIP3    H227878   3.634   5.362  15.308 -0.2647 -1.1046  0.1837
 2155TIP3   OH227879   0.734   5.683   4.773 -0.4887 -0.1072 -0.1039
 2155TIP3    H127880   0.829   5.687   4.782 -0.2757 -3.3271  0.3938
 2155TIP3    H227881   0.712   5.753   4.712  1.7564  2.8856  2.2187
 2156TIP3   OH227882   6.626   3.213  12.846  0.0540 -0.9511 -0.7284
 2156TIP3    H127883   6.722   3.209  12.845  0.1467  0.5777 -2.1869
 2156TIP3    H227884   6.604   3.283  12.785 -2.0141 -1.2531 -0.4109
 2157TIP3   OH227885   0.849   4.583  13.937  0.4528 -0.1945  0.5435
 2157TIP3    H127886   0.762   4.602  13.972  0.1832  0.9537 -0.6530
 2157TIP3    H227887   0.909   4.625  13.998  0.1930 -1.1745  1.4908
 2158TIP3   OH227888   6.549   3.509  15.880 -0.3483 -0.3368 -1.3185
 2158TIP3    H127889   6.560   3.580  15.816 -0.7308  0.2781 -0.7130
 2158TIP3    H227890   6.618   3.447  15.859  1.5852  1.3633 -0.3349
 2159TIP3   OH227891   1.758   0.701   2.207 -0.2879  0.0452 -0.0942
 2159TIP3    H127892   1.702   0.624   2.205  0.2039 -0.3270 -2.3585
 2159TIP3    H227893   1.697   0.775   2.207 -0.7819 -0.3554 -0.9647
 2160TIP3   OH227894   5.902   0.144   3.746 -0.0365  0.0419  0.3899
 2160TIP3    H127895   5.893   0.181   3.658  1.1771 -0.8210 -0.1202
 2160TIP3    H227896   5.828   0.180   3.795  0.3804  2.1311 -0.4139
 2161TIP3   OH227897   2.599   0.024   2.786  0.5586  0.3503  0.3772
 2161TIP3    H127898   2.627  -0.064   2.811 -0.5484 -0.3510 -0.7373
 2161TIP3    H227899   2.578   0.017   2.693 -0.5309  1.5207  0.5032
 2162TIP3   OH227900   2.828   3.874  15.661  0.6306  0.7068  0.0095
 2162TIP3    H127901   2.805   3.960  15.699  1.0402  1.4018 -1.2674
 2162TIP3    H227902   2.885   3.833  15.726 -0.0232  1.1610  0.8868
 2163TIP3   OH227903   3.185   0.011   4.172 -0.0227  0.1115 -0.7131
 2163TIP3    H127904   3.250   0.079   4.187 -0.2199  0.3892 -1.0954
 2163TIP3    H227905   3.104   0.046   4.210 -0.4928  0.7647 -2.2340
 2164TIP3   OH227906   0.942   1.269  13.456  0.2529 -0.7213  0.4022
 2164TIP3    H127907   1.011   1.332  13.477  0.1163 -0.0462 -1.0665
 2164TIP3    H227908   0.980   1.183  13.475  1.7109 -0.3961 -0.8870
 2165TIP3   OH227909   4.406   1.046  12.659 -0.4366  0.0381  0.1343
 2165TIP3    H127910   4.369   1.117  12.606 -2.2701 -0.9543 -0.0075
 2165TIP3    H227911   4.365   1.057  12.745 -0.4689 -0.6292  0.2081
 2166TIP3   OH227912   2.019   0.183  14.142  0.2602  0.1404  0.1290
 2166TIP3    H127913   2.015   0.279  14.148 -1.4004  0.0782  0.6251
 2166TIP3    H227914   1.945   0.153  14.196 -0.3759 -1.3686 -1.4909
 2167TIP3   OH227915   1.995   1.643  11.515 -0.3892  0.3962  0.1098
 2167TIP3    H127916   1.970   1.651  11.607  0.9923 -0.4205  0.5852
 2167TIP3    H227917   2.089   1.627  11.518 -0.3720  0.1320 -1.4435
 2168TIP3   OH227918   1.791   3.184   6.239  0.1969 -0.3009 -0.5629
 2168TIP3    H127919   1.708   3.224   6.267  1.1262 -0.1841  2.3130
 2168TIP3    H227920   1.795   3.101   6.287  1.3703 -0.7042 -1.3191
 2169TIP3   OH227921   4.572   0.529   5.722  0.3179  0.8672  0.6490
 2169TIP3    H127922   4.516   0.533   5.800  0.6358 -0.4946  0.9884
 2169TIP3    H227923   4.644   0.589   5.741 -1.2677  3.1467 -0.0642
 2170TIP3   OH227924   2.512   3.946  16.774  0.3649 -0.1047 -0.0065
 2170TIP3    H127925   2.484   4.038  16.779  1.0677  0.1745 -0.7946
 2170TIP3    H227926   2.468   3.912  16.696 -0.7537 -0.7698  0.8863
 2171TIP3   OH227927   3.544   4.497  16.763  0.1645  0.1009  0.2976
 2171TIP3    H127928   3.592   4.481  16.682 -0.8018  0.0978 -0.2958
 2171TIP3    H227929   3.544   4.592  16.772  0.8035  0.0704  0.6297
 2172TIP3   OH227930   3.878   0.228  17.141 -0.2937  0.0516  0.1231
 2172TIP3    H127931   3.933   0.251  17.217  0.9761 -1.1604 -0.3827
 2172TIP3    H227932   3.864   0.311  17.096  1.1884  0.4129  0.2522
 2173TIP3   OH227933   3.260   2.683  12.316 -0.1514 -0.5842 -0.3233
 2173TIP3    H127934   3.298   2.739  12.248  1.8289 -0.0863  1.0792
 2173TIP3    H227935   3.166   2.695  12.308  0.0531  0.0069 -2.4849
 2174TIP3   OH227936   5.896   2.748   4.903  0.7059 -0.5200  0.8607
 2174TIP3    H127937   5.903   2.787   4.816 -0.4097  0.1452  1.0600
 2174TIP3    H227938   5.854   2.814   4.957  0.6033 -1.2467  1.7104
 2175TIP3   OH227939   2.546   3.733   2.829  0.2211 -0.7698 -0.1445
 2175TIP3    H127940   2.457   3.734   2.866  0.3576 -1.9077  0.2650
 2175TIP3    H227941   2.596   3.678   2.890  1.4830  0.7294  0.2061
 2176TIP3   OH227942   5.838   0.806   5.413 -0.6353  0.0266 -0.3692
 2176TIP3    H127943   5.883   0.852   5.484 -0.8891 -0.4652  0.1204
 2176TIP3    H227944   5.894   0.731   5.393 -0.6665  0.0501 -0.5426
 2177TIP3   OH227945   6.470   0.609  16.431 -0.8209 -0.0008 -0.1164
 2177TIP3    H127946   6.377   0.590  16.418 -0.6384 -0.8262 -0.2107
 2177TIP3    H227947   6.510   0.525  16.453  0.0704  0.1720 -0.9889
 2178TIP3   OH227948   5.183   4.094  15.949 -0.6638  0.1638  0.1874
 2178TIP3    H127949   5.164   4.051  15.865 -0.1544  0.2550  0.0226
 2178TIP3    H227950   5.198   4.022  16.010  1.6166  0.0428 -0.4063
 2179TIP3   OH227951   1.013   0.051   3.028  0.0826  0.7103 -0.2405
 2179TIP3    H127952   0.963  -0.010   2.974 -0.8356  0.8631  0.4180
 2179TIP3    H227953   1.085   0.079   2.971  0.6835 -1.1501 -0.4898
 2180TIP3   OH227954   4.276   1.129  11.187 -0.0716 -0.6445 -0.4793
 2180TIP3    H127955   4.216   1.200  11.162  3.2496  2.1983 -1.1755
 2180TIP3    H227956   4.284   1.137  11.283  0.4945  0.2065 -0.5804
 2181TIP3   OH227957   1.199   5.194  16.437  0.7071  0.0996 -0.2795
 2181TIP3    H127958   1.253   5.178  16.359  0.0727  0.4154 -0.7889
 2181TIP3    H227959   1.261   5.221  16.504  1.3524 -0.8474 -0.4733
 2182TIP3   OH227960   1.688   5.729   4.127  0.0586  0.5722 -0.4222
 2182TIP3    H127961   1.610   5.757   4.176  0.0330  1.5232 -0.9759
 2182TIP3    H227962   1.664   5.644   4.091  0.2562 -0.3946  1.5990
 2183TIP3   OH227963   4.647   6.455  12.316 -0.1783  0.1035 -0.5803
 2183TIP3    H127964   4.618   6.368  12.343 -1.6543  1.2973  2.1007
 2183TIP3    H227965   4.733   6.440  12.277  0.9106 -2.3265  2.2840
 2184TIP3   OH227966   6.694   0.819   3.680  0.5786  0.1159  0.3162
 2184TIP3    H127967   6.721   0.820   3.772  0.0979  1.1509  0.4707
 2184TIP3    H227968   6.601   0.842   3.682  1.1056  2.6974 -0.5421
 2185TIP3   OH227969   4.505   0.334  12.259  0.1006 -0.3288  0.6448
 2185TIP3    H127970   4.563   0.262  12.235 -0.9226 -1.4982  1.4988
 2185TIP3    H227971   4.438   0.335  12.191 -0.0929 -0.4394  0.8319
 2186TIP3   OH227972   3.769   5.332  14.825 -0.6276  0.6501  0.3326
 2186TIP3    H127973   3.734   5.299  14.743 -1.9173  0.0321  1.0910
 2186TIP3    H227974   3.706   5.400  14.852 -0.6668  0.3041  1.1708
 2187TIP3   OH227975   4.647   6.143  12.938 -0.4101 -0.2678  0.4027
 2187TIP3    H127976   4.719   6.199  12.911 -0.3907  0.3854  1.7571
 2187TIP3    H227977   4.569   6.184  12.901 -0.0439 -1.7849 -2.3725
 2188TIP3   OH227978   3.541   1.414   5.755 -0.0127  0.0746  0.0487
 2188TIP3    H127979   3.579   1.481   5.698  1.8769 -1.2356 -0.3226
 2188TIP3    H227980   3.447   1.418   5.736  0.3299  1.0259 -1.7011
 2189TIP3   OH227981   1.222   2.868  15.673 -0.3449 -0.3823  0.1393
 2189TIP3    H127982   1.178   2.932  15.729  1.1443  0.1566  0.7416
 2189TIP3    H227983   1.238   2.793  15.731  3.0215  0.9359  1.1772
 2190TIP3   OH227984   3.349   0.368   4.507  0.1584  0.4861  0.2561
 2190TIP3    H127985   3.376   0.383   4.597  0.5942  1.0125  0.0430
 2190TIP3    H227986   3.414   0.307   4.471 -0.1808  0.0455  0.3791
 2191TIP3   OH227987   6.044   3.010  14.255  0.2119  0.5251  0.3218
 2191TIP3    H127988   6.025   3.077  14.321  0.5953  0.4749  0.4859
 2191TIP3    H227989   6.090   3.057  14.186 -2.9722  1.2943 -1.4843
 2192TIP3   OH227990   3.835   0.834  17.084 -0.4143 -0.1804  0.0399
 2192TIP3    H127991   3.823   0.925  17.110  3.6332  1.3244 -2.4635
 2192TIP3    H227992   3.868   0.791  17.163  1.5424  1.6166  0.2857
 2193TIP3   OH227993   3.100   4.355  14.216  0.7026  0.4697 -0.2557
 2193TIP3    H127994   3.183   4.352  14.168  0.8796 -0.5671  0.0795
 2193TIP3    H227995   3.086   4.265  14.245 -0.3174  0.7217  0.0859
 2194TIP3   OH227996   4.871   1.194   5.642 -0.4237  1.0170 -0.1923
 2194TIP3    H127997   4.820   1.128   5.690 -0.2752  0.5133 -0.7129
 2194TIP3    H227998   4.806   1.250   5.601 -0.5608  0.4349 -0.7741
 2195TIP3   OH227999   1.996   0.170   1.525  0.0570  0.1444 -0.5769
 2195TIP3    H128000   1.967   0.189   1.614 -2.0250  0.3576 -1.2662
 2195TIP3    H228001   2.025   0.079   1.529 -0.0722  0.1286  0.2935
 2196TIP3   OH228002   2.523   3.670  15.364  0.2158 -0.0686 -0.2853
 2196TIP3    H128003   2.529   3.590  15.310  1.4163 -0.7806  0.8642
 2196TIP3    H228004   2.580   3.653  15.438 -0.6426  1.3064  0.7213
 2197TIP3   OH228005   2.075   0.680   6.030 -0.2580 -0.0051  0.0753
 2197TIP3    H128006   2.170   0.686   6.038 -0.4836  1.8166  2.0701
 2197TIP3    H228007   2.051   0.608   6.088  0.0357 -2.3833 -2.5279
 2198TIP3   OH228008   0.662   0.896   3.063  0.5467  0.2350 -0.3299
 2198TIP3    H128009   0.703   0.850   3.136  3.0277  1.4659 -0.8369
 2198TIP3    H228010   0.689   0.847   2.985 -2.4718 -1.3534 -0.5139
 2199TIP3   OH228011   0.504   3.878   6.935 -0.6170 -0.4020  0.2359
 2199TIP3    H128012   0.471   3.955   6.888 -0.7676 -0.2587  0.5714
 2199TIP3    H228013   0.600   3.885   6.927 -0.6370 -0.3068  0.0679
 2200TIP3   OH228014   4.254   0.192  16.884 -0.0520  0.7110  0.0043
 2200TIP3    H128015   4.266   0.168  16.976 -2.3234 -2.7146 -0.3973
 2200TIP3    H228016   4.334   0.160  16.841 -0.5987 -1.2418  0.3339
 2201TIP3   OH228017   2.876   5.229   2.541 -0.0866 -0.1413 -0.1207
 2201TIP3    H128018   2.926   5.160   2.583  0.9532  0.3723 -0.4783
 2201TIP3    H228019   2.865   5.199   2.450 -0.4793 -0.2704 -0.0350
 2202TIP3   OH228020   5.880   2.529   0.954 -0.3999  0.0910  0.1448
 2202TIP3    H128021   5.938   2.513   1.028 -0.8320  3.3291  1.3350
 2202TIP3    H228022   5.931   2.585   0.895 -0.0907 -2.3483 -2.0953
 2203TIP3   OH228023   2.115   1.129   5.543  0.7628 -0.2113  0.7688
 2203TIP3    H128024   2.129   1.192   5.614  0.3581  2.9199 -1.7072
 2203TIP3    H228025   2.180   1.152   5.477 -0.6556 -1.1414 -1.0508
 2204TIP3   OH228026   1.167   5.557  12.339  0.5113  0.4309  0.3197
 2204TIP3    H128027   1.156   5.506  12.419 -1.4186 -1.2950 -0.9301
 2204TIP3    H228028   1.226   5.504  12.284 -0.6165  0.0412 -0.5573
 2205TIP3   OH228029   3.221   6.092   3.144 -0.1573  0.7193  0.0109
 2205TIP3    H128030   3.190   6.040   3.219 -0.3674  0.3671 -0.3135
 2205TIP3    H228031   3.155   6.160   3.134 -1.3681 -0.5749 -1.2509
 2206TIP3   OH228032   2.114   5.896   0.464 -0.2435  0.0665 -0.6423
 2206TIP3    H128033   2.028   5.855   0.479  0.3209 -0.9455 -0.1099
 2206TIP3    H228034   2.094   5.989   0.455 -1.1593  0.1742  1.7720
 2207TIP3   OH228035   5.307   2.875   2.305  0.6845  0.5149  0.2436
 2207TIP3    H128036   5.308   2.853   2.398 -0.0254  2.0122  0.6281
 2207TIP3    H228037   5.393   2.915   2.289  0.4650  1.0875  0.4762
 2208TIP3   OH228038   3.846   2.442  16.788  0.7116  0.3870 -0.4803
 2208TIP3    H128039   3.897   2.507  16.837  0.9048  1.1914 -1.7092
 2208TIP3    H228040   3.909   2.405  16.725 -0.0135  0.8284 -1.4887
 2209TIP3   OH228041   4.063   1.759   3.023 -0.2603 -0.4510  0.1411
 2209TIP3    H128042   4.087   1.818   3.095  1.4864 -0.8575 -0.0571
 2209TIP3    H228043   3.974   1.732   3.043  0.2137 -0.6402  2.2397
 2210TIP3   OH228044   1.719   5.938   0.345 -0.2421  0.0598 -0.3062
 2210TIP3    H128045   1.693   5.949   0.254 -0.3512 -0.1065 -0.2963
 2210TIP3    H228046   1.741   5.845   0.353  0.7664  0.2702 -0.4187
 2211TIP3   OH228047   4.863   2.964   5.519 -0.3078 -0.5142 -0.7827
 2211TIP3    H128048   4.767   2.970   5.525 -0.1649  0.7381  1.6437
 2211TIP3    H228049   4.893   3.051   5.546  1.5343 -0.8007 -1.8032
 2212TIP3   OH228050   4.945   4.048   5.250 -0.5289  0.3609  0.5144
 2212TIP3    H128051   4.942   4.140   5.224 -0.3290 -0.0671 -1.1534
 2212TIP3    H228052   4.859   4.013   5.228 -0.4877  0.0662  0.8056
 2213TIP3   OH228053   0.397   4.992   3.790  0.8750 -0.0801  0.1755
 2213TIP3    H128054   0.432   4.953   3.870 -0.0453  0.0929  0.6802
 2213TIP3    H228055   0.363   4.918   3.740  1.2787 -0.1678  0.0244
 2214TIP3   OH228056   5.657   0.387   3.309 -0.2384  0.2551 -0.1117
 2214TIP3    H128057   5.726   0.371   3.245  0.1116  0.6417  0.1621
 2214TIP3    H228058   5.652   0.482   3.317 -0.2781  0.2132  0.4336
 2215TIP3   OH228059   5.726   1.230  15.687 -0.3510 -0.5658 -0.1339
 2215TIP3    H128060   5.678   1.282  15.623  2.2757  1.7737 -0.3799
 2215TIP3    H228061   5.807   1.207  15.643  1.2181  0.4884  2.0245
 2216TIP3   OH228062   6.314   3.944   4.571  0.0041 -0.3362 -0.4051
 2216TIP3    H128063   6.260   4.022   4.585 -0.8617 -0.4167 -2.7842
 2216TIP3    H228064   6.265   3.892   4.507  1.6736 -1.6861 -0.6661
 2217TIP3   OH228065   5.781   3.452   3.458 -0.5274  0.5856 -0.2669
 2217TIP3    H128066   5.734   3.371   3.439 -1.0792  1.0678 -0.9817
 2217TIP3    H228067   5.845   3.460   3.387  1.9399 -0.9972  1.6251
 2218TIP3   OH228068   5.222   0.791   5.883 -0.9147  0.0312  0.2224
 2218TIP3    H128069   5.175   0.769   5.964  0.2502  0.6247  1.0831
 2218TIP3    H228070   5.199   0.882   5.867 -0.3504  0.2133  0.4443
 2219TIP3   OH228071   0.331   0.761  13.837 -0.1690  0.1317  0.4421
 2219TIP3    H128072   0.355   0.686  13.783  0.2442 -0.3710  1.2987
 2219TIP3    H228073   0.372   0.836  13.794  0.7320 -0.3545  0.4314
 2220TIP3   OH228074   2.217   3.375   4.736  0.2835 -0.1036  0.6311
 2220TIP3    H128075   2.251   3.288   4.714  1.1656  0.3744  0.0343
 2220TIP3    H228076   2.139   3.383   4.682  0.0771 -0.6046  0.8457
 2221TIP3   OH228077   3.283   3.465   0.838  0.1310 -0.1614  0.4695
 2221TIP3    H128078   3.331   3.455   0.756  0.6618 -1.0883  0.8790
 2221TIP3    H228079   3.227   3.541   0.824  0.4418 -0.1227 -0.6391
 2222TIP3   OH228080   1.447   3.113   5.061 -0.0885 -0.0796  0.9454
 2222TIP3    H128081   1.490   3.095   5.145  1.1384  0.9662  0.5747
 2222TIP3    H228082   1.470   3.038   5.006  0.4035 -0.0157  1.0630
 2223TIP3   OH228083   4.942   6.724  11.513  0.2146 -0.6761  0.1849
 2223TIP3    H128084   5.003   6.777  11.462 -1.1771  0.4878 -0.3484
 2223TIP3    H228085   4.976   6.725  11.602 -0.3094  2.0796  0.4321
 2224TIP3   OH228086   5.827   5.882   2.799  0.6819  0.3276 -0.6961
 2224TIP3    H128087   5.918   5.881   2.827  0.1956  2.2038  1.2156
 2224TIP3    H228088   5.821   5.956   2.738  0.5338 -0.1872 -1.3258
 2225TIP3   OH228089   2.524   5.300  12.938 -0.0612 -0.2533 -0.5427
 2225TIP3    H128090   2.470   5.370  12.900 -0.1660  0.1090  0.2518
 2225TIP3    H228091   2.471   5.221  12.926 -0.9904  0.1602  0.6045
 2226TIP3   OH228092   2.901   6.654   0.269  0.3398 -0.0168 -0.3921
 2226TIP3    H128093   2.883   6.621   0.357  0.8394  0.0460 -0.2638
 2226TIP3    H228094   2.816   6.652   0.225  0.5731 -2.8003 -0.8593
 2227TIP3   OH228095   4.691   5.384  11.597  0.1251 -0.0092  0.4700
 2227TIP3    H128096   4.671   5.332  11.674 -0.9117 -1.5528 -0.7740
 2227TIP3    H228097   4.691   5.321  11.525  1.2218  1.3487 -0.7797
 2228TIP3   OH228098   4.958   1.307   4.941  0.1603 -0.2536 -0.5876
 2228TIP3    H128099   4.932   1.296   5.032 -0.3577 -0.5776 -0.7706
 2228TIP3    H228100   5.007   1.227   4.921  0.3829 -0.1248 -0.5562
 2229TIP3   OH228101   0.351   4.065   3.511  0.1534  0.1603 -0.2367
 2229TIP3    H128102   0.285   4.066   3.442  0.4738 -1.1984 -0.5924
 2229TIP3    H228103   0.302   4.081   3.592 -0.6231 -0.8706 -0.4884
 2230TIP3   OH228104   2.460   6.064  11.772 -0.2286  0.0194  0.0654
 2230TIP3    H128105   2.439   6.154  11.746  1.1156  1.0402  2.1831
 2230TIP3    H228106   2.413   6.052  11.855 -4.9804 -3.3335 -2.6542
 2231TIP3   OH228107   4.726   3.795   1.125  0.5030  0.3369  0.4851
 2231TIP3    H128108   4.797   3.834   1.073 -0.5399 -0.1919 -1.4128
 2231TIP3    H228109   4.741   3.701   1.118 -0.5693  0.2092 -0.2198
 2232TIP3   OH228110   1.312   1.487  14.074 -0.0860 -0.3923  0.1835
 2232TIP3    H128111   1.216   1.484  14.074 -0.1289  0.7641  0.1910
 2232TIP3    H228112   1.338   1.406  14.031 -1.0177 -1.9964  2.4159
 2233TIP3   OH228113   2.778   5.063   3.020  0.1807 -0.4535  0.3652
 2233TIP3    H128114   2.776   5.097   2.930  1.9104  0.7949  0.7361
 2233TIP3    H228115   2.747   5.135   3.074  2.2341  0.0134  1.0131
 2234TIP3   OH228116   5.584   0.478  15.043  0.4673  0.0414  0.2430
 2234TIP3    H128117   5.500   0.470  14.998  1.5827 -0.0450 -1.9666
 2234TIP3    H228118   5.625   0.392  15.032  1.7461  0.7382 -0.7181
 2235TIP3   OH228119   5.696   4.214  11.812 -0.2187 -0.3895 -0.3406
 2235TIP3    H128120   5.789   4.191  11.807 -0.2433 -0.3939 -0.8568
 2235TIP3    H228121   5.687   4.262  11.894  0.4140  0.4195 -0.7356
 2236TIP3   OH228122   1.053   6.708  16.662  0.4772 -0.0580 -0.2364
 2236TIP3    H128123   1.063   6.745  16.574  1.8878  1.8318  0.6228
 2236TIP3    H228124   0.966   6.735  16.690 -0.2421 -1.2283 -1.2555
 2237TIP3   OH228125   6.303   4.091   1.198 -0.6501 -0.9650  0.1843
 2237TIP3    H128126   6.294   4.065   1.290 -3.2246 -1.8000 -0.2247
 2237TIP3    H228127   6.301   4.008   1.150  0.5361 -0.5253 -0.6606
 2238TIP3   OH228128   6.206   5.388   1.364  0.0391 -0.8252 -0.0747
 2238TIP3    H128129   6.223   5.478   1.391  0.9627 -0.9841 -0.1042
 2238TIP3    H228130   6.222   5.388   1.269 -1.6479 -0.6348 -0.3927
 2239TIP3   OH228131   2.781   1.033  14.715  0.3803  0.4357 -0.1833
 2239TIP3    H128132   2.789   1.075  14.629  0.0341 -0.3867 -0.6260
 2239TIP3    H228133   2.749   1.103  14.772  0.3832  0.9329 -0.7749
 2240TIP3   OH228134   1.779   2.098   0.703  0.1189 -0.0392 -0.6964
 2240TIP3    H128135   1.855   2.157   0.709  0.6497 -0.8005  0.3586
 2240TIP3    H228136   1.720   2.142   0.642  0.7076  1.3548 -0.3139
 2241TIP3   OH228137   4.449   4.222   2.106 -0.2510  0.8496 -0.2638
 2241TIP3    H128138   4.536   4.224   2.145  0.5695  2.7288 -1.9887
 2241TIP3    H228139   4.464   4.198   2.015 -1.3782  2.3359 -0.8846
 2242TIP3   OH228140   5.638   4.986   4.677  0.0998  0.2196  0.1830
 2242TIP3    H128141   5.584   4.956   4.750  0.8547 -0.3140  0.5332
 2242TIP3    H228142   5.727   4.967   4.704  0.3480 -0.8496 -1.2401
 2243TIP3   OH228143   2.582   1.984   3.206 -0.1191  0.0378 -0.1809
 2243TIP3    H128144   2.531   2.043   3.150  0.8482  1.6497  0.5474
 2243TIP3    H228145   2.659   2.035   3.230  1.3706 -1.9598 -0.4261
 2244TIP3   OH228146   3.805   5.980   0.489  0.1323  0.3637 -0.0154
 2244TIP3    H128147   3.859   6.040   0.540  0.4442 -0.5166  0.7302
 2244TIP3    H228148   3.766   5.921   0.554  0.8223 -1.0163 -0.7913
 2245TIP3   OH228149   5.702   0.413   2.688 -0.2982 -0.0727  0.6387
 2245TIP3    H128150   5.659   0.470   2.624  0.1834 -0.5632 -0.1409
 2245TIP3    H228151   5.692   0.325   2.651  1.2408 -0.2134  0.4953
 2246TIP3   OH228152   4.716   6.346   3.269 -0.0212  0.0101  0.1855
 2246TIP3    H128153   4.742   6.373   3.357 -1.2011 -2.9573  1.6126
 2246TIP3    H228154   4.621   6.354   3.269 -0.2262 -1.8979 -0.0284
 2247TIP3   OH228155   6.056   3.951   3.634 -0.0472  0.0548  0.5602
 2247TIP3    H128156   6.104   3.976   3.714 -1.1662 -1.1228  1.6437
 2247TIP3    H228157   6.125   3.936   3.569  0.9493  0.2819  1.5238
 2248TIP3   OH228158   0.945   5.363   2.458 -0.2014  0.0648 -0.0780
 2248TIP3    H128159   0.975   5.433   2.516 -0.7305  0.0480  0.2280
 2248TIP3    H228160   1.020   5.305   2.448 -0.0703  0.1293  0.5005
 2249TIP3   OH228161   5.233   0.800   4.084 -0.2017 -0.0353 -0.2900
 2249TIP3    H128162   5.200   0.885   4.054 -2.8172 -0.4934  1.0380
 2249TIP3    H228163   5.258   0.755   4.003  0.4816  1.6611 -1.0812
 2250TIP3   OH228164   3.369   5.927   5.253 -0.5957  0.1104  0.4023
 2250TIP3    H128165   3.381   5.898   5.163 -0.5976  1.1902  0.0441
 2250TIP3    H228166   3.445   5.982   5.271 -0.8134  0.2493  0.9214
 2251TIP3   OH228167   6.119   5.593  15.987 -0.8726 -0.1423 -0.1395
 2251TIP3    H128168   6.122   5.688  15.999 -0.6499 -0.3971  2.2962
 2251TIP3    H228169   6.125   5.581  15.892  0.2222  2.2267 -0.4522
 2252TIP3   OH228170   1.491   5.720   0.052 -0.2437  0.3376  0.4306
 2252TIP3    H128171   1.554   5.697  -0.016 -1.8176  0.3780 -1.0779
 2252TIP3    H228172   1.413   5.670   0.031 -0.8367  0.5009  2.1204
 2253TIP3   OH228173   4.868   1.483   0.784  0.3543 -0.4129  0.1615
 2253TIP3    H128174   4.848   1.560   0.836  0.9403  0.8802 -1.4465
 2253TIP3    H228175   4.908   1.422   0.846 -2.3762 -0.4777  2.0127
 2254TIP3   OH228176   0.378   1.530  11.542  0.2891 -0.2947  0.0025
 2254TIP3    H128177   0.283   1.526  11.552  0.0963 -1.7479 -1.9432
 2254TIP3    H228178   0.408   1.578  11.619 -1.7825 -2.0903  2.0907
 2255TIP3   OH228179   4.261   3.309  11.210  0.3040 -0.3188  0.0018
 2255TIP3    H128180   4.332   3.373  11.202  1.6068 -1.7264 -0.1720
 2255TIP3    H228181   4.246   3.279  11.121 -0.1582 -0.4097  0.1081
 2256TIP3   OH228182   4.297   4.100  15.916 -0.6234  0.8868 -0.0049
 2256TIP3    H128183   4.302   4.088  16.011 -1.0327 -1.9176 -0.2580
 2256TIP3    H228184   4.343   4.183  15.900  2.3283 -0.1188  2.3265
 2257TIP3   OH228185   4.377   6.534  11.084  0.0582  0.0520 -0.6311
 2257TIP3    H128186   4.461   6.555  11.124 -0.1169 -0.0647 -0.1926
 2257TIP3    H228187   4.366   6.440  11.099  0.1957 -0.0878 -1.3583
 2258TIP3   OH228188   1.193   4.970   3.111 -0.2350 -0.1829 -0.0092
 2258TIP3    H128189   1.237   4.996   3.030  0.1706 -0.5415  0.0933
 2258TIP3    H228190   1.256   4.991   3.180 -0.7887  0.6110  0.2636
 2259TIP3   OH228191   1.736   3.201  12.741 -0.2213  1.2275 -0.2062
 2259TIP3    H128192   1.661   3.228  12.688 -0.5748 -2.5150 -1.9957
 2259TIP3    H228193   1.707   3.208  12.831 -3.9702 -2.4586 -0.8006
 2260TIP3   OH228194   2.392   1.211   2.688 -0.6197 -0.4481  0.2039
 2260TIP3    H128195   2.433   1.230   2.603  0.6947 -0.1680  0.8792
 2260TIP3    H228196   2.337   1.287   2.706 -0.9991 -0.5618 -0.4486
 2261TIP3   OH228197   0.039   2.215  15.370 -0.1990  0.0488 -0.1838
 2261TIP3    H128198   0.049   2.129  15.411  0.2113  0.4908  0.6865
 2261TIP3    H228199  -0.054   2.220  15.347 -0.3417 -0.4198  0.2604
 2262TIP3   OH228200   6.167   4.193   0.915  0.0237 -0.4065  0.4098
 2262TIP3    H128201   6.129   4.236   0.991  3.2869  1.6238  1.1367
 2262TIP3    H228202   6.182   4.102   0.943 -4.5892 -1.6311 -0.2382
 2263TIP3   OH228203   1.748   5.762  11.710 -0.0018 -0.0187 -0.2800
 2263TIP3    H128204   1.703   5.758  11.626 -0.2057 -1.7798 -0.1335
 2263TIP3    H228205   1.841   5.761  11.687 -0.0564 -0.2351 -0.5003
 2264TIP3   OH228206   0.865   6.566  12.531  0.6396 -0.1070  0.0202
 2264TIP3    H128207   0.885   6.537  12.442 -1.2090 -0.3339 -0.3624
 2264TIP3    H228208   0.901   6.654  12.536  0.2059  0.1686 -1.2010
 2265TIP3   OH228209   1.100   3.648  11.933  0.4164 -0.0980  0.0284
 2265TIP3    H128210   1.085   3.742  11.929 -0.0104 -0.1706 -0.1910
 2265TIP3    H228211   1.189   3.636  11.901  0.2349  0.1704 -0.5810
 2266TIP3   OH228212   1.346   6.111   1.277  0.1938  0.9257  0.4864
 2266TIP3    H128213   1.309   6.026   1.302 -0.7019  0.3557 -2.4035
 2266TIP3    H228214   1.414   6.128   1.343 -0.7563 -1.1897  2.1228
 2267TIP3   OH228215   0.574   5.278  12.517 -0.4068 -0.2402 -0.4183
 2267TIP3    H128216   0.527   5.197  12.498 -1.9171  0.7805 -1.2371
 2267TIP3    H228217   0.643   5.282  12.451 -0.8136 -0.4905 -0.8651
 2268TIP3   OH228218   3.203   4.907   4.064  0.1966  0.1591 -0.4513
 2268TIP3    H128219   3.285   4.885   4.021  1.4021  0.1773  1.7221
 2268TIP3    H228220   3.227   4.926   4.155 -2.1498  0.6122  0.1489
 2269TIP3   OH228221   0.801   1.763   4.037 -0.2122 -0.1349  0.6888
 2269TIP3    H128222   0.859   1.746   3.963 -0.9140  1.7473 -0.3767
 2269TIP3    H228223   0.856   1.751   4.114  1.7741  1.8935 -0.2815
 2270TIP3   OH228224   1.957   6.581   4.087  0.3346  0.1076  0.9219
 2270TIP3    H128225   1.900   6.517   4.043 -0.7731  2.8555 -2.0367
 2270TIP3    H228226   2.046   6.557   4.060 -0.2585  1.4568 -2.9801
 2271TIP3   OH228227   2.026   6.182   0.416 -0.0857 -0.0566 -0.5370
 2271TIP3    H128228   2.110   6.228   0.415 -0.4681  0.6658 -1.7427
 2271TIP3    H228229   1.961   6.250   0.402 -0.8976 -0.6013  0.4740
 2272TIP3   OH228230   3.118   2.144   4.590  0.5895  0.2361  0.2686
 2272TIP3    H128231   3.208   2.116   4.576  1.1875  1.5707  1.2587
 2272TIP3    H228232   3.123   2.239   4.594 -0.6849  0.2737  1.4965
 2273TIP3   OH228233   6.106   2.817  13.839 -0.0903 -0.2316  0.2400
 2273TIP3    H128234   6.012   2.810  13.853 -0.6213  2.1713 -1.5767
 2273TIP3    H228235   6.133   2.895  13.887  0.2132  1.2015 -2.0752
 2274TIP3   OH228236   1.160   2.072  12.097 -0.3776  0.6367  0.1794
 2274TIP3    H128237   1.198   2.084  12.184 -0.5805  0.9771  0.2240
 2274TIP3    H228238   1.219   2.010  12.053 -1.1307 -0.7640  1.0885
 2275TIP3   OH228239   0.501   1.741   3.660  0.4841  0.4198  0.1596
 2275TIP3    H128240   0.420   1.766   3.704  1.3593  1.5748  1.1511
 2275TIP3    H228241   0.559   1.711   3.730  0.2471 -2.5010 -0.7303
 2276TIP3   OH228242   0.372   2.596   2.261 -0.3720  0.1995 -0.1474
 2276TIP3    H128243   0.317   2.593   2.340 -0.7762 -1.1374 -0.4485
 2276TIP3    H228244   0.455   2.559   2.288 -1.0932 -2.0006 -0.7377
 2277TIP3   OH228245   3.523   0.814  15.679 -0.2803  0.2977 -0.5243
 2277TIP3    H128246   3.461   0.834  15.749  0.0532 -0.7441  0.0978
 2277TIP3    H228247   3.543   0.899  15.639  0.1900  1.0468  1.2105
 2278TIP3   OH228248   5.375   6.620   5.325 -0.1455 -0.1977  0.7605
 2278TIP3    H128249   5.415   6.544   5.282 -2.3323 -1.5906  1.0490
 2278TIP3    H228250   5.431   6.636   5.401  1.1813 -0.5697 -0.1047
 2279TIP3   OH228251   1.731   2.652  13.675  0.0234  0.0613 -0.0123
 2279TIP3    H128252   1.712   2.561  13.650 -0.2295  0.2922 -0.6813
 2279TIP3    H228253   1.654   2.680  13.723 -0.1650  0.1191 -0.3459
 2280TIP3   OH228254   6.605   4.766  15.125  0.3699  0.0255 -0.3766
 2280TIP3    H128255   6.634   4.794  15.212  0.0969 -0.2456 -0.1956
 2280TIP3    H228256   6.684   4.768  15.071  0.8457 -1.1751  0.2234
 2281TIP3   OH228257   3.216   0.218   3.626  0.4672 -0.3028  0.3516
 2281TIP3    H128258   3.127   0.187   3.605  0.9760 -0.6742 -1.4350
 2281TIP3    H228259   3.208   0.313   3.630 -0.0643 -0.3488  0.4897
 2282TIP3   OH228260   1.019   4.688  14.137  0.0998  0.1770  0.3965
 2282TIP3    H128261   1.062   4.724  14.060 -1.9034  0.7412 -0.5109
 2282TIP3    H228262   1.027   4.756  14.203 -3.1301  2.2540 -1.1181
 2283TIP3   OH228263   2.848   5.047  16.530  0.1177  0.2783 -0.4715
 2283TIP3    H128264   2.796   5.112  16.577  0.2450 -0.6631  1.0583
 2283TIP3    H228265   2.916   5.021  16.592 -0.1121 -1.5061 -0.8858
 2284TIP3   OH228266   0.568   3.207   1.223 -0.0072  0.0192 -0.1357
 2284TIP3    H128267   0.558   3.201   1.128 -0.2588  0.3797 -0.1348
 2284TIP3    H228268   0.486   3.170   1.258  1.1136 -2.5527  0.0176
 2285TIP3   OH228269   1.499   1.900  12.485  0.4228 -0.1565 -0.1657
 2285TIP3    H128270   1.418   1.913  12.534  1.5080 -0.1436  1.7046
 2285TIP3    H228271   1.479   1.934  12.397 -1.6513 -0.3886  0.1538
 2286TIP3   OH228272   1.488   1.217   4.686  0.6413  0.5172  0.1264
 2286TIP3    H128273   1.577   1.250   4.694  0.7896 -0.1368  1.4471
 2286TIP3    H228274   1.435   1.294   4.663  1.2466  1.3261  1.3390
 2287TIP3   OH228275   0.562   1.014  11.611 -0.2247  0.2476 -0.0889
 2287TIP3    H128276   0.511   1.051  11.539  0.7456  1.6499 -0.0929
 2287TIP3    H228277   0.552   0.920  11.601 -1.7237  0.4574 -0.8641
 2288TIP3   OH228278   2.257   2.181  13.688 -0.2107 -0.2596  0.2092
 2288TIP3    H128279   2.250   2.173  13.783  0.0834  0.0499  0.2584
 2288TIP3    H228280   2.351   2.172  13.670 -0.2597 -0.2708 -0.0493
 2289TIP3   OH228281   5.054   2.949  16.394 -0.0946 -0.2538 -0.1903
 2289TIP3    H128282   4.964   2.942  16.425 -0.1660  0.7913 -0.1453
 2289TIP3    H228283   5.106   2.969  16.472  0.0420  0.0772 -0.3605
 2290TIP3   OH228284   0.777   0.676   0.889 -0.3235  0.5261 -0.3133
 2290TIP3    H128285   0.734   0.639   0.966 -1.4202 -1.1074 -1.6242
 2290TIP3    H228286   0.707   0.720   0.840  0.1976  0.8953 -0.7473
 2291TIP3   OH228287   0.965   0.391   1.784 -0.4082  0.1907 -0.6072
 2291TIP3    H128288   1.016   0.387   1.865 -1.7916 -3.7778  0.3143
 2291TIP3    H228289   1.028   0.371   1.715 -0.0071 -0.9425  0.0620
 2292TIP3   OH228290   4.062   0.337   0.601  0.0769 -0.5443 -0.0600
 2292TIP3    H128291   4.126   0.367   0.536 -0.7122 -0.6425 -0.9210
 2292TIP3    H228292   4.045   0.414   0.655  0.8959 -0.5123  0.1687
 2293TIP3   OH228293   4.283   1.007  10.708 -0.0100 -0.1078 -0.2846
 2293TIP3    H128294   4.201   1.021  10.755 -0.8771 -1.7408 -1.1981
 2293TIP3    H228295   4.322   0.931  10.750  1.1540  0.7666  0.2596
 2294TIP3   OH228296   6.470   0.389  11.711 -0.0200 -0.1768 -0.1435
 2294TIP3    H128297   6.530   0.335  11.660  0.8355  1.2053 -0.6591
 2294TIP3    H228298   6.481   0.358  11.801  3.1475  1.3877  0.1593
 2295TIP3   OH228299   3.659   5.612  12.993 -0.0313  0.0068  0.5200
 2295TIP3    H128300   3.567   5.631  12.973  0.1859  0.5610  0.0073
 2295TIP3    H228301   3.704   5.695  12.979  0.6948 -0.4874 -0.1486
 2296TIP3   OH228302   6.450   4.199   2.417  0.1388 -0.1278 -0.7701
 2296TIP3    H128303   6.436   4.265   2.485  1.1204  0.5781 -1.2258
 2296TIP3    H228304   6.396   4.228   2.344  0.5414  0.1614 -0.9571
 2297TIP3   OH228305   3.717   1.068   0.035  0.0762  0.1968 -0.1930
 2297TIP3    H128306   3.724   1.163   0.026  0.6256  0.0474 -1.5818
 2297TIP3    H228307   3.750   1.049   0.123 -0.9175  1.3664  0.4570
 2298TIP3   OH228308   1.085   3.367   3.858 -0.3077  0.4016  0.0721
 2298TIP3    H128309   1.082   3.278   3.895 -0.0576  0.8093  1.0988
 2298TIP3    H228310   1.166   3.368   3.806 -1.0006 -0.3852 -1.0761
 2299TIP3   OH228311   6.203   1.712  14.552 -0.1322 -0.6703  0.0348
 2299TIP3    H128312   6.288   1.673  14.531  0.4835 -0.2355  1.5735
 2299TIP3    H228313   6.225   1.791  14.602 -1.4469 -0.4368  0.2735
 2300TIP3   OH228314   1.313   5.778  14.708 -0.6298  0.1699  0.1835
 2300TIP3    H128315   1.358   5.849  14.754 -1.3215  0.0005  1.1486
 2300TIP3    H228316   1.272   5.820  14.632 -0.4688  0.6804  0.3782
 2301TIP3   OH228317   5.579   5.756  17.019  0.3653 -0.1564 -0.7671
 2301TIP3    H128318   5.586   5.814  16.942  1.5596 -0.4907 -0.9316
 2301TIP3    H228319   5.521   5.803  17.079  1.0805  1.0948 -1.0125
 2302TIP3   OH228320   3.435   1.916  16.333  0.2666  0.1334  0.1276
 2302TIP3    H128321   3.520   1.955  16.355 -1.1198  2.8940  1.1017
 2302TIP3    H228322   3.436   1.830  16.375  2.7636 -0.1587 -0.3902
 2303TIP3   OH228323   6.748   5.439   1.637  0.1292  0.5484  0.1502
 2303TIP3    H128324   6.750   5.534   1.652  0.2913  0.4667  0.6662
 2303TIP3    H228325   6.666   5.423   1.591  0.6933  1.1098 -1.1168
 2304TIP3   OH228326   4.800   4.408  11.325  0.0722 -0.4518 -0.3095
 2304TIP3    H128327   4.863   4.336  11.331 -0.5899 -1.0678 -0.6765
 2304TIP3    H228328   4.797   4.444  11.414 -0.2050 -1.4192  0.0884
 2305TIP3   OH228329   4.612   4.019  15.990 -0.1020  0.1289 -0.0252
 2305TIP3    H128330   4.610   4.033  16.085 -0.6559  1.2774 -0.1915
 2305TIP3    H228331   4.669   4.088  15.956 -1.1690  0.7269 -0.6666
 2306TIP3   OH228332   1.789   6.753   2.460 -0.4768  0.1671  0.4770
 2306TIP3    H128333   1.760   6.790   2.377  2.3336  0.4002 -0.4978
 2306TIP3    H228334   1.878   6.786   2.472  0.5388 -2.6563  1.7942
 2307TIP3   OH228335   3.314   6.089   1.278  0.1624  0.1177 -0.4193
 2307TIP3    H128336   3.226   6.060   1.253  0.4361 -1.9650  0.7443
 2307TIP3    H228337   3.302   6.128   1.365  0.3533  0.0685 -0.3717
 2308TIP3   OH228338   3.276   5.357  14.875 -0.9560 -0.2186 -0.0685
 2308TIP3    H128339   3.338   5.331  14.942  0.9575  1.6505 -0.9838
 2308TIP3    H228340   3.284   5.290  14.806  0.0142 -0.0388 -0.1401
 2309TIP3   OH228341   2.612   0.543  12.289 -0.0759  0.0948 -0.7274
 2309TIP3    H128342   2.528   0.499  12.304 -0.7014  1.2873 -0.6053
 2309TIP3    H228343   2.659   0.535  12.371  0.0388 -0.8006 -0.8767
 2310TIP3   OH228344   3.733   6.646  13.541  0.2417  0.8856 -0.1034
 2310TIP3    H128345   3.705   6.736  13.522 -1.3905  0.1054 -1.8201
 2310TIP3    H228346   3.757   6.611  13.455  0.3290 -0.4822  0.4646
 2311TIP3   OH228347   2.411   2.489  10.263 -0.4779  0.0392  0.3447
 2311TIP3    H128348   2.466   2.506  10.186 -0.2832 -1.4659  0.1159
 2311TIP3    H228349   2.417   2.568  10.315  4.5024 -1.0134  1.9177
 2312TIP3   OH228350   0.527   0.771  15.693 -0.1309  0.2998  0.6996
 2312TIP3    H128351   0.489   0.729  15.771  1.0827  0.5474  1.4453
 2312TIP3    H228352   0.565   0.852  15.726  1.6476 -0.2594  0.1353
 2313TIP3   OH228353   6.778   2.971   6.543 -0.1107 -0.4957  0.1505
 2313TIP3    H128354   6.708   2.943   6.485 -1.2131  0.6133  0.8897
 2313TIP3    H228355   6.743   2.959   6.631  0.1398  1.1854  0.5196
 2314TIP3   OH228356   6.026   6.538  14.747 -0.0871  0.2219  0.1749
 2314TIP3    H128357   5.990   6.580  14.669 -1.7280 -1.4859 -0.0509
 2314TIP3    H228358   5.957   6.547  14.813  0.8037  0.5923  1.0815
 2315TIP3   OH228359   5.531   5.871  13.493  0.3470 -0.4029 -0.7767
 2315TIP3    H128360   5.571   5.816  13.425  0.5966 -0.6712 -0.4177
 2315TIP3    H228361   5.528   5.815  13.570 -0.0422 -0.1354 -0.5965
 2316TIP3   OH228362   4.870   4.939  14.944 -0.2568  0.0521  0.3050
 2316TIP3    H128363   4.878   4.873  15.013 -1.2295 -0.4531 -0.0443
 2316TIP3    H228364   4.911   4.898  14.867 -0.5091  0.0071  0.1919
 2317TIP3   OH228365   2.838   4.236  12.120  0.0768 -0.5808 -0.7012
 2317TIP3    H128366   2.907   4.288  12.079 -0.6461  1.4315  0.4539
 2317TIP3    H228367   2.765   4.238  12.057 -0.5789  1.4210  0.0257
 2318TIP3   OH228368   5.278   0.697  16.676  0.0936  0.4145 -0.6204
 2318TIP3    H128369   5.265   0.790  16.656  0.8030  0.4011 -1.1843
 2318TIP3    H228370   5.294   0.695  16.770 -0.4494  0.8029 -0.5113
 2319TIP3   OH228371   1.462   4.480  16.061 -0.2024 -0.2434 -0.1364
 2319TIP3    H128372   1.549   4.519  16.075  0.2966 -1.4908  0.4025
 2319TIP3    H228373   1.480   4.402  16.008 -1.2448  0.5515 -1.7111
 2320TIP3   OH228374   2.166   6.033  12.553 -0.5298  0.2117  0.5078
 2320TIP3    H128375   2.172   5.974  12.478 -0.8851  0.2619  0.4383
 2320TIP3    H228376   2.249   6.080  12.554 -0.5026  0.1666  0.1835
 2321TIP3   OH228377   4.102   5.348   1.736 -0.1392 -0.4219  0.5451
 2321TIP3    H128378   4.091   5.255   1.718 -2.1152 -0.1849  0.2801
 2321TIP3    H228379   4.196   5.363   1.731  0.0293 -1.7474 -2.8580
 2322TIP3   OH228380   2.864   0.179  15.639  0.4169 -1.0577  0.2017
 2322TIP3    H128381   2.816   0.148  15.715 -0.2627 -1.0804 -0.2359
 2322TIP3    H228382   2.950   0.138  15.647  0.0696 -1.7367  0.5048
 2323TIP3   OH228383   5.159   5.264  14.100  0.0945  0.0054  0.2327
 2323TIP3    H128384   5.230   5.303  14.048 -0.5898  0.5797 -0.2847
 2323TIP3    H228385   5.203   5.200  14.156  0.9396 -0.1036 -0.5395
 2324TIP3   OH228386   1.073   6.774  12.785 -0.2697 -0.0906  0.3458
 2324TIP3    H128387   1.081   6.800  12.693 -0.6745  0.1289  0.3649
 2324TIP3    H228388   1.005   6.832  12.820  0.4048  0.3425  0.9781
 2325TIP3   OH228389   3.474   3.593  11.120  0.0278  0.5899 -0.1065
 2325TIP3    H128390   3.468   3.593  11.024 -0.7430  1.5686 -0.0808
 2325TIP3    H228391   3.386   3.616  11.149  0.2543  0.3009  0.8490
 2326TIP3   OH228392   4.522   0.479   2.193 -0.2538 -0.0188  0.0402
 2326TIP3    H128393   4.518   0.512   2.283 -1.9225  0.0210 -0.0200
 2326TIP3    H228394   4.456   0.529   2.146 -0.6312 -1.2645 -0.7970
 2327TIP3   OH228395   5.034   5.769  15.335 -0.5851  0.2458  0.1695
 2327TIP3    H128396   5.042   5.802  15.246 -1.6201 -1.6666 -0.6930
 2327TIP3    H228397   5.016   5.846  15.388 -0.8423  1.3157 -1.4230
 2328TIP3   OH228398   5.337   0.189   4.954 -0.5365  0.7781 -0.3258
 2328TIP3    H128399   5.350   0.122   4.886  0.0834 -2.2074  2.4553
 2328TIP3    H228400   5.425   0.213   4.982 -0.7708  2.3885 -0.8641
 2329TIP3   OH228401   2.601   1.382  14.352 -0.0252  0.3648  0.1635
 2329TIP3    H128402   2.667   1.346  14.412  0.4691 -3.2010 -2.1693
 2329TIP3    H228403   2.521   1.333  14.373 -1.2231  2.5857  1.0349
 2330TIP3   OH228404   5.108   6.745   0.900  0.5619  0.0427  0.5888
 2330TIP3    H128405   5.202   6.733   0.912  0.9474  1.5587 -0.5974
 2330TIP3    H228406   5.097   6.839   0.889 -1.1492 -0.0725  1.0501
 2331TIP3   OH228407   6.699   2.766   2.238  0.7226 -0.3107 -0.1265
 2331TIP3    H128408   6.785   2.799   2.212  0.1213  1.1819 -0.3100
 2331TIP3    H228409   6.700   2.769   2.333  1.2116 -1.2656 -0.0825
 2332TIP3   OH228410   0.588   0.842   2.535  0.5273  0.5570 -0.0325
 2332TIP3    H128411   0.576   0.787   2.457 -0.5753 -0.0300  0.5341
 2332TIP3    H228412   0.680   0.832   2.557  0.6033 -0.1359 -0.6194
 2333TIP3   OH228413   4.565   3.076   5.891  0.3548  0.0795  0.1847
 2333TIP3    H128414   4.617   3.001   5.859  1.6786  0.1629  2.0124
 2333TIP3    H228415   4.565   3.066   5.986 -2.7381  0.3050  0.3097
 2334TIP3   OH228416   1.221   2.504   3.491 -0.2809  0.4227 -0.4436
 2334TIP3    H128417   1.187   2.578   3.441 -1.4183  1.1218  1.2845
 2334TIP3    H228418   1.277   2.543   3.558 -0.4107 -0.3151  0.1173
 2335TIP3   OH228419   5.573   1.302  15.180 -0.1477  0.2402  0.1204
 2335TIP3    H128420   5.650   1.303  15.237 -0.7955 -0.4754  1.0351
 2335TIP3    H228421   5.504   1.342  15.233 -0.9727 -1.1986  0.1703
 2336TIP3   OH228422   2.351   2.613  15.149 -0.3165  0.3106  0.5829
 2336TIP3    H128423   2.337   2.699  15.109  0.0200 -1.0349 -2.8170
 2336TIP3    H228424   2.443   2.615  15.176 -0.0383  0.7540 -0.3346
 2337TIP3   OH228425   4.775   0.562  13.964 -0.6595  0.3910 -0.1272
 2337TIP3    H128426   4.728   0.526  14.040 -0.1831  1.2101  0.5748
 2337TIP3    H228427   4.732   0.646  13.947 -1.3944 -0.2089 -1.3973
 2338TIP3   OH228428   5.705   5.718   1.480 -0.3607 -0.0840  0.7170
 2338TIP3    H128429   5.687   5.748   1.569 -1.5914 -0.4851  0.6177
 2338TIP3    H228430   5.632   5.753   1.428  1.5205  2.1918 -0.6237
 2339TIP3   OH228431   2.560   1.835  13.586 -0.2148 -0.8385 -0.0376
 2339TIP3    H128432   2.511   1.850  13.506  1.0521  2.5744 -0.3288
 2339TIP3    H228433   2.643   1.798  13.557 -0.1244 -0.4918 -0.2291
 2340TIP3   OH228434   0.526   0.037  15.479 -0.3596  0.1559 -0.2384
 2340TIP3    H128435   0.557  -0.048  15.513 -0.1492 -0.3854 -1.7369
 2340TIP3    H228436   0.475   0.073  15.551  0.3628 -0.7905  0.7957
 2341TIP3   OH228437   2.360   2.387  16.570 -0.0820  0.2289 -0.0451
 2341TIP3    H128438   2.394   2.322  16.507  0.4418 -0.1247  0.5916
 2341TIP3    H228439   2.281   2.347  16.605  1.2704 -1.0002  1.8039
 2342TIP3   OH228440   5.590   1.781   5.784  0.6750  0.2439  0.4214
 2342TIP3    H128441   5.608   1.797   5.876 -0.4003 -0.9976  0.8675
 2342TIP3    H228442   5.652   1.713   5.758 -0.1434 -0.6092  0.6838
 2343TIP3   OH228443   4.374   4.687   4.752  0.2798  0.0335 -0.5097
 2343TIP3    H128444   4.386   4.613   4.693  0.6082  0.7688 -1.3913
 2343TIP3    H228445   4.458   4.733   4.751  0.0689  0.4426 -0.0075
 2344TIP3   OH228446   2.042   6.614   5.372  0.4160  0.2290  0.0887
 2344TIP3    H128447   2.117   6.673   5.379  0.2192  0.4351  0.4821
 2344TIP3    H228448   2.078   6.527   5.389  0.6166  0.2918 -0.0097
 2345TIP3   OH228449   1.753   4.766   6.588  0.4833 -0.0229  0.5454
 2345TIP3    H128450   1.730   4.678   6.559  1.7427 -0.2146  0.0339
 2345TIP3    H228451   1.698   4.782   6.664 -0.7984 -0.6790 -0.2090
 2346TIP3   OH228452   1.631   4.212   4.689  0.3859 -0.0192  0.3124
 2346TIP3    H128453   1.596   4.124   4.676 -1.8528  0.7056  0.8830
 2346TIP3    H228454   1.572   4.268   4.638  0.5924  1.3197  1.4961
 2347TIP3   OH228455   2.454   6.086   3.008 -0.1656 -0.1920  0.0549
 2347TIP3    H128456   2.425   6.111   2.921 -0.4603 -2.3752 -0.5240
 2347TIP3    H228457   2.498   6.002   2.996  0.6778 -0.0724  1.8757
 2348TIP3   OH228458   4.633   2.885  13.859  0.2169 -0.5252  0.5191
 2348TIP3    H128459   4.600   2.975  13.858  0.8834 -0.1877  3.0128
 2348TIP3    H228460   4.654   2.866  13.768 -0.8538  1.4927 -0.1968
 2349TIP3   OH228461   3.293   4.040  14.068 -0.1449  0.0967 -0.4680
 2349TIP3    H128462   3.340   3.975  14.016  2.1362  1.6388 -0.4742
 2349TIP3    H228463   3.308   4.123  14.024 -1.7517  0.8852  0.3461
 2350TIP3   OH228464   0.709   2.137  14.221  0.0017  0.3201 -0.1099
 2350TIP3    H128465   0.616   2.159  14.214 -0.4107 -1.1876  0.1708
 2350TIP3    H228466   0.750   2.214  14.260 -1.1161  1.0348 -0.3087
 2351TIP3   OH228467   6.786   4.597   1.602  0.3143  0.1248 -0.2360
 2351TIP3    H128468   6.833   4.679   1.617  2.5055 -1.2649  1.1053
 2351TIP3    H228469   6.729   4.587   1.678  1.1284 -0.2701  0.3307
 2352TIP3   OH228470   6.113   6.216   5.161 -0.1738 -0.8038 -0.3474
 2352TIP3    H128471   6.075   6.259   5.238  0.6977 -0.3189 -0.1648
 2352TIP3    H228472   6.201   6.255   5.154 -0.7475  0.2214 -2.4367
 2353TIP3   OH228473   3.895   3.575   4.298 -0.0349 -0.3744  0.3652
 2353TIP3    H128474   3.800   3.587   4.294  0.0754  0.4825  0.0478
 2353TIP3    H228475   3.908   3.500   4.355 -0.8564  0.3514  1.5450
 2354TIP3   OH228476   0.977   4.731   5.994  0.2274  0.8415 -0.1561
 2354TIP3    H128477   1.035   4.656   5.984  1.9255  2.1545 -0.6306
 2354TIP3    H228478   1.005   4.773   6.076 -2.7384 -0.6729  1.7889
 2355TIP3   OH228479   2.710   6.454  16.414  0.1336 -0.1311  0.6612
 2355TIP3    H128480   2.662   6.378  16.447  1.3081 -0.7098  1.0942
 2355TIP3    H228481   2.754   6.423  16.335  0.1511  0.2648  0.5090
 2356TIP3   OH228482   0.627   0.251  11.870 -0.2116 -0.1424 -0.2584
 2356TIP3    H128483   0.533   0.234  11.879 -0.2020  0.7209  2.5891
 2356TIP3    H228484   0.664   0.164  11.852 -1.4705 -0.6146 -0.7360
 2357TIP3   OH228485   0.564   3.039  13.176 -0.5541 -0.1384  0.5693
 2357TIP3    H128486   0.652   3.077  13.172 -0.2266 -0.6971  1.8580
 2357TIP3    H228487   0.542   3.041  13.269 -0.2122 -3.6564  0.8587
 2358TIP3   OH228488   6.771   0.595  14.264 -0.0875  0.2896  0.0747
 2358TIP3    H128489   6.709   0.570  14.196  0.7910  0.7001 -0.8943
 2358TIP3    H228490   6.846   0.537  14.251  0.4583  0.9770  0.1168
 2359TIP3   OH228491   4.669   1.502  13.932  0.5426  0.2183 -0.0513
 2359TIP3    H128492   4.753   1.475  13.895  0.4531 -1.3117  0.7871
 2359TIP3    H228493   4.677   1.484  14.025 -0.2520  1.3294  0.2461
 2360TIP3   OH228494   0.282   5.537   2.212 -0.2521 -0.3120 -0.4235
 2360TIP3    H128495   0.260   5.540   2.119 -1.6149 -0.2554 -0.1095
 2360TIP3    H228496   0.219   5.477   2.250 -0.0864  0.1328  0.5761
 2361TIP3   OH228497   0.511   0.359  13.974 -0.5837  0.5967  0.4590
 2361TIP3    H128498   0.585   0.399  13.929  0.3884 -2.1538 -0.6254
 2361TIP3    H228499   0.463   0.312  13.906 -0.1969 -2.0752  1.8587
 2362TIP3   OH228500   1.196   1.468  15.283 -0.0269  0.2861 -0.4301
 2362TIP3    H128501   1.101   1.469  15.275 -0.1067  0.8310  0.4225
 2362TIP3    H228502   1.226   1.541  15.230 -0.2784  1.5982  1.1476
 2363TIP3   OH228503   3.571   3.958  16.852 -0.5666 -0.5335 -0.3445
 2363TIP3    H128504   3.529   3.927  16.932  0.7595  1.1437  1.0791
 2363TIP3    H228505   3.543   4.049  16.844  1.3344  0.0765 -0.3558
 2364TIP3   OH228506   3.799   1.968  11.895  0.2995 -0.5156  0.5775
 2364TIP3    H128507   3.823   1.883  11.859  1.7033  0.0902 -0.0109
 2364TIP3    H228508   3.704   1.964  11.906 -0.0110 -1.2637 -1.7938
 2365TIP3   OH228509   2.016   1.669  13.853  0.4579 -0.2571  0.2599
 2365TIP3    H128510   2.068   1.590  13.867 -1.1484 -0.9988  2.4878
 2365TIP3    H228511   2.015   1.680  13.758  1.7302 -2.1876 -0.0415
 2366TIP3   OH228512   0.938   3.372  15.227  0.0585  0.0302  0.5456
 2366TIP3    H128513   1.033   3.365  15.227  0.3181  2.4993 -0.0251
 2366TIP3    H228514   0.915   3.382  15.134 -0.6200  0.6483  0.7745
 2367TIP3   OH228515   6.128   0.739  14.096 -0.2219 -0.6534  0.1002
 2367TIP3    H128516   6.106   0.676  14.028 -2.0855  0.2987 -0.2706
 2367TIP3    H228517   6.045   0.786  14.112  0.5836  0.2769  1.8204
 2368TIP3   OH228518   0.753   5.894  12.060 -0.3241  0.3460  0.2001
 2368TIP3    H128519   0.743   5.896  11.964  0.8418 -0.6521  0.0429
 2368TIP3    H228520   0.748   5.802  12.083 -1.4858  0.6365  1.2390
 2369TIP3   OH228521   1.398   2.604   3.679  0.0803  0.5750 -0.2139
 2369TIP3    H128522   1.477   2.600   3.733 -0.1632  1.1422  0.1932
 2369TIP3    H228523   1.328   2.626   3.740 -0.4202 -0.0432 -0.5534
 2370TIP3   OH228524   0.325   3.655  16.722  0.1632  0.0618 -0.1789
 2370TIP3    H128525   0.292   3.594  16.787 -0.1300 -0.4981 -0.8408
 2370TIP3    H228526   0.265   3.646  16.648  1.8903 -1.1460 -1.5096
 2371TIP3   OH228527   2.030   4.227  14.075 -0.4834 -0.2042  0.7591
 2371TIP3    H128528   1.961   4.236  14.009  0.1914  1.4132  0.2147
 2371TIP3    H228529   2.109   4.206  14.025 -0.0881  0.4504  1.0958
 2372TIP3   OH228530   5.697   0.413   0.331 -0.2133  0.1032 -0.9758
 2372TIP3    H128531   5.615   0.379   0.296  0.8691 -0.4504 -3.1847
 2372TIP3    H228532   5.765   0.361   0.288  1.4085  2.6987 -1.8348
 2373TIP3   OH228533   6.784   5.965   3.910  0.1402  0.3915  0.0759
 2373TIP3    H128534   6.725   6.031   3.873  1.0848  2.4050  1.9371
 2373TIP3    H228535   6.862   6.013   3.935  1.8638 -1.8870 -0.5756
 2374TIP3   OH228536   0.497   3.325  13.321 -0.2017  0.2908  0.0783
 2374TIP3    H128537   0.417   3.360  13.361  1.0762  0.5615  2.6338
 2374TIP3    H228538   0.512   3.242  13.366  1.4766  0.7433  0.4248
 2375TIP3   OH228539   3.555   5.907  15.575 -0.2397 -0.0634  0.3068
 2375TIP3    H128540   3.530   5.909  15.667  1.2553 -1.5014  0.7636
 2375TIP3    H228541   3.472   5.891  15.529 -1.0304  0.8380  1.3397
 2376TIP3   OH228542   0.174   5.637   5.838  0.3188 -0.2344  0.0937
 2376TIP3    H128543   0.097   5.649   5.783  0.8441 -0.7567 -0.7915
 2376TIP3    H228544   0.142   5.645   5.927 -1.4004 -3.3768 -0.0786
 2377TIP3   OH228545   6.744   5.057   3.633 -0.2132  0.1853  0.3028
 2377TIP3    H128546   6.735   5.137   3.581 -1.3199  0.5021  0.9454
 2377TIP3    H228547   6.782   5.087   3.716  1.9827 -0.3820 -0.4321
 2378TIP3   OH228548   2.513   3.575   0.508 -0.4913  0.3040  0.0013
 2378TIP3    H128549   2.579   3.506   0.510  0.8813  1.5650  1.3707
 2378TIP3    H228550   2.452   3.551   0.577 -1.8615 -1.1471 -1.6155
 2379TIP3   OH228551   2.325   5.825   4.375 -0.2821 -0.5557  0.0911
 2379TIP3    H128552   2.343   5.892   4.309 -1.2889  0.4791  0.8197
 2379TIP3    H228553   2.357   5.863   4.457 -1.4832 -0.6474  0.6281
 2380TIP3   OH228554   1.205   0.980  14.107  0.1358  0.5186  0.1089
 2380TIP3    H128555   1.271   1.024  14.162 -1.4615  1.3992  1.4023
 2380TIP3    H228556   1.150   1.051  14.075 -1.0780 -0.3186  0.2923
 2381TIP3   OH228557   5.639   2.291   0.391  0.7524  0.7245 -0.3652
 2381TIP3    H128558   5.697   2.329   0.457 -1.2498  0.5219  1.6237
 2381TIP3    H228559   5.595   2.219   0.436  0.3097 -0.3107 -2.3558
 2382TIP3   OH228560   0.366   0.153  15.696 -0.0674 -0.2069 -0.0471
 2382TIP3    H128561   0.412   0.158  15.780  2.4947 -0.5144 -1.3397
 2382TIP3    H228562   0.330   0.241  15.683 -1.1414 -0.3533  1.6561
 2383TIP3   OH228563   5.164   0.067  11.385  0.2964 -0.2238 -0.1494
 2383TIP3    H128564   5.214   0.070  11.303  0.1659 -0.6497 -0.2472
 2383TIP3    H228565   5.178   0.153  11.424 -0.6805  0.4696 -1.2359
 2384TIP3   OH228566   4.427   4.362   0.808  0.2184 -0.0463 -0.2554
 2384TIP3    H128567   4.460   4.380   0.896  2.7049 -0.3419 -1.0325
 2384TIP3    H228568   4.398   4.448   0.776 -2.9156 -0.2909  1.5709
 2385TIP3   OH228569   6.369   1.972  12.916 -0.1122  0.7015  0.0240
 2385TIP3    H128570   6.298   1.919  12.881  1.3595 -1.5778  0.2756
 2385TIP3    H228571   6.427   1.987  12.842  0.6756 -0.1492  0.4456
 2386TIP3   OH228572   4.032   1.308  16.614 -0.0984 -0.0149  0.6168
 2386TIP3    H128573   3.980   1.338  16.540 -0.7700 -1.1150  0.6274
 2386TIP3    H228574   4.092   1.380  16.632 -0.9449  0.8701 -0.0333
 2387TIP3   OH228575   0.611   4.299  11.358  0.1844  0.7090 -0.6202
 2387TIP3    H128576   0.696   4.254  11.358 -0.8644 -1.4145 -1.9676
 2387TIP3    H228577   0.563   4.259  11.430  0.1261  1.5522 -0.1803
 2388TIP3   OH228578   2.640   3.951   1.513  0.1452  0.0103 -0.2175
 2388TIP3    H128579   2.729   3.918   1.522  0.5120  1.0357  0.0297
 2388TIP3    H228580   2.611   3.966   1.603  0.3928  1.3787 -0.3452
 2389TIP3   OH228581   1.027   6.106   2.352 -0.1100 -0.6158 -0.2011
 2389TIP3    H128582   1.113   6.127   2.389 -0.0910 -0.3607 -0.3887
 2389TIP3    H228583   0.965   6.145   2.413 -0.1008 -0.9489  0.0288
 2390TIP3   OH228584   3.933   2.143   0.245  0.3503 -0.2799 -0.6378
 2390TIP3    H128585   3.969   2.231   0.256  1.4960 -1.0353  2.7731
 2390TIP3    H228586   3.867   2.153   0.177  0.8580  3.0705 -0.8147
 2391TIP3   OH228587   6.258   6.119  15.684 -0.0493 -0.3315  0.1888
 2391TIP3    H128588   6.353   6.119  15.697 -0.0731  0.4539  0.4338
 2391TIP3    H228589   6.238   6.208  15.655 -0.6504 -0.6375 -0.3702
 2392TIP3   OH228590   4.204   3.623  11.656 -0.4495  0.3243 -0.4595
 2392TIP3    H128591   4.265   3.564  11.701 -2.0150 -0.7078  0.4692
 2392TIP3    H228592   4.235   3.626  11.566 -0.4259 -2.1986 -0.6221
 2393TIP3   OH228593   2.166   0.442   6.399 -0.0474  0.5339  0.3026
 2393TIP3    H128594   2.225   0.394   6.457 -0.4523 -0.9633 -0.4843
 2393TIP3    H228595   2.200   0.427   6.311 -1.3362 -0.0237 -0.1308
 2394TIP3   OH228596   0.844   6.725  14.598 -0.4073  0.0995  0.1447
 2394TIP3    H128597   0.940   6.721  14.591 -0.5000 -1.3561 -0.8855
 2394TIP3    H228598   0.813   6.656  14.539 -2.0685 -0.0215  1.0901
 2395TIP3   OH228599   4.878   2.774   1.998 -0.2905  0.0656 -0.3547
 2395TIP3    H128600   4.954   2.767   2.056  0.4711 -2.5952 -1.5039
 2395TIP3    H228601   4.810   2.814   2.052  1.2561  0.4637  1.3967
 2396TIP3   OH228602   3.970   1.384  14.104 -0.0681  0.1017  0.3112
 2396TIP3    H128603   4.029   1.386  14.029 -1.6825 -3.3499 -1.2761
 2396TIP3    H228604   3.896   1.438  14.078 -1.0994 -1.9157 -1.1532
 2397TIP3   OH228605   3.542   0.435  11.883 -0.1004  0.1307  0.7933
 2397TIP3    H128606   3.600   0.406  11.812 -0.9936  0.8744 -0.2862
 2397TIP3    H228607   3.581   0.398  11.962  1.0867 -0.5089 -0.0433
 2398TIP3   OH228608   6.175   0.341   4.959 -0.6158 -0.4210 -0.2915
 2398TIP3    H128609   6.266   0.327   4.985 -0.3157  0.6501 -0.7104
 2398TIP3    H228610   6.140   0.253   4.946 -0.6567 -1.0570  3.1743
 2399TIP3   OH228611   3.193   2.310  14.885  0.2231  0.1805  0.3294
 2399TIP3    H128612   3.159   2.247  14.947 -0.2724 -0.6928 -0.7876
 2399TIP3    H228613   3.288   2.310  14.900  0.0331  0.5516  1.5722
 2400TIP3   OH228614   5.258   1.524  12.730  0.8215 -0.5830  0.1443
 2400TIP3    H128615   5.330   1.585  12.746  1.1128  0.2048 -3.2719
 2400TIP3    H228616   5.180   1.569  12.764  1.4848  0.1723  0.6856
 2401TIP3   OH228617   5.027   6.450   4.392  0.5390 -0.2326  0.3038
 2401TIP3    H128618   5.006   6.482   4.480 -2.3259 -0.5815 -0.1597
 2401TIP3    H228619   4.995   6.360   4.390  0.1956 -0.1114 -1.1883
 2402TIP3   OH228620   5.667   2.566   2.067  0.2083  0.1167  0.1244
 2402TIP3    H128621   5.595   2.556   2.004  0.4980 -0.1531 -0.1678
 2402TIP3    H228622   5.733   2.504   2.037  0.5225  0.2929  0.4539
 2403TIP3   OH228623   3.652   3.269   6.533 -0.2633 -0.3747  0.4409
 2403TIP3    H128624   3.703   3.330   6.480  2.2074  0.1775  3.1719
 2403TIP3    H228625   3.673   3.183   6.498  0.8595  0.0000  0.1423
 2404TIP3   OH228626   2.776   0.159  11.709  0.0464  0.0525 -0.1946
 2404TIP3    H128627   2.801   0.234  11.656  0.5888 -0.6753 -0.9819
 2404TIP3    H228628   2.823   0.172  11.792 -0.4767  0.9736 -0.0274
 2405TIP3   OH228629   2.965   3.508  12.886 -0.0639  0.1992 -0.2684
 2405TIP3    H128630   2.949   3.536  12.796  0.3962  1.1851 -0.0615
 2405TIP3    H228631   3.057   3.484  12.888  0.6108  2.5587  0.4850
 2406TIP3   OH228632   6.544   2.257  15.293 -0.1572 -0.3159 -0.4810
 2406TIP3    H128633   6.523   2.343  15.255  1.1008  0.3526  0.2386
 2406TIP3    H228634   6.527   2.195  15.223 -0.3899  0.6114 -1.2740
 2407TIP3   OH228635   1.659   1.452  11.207  0.3669 -0.1797 -0.2112
 2407TIP3    H128636   1.745   1.465  11.245  0.0572 -2.3558  1.4082
 2407TIP3    H228637   1.672   1.386  11.140 -0.2684 -1.9211  1.3053
 2408TIP3   OH228638   2.866   3.521  16.082 -0.0282  0.5973 -0.2671
 2408TIP3    H128639   2.797   3.521  16.016 -0.2032  3.6477 -0.2086
 2408TIP3    H228640   2.948   3.527  16.032  0.3304 -2.7099 -0.3212
 2409TIP3   OH228641   1.985   6.352  14.951 -0.4936 -0.0276  0.7674
 2409TIP3    H128642   1.942   6.331  15.034 -2.4030  0.8644  0.0670
 2409TIP3    H228643   1.941   6.297  14.886  0.4389 -0.1488  0.2219
 2410TIP3   OH228644   6.583   3.950   5.809 -0.2161  0.7949 -0.0177
 2410TIP3    H128645   6.628   3.870   5.785 -0.4006  0.0483  1.9206
 2410TIP3    H228646   6.559   3.938   5.901 -1.5946  2.4532 -0.0943
 2411TIP3   OH228647   5.611   5.422   5.800 -0.0198  0.2117  0.2179
 2411TIP3    H128648   5.669   5.474   5.744  0.2291  1.5864  1.6649
 2411TIP3    H228649   5.530   5.473   5.805  0.3628  0.7192  1.9729
 2412TIP3   OH228650   2.572   6.703   4.437  0.2640 -0.1896  0.4415
 2412TIP3    H128651   2.607   6.791   4.426  1.3460 -0.3725  1.9856
 2412TIP3    H228652   2.536   6.703   4.526  0.1670 -1.2586  0.4144
 2413TIP3   OH228653   6.218   5.519   6.541  0.1610 -0.6901  0.2215
 2413TIP3    H128654   6.264   5.536   6.623 -0.5211 -2.3383  1.0030
 2413TIP3    H228655   6.287   5.514   6.475  0.8530 -0.5917  0.9245
 2414TIP3   OH228656   6.342   4.529   4.194  0.0967  0.2639 -0.6927
 2414TIP3    H128657   6.306   4.593   4.256 -1.1669 -0.6674 -0.4197
 2414TIP3    H228658   6.367   4.580   4.118 -0.6647  1.1159 -0.3860
 2415TIP3   OH228659   2.917   4.565   4.070  0.4365 -0.2894  0.5995
 2415TIP3    H128660   2.958   4.502   4.129 -1.4528 -1.6157  0.5785
 2415TIP3    H228661   2.877   4.630   4.128 -1.0763 -1.3753  0.8511
 2416TIP3   OH228662   6.498   4.782  13.936 -1.0058  0.6663 -0.3835
 2416TIP3    H128663   6.488   4.821  13.850  0.9211  0.1679 -0.8845
 2416TIP3    H228664   6.489   4.855  13.997  0.7205  1.6076 -1.2047
 2417TIP3   OH228665   0.573   1.527  15.491 -0.7045  0.6504  0.1154
 2417TIP3    H128666   0.497   1.471  15.476 -1.2617  1.1853  0.8644
 2417TIP3    H228667   0.551   1.609  15.447  1.2594 -0.5107 -3.4076
 2418TIP3   OH228668   4.266   3.330  14.759 -0.2363 -0.9273  0.3444
 2418TIP3    H128669   4.194   3.295  14.811  0.8868 -0.9152  1.9911
 2418TIP3    H228670   4.302   3.255  14.713 -0.0847 -1.3126  1.0675
 2419TIP3   OH228671   5.647   0.953   5.317 -0.4698  0.2046  0.7809
 2419TIP3    H128672   5.671   1.045   5.305 -1.7733  0.4554 -0.2336
 2419TIP3    H228673   5.724   0.913   5.356  0.0634  1.7625  1.4118
 2420TIP3   OH228674   1.231   0.396   2.717 -0.0796  0.3358  0.1471
 2420TIP3    H128675   1.247   0.451   2.795  0.7221  0.3338 -0.0117
 2420TIP3    H228676   1.246   0.455   2.643 -1.1744  0.4311 -0.0228
 2421TIP3   OH228677   2.791   4.501   3.818 -0.5008 -0.5288  0.0283
 2421TIP3    H128678   2.810   4.509   3.912 -0.4668  0.8209 -0.0789
 2421TIP3    H228679   2.864   4.545   3.775 -2.0395  1.6657 -0.4955
 2422TIP3   OH228680   6.433   4.063  15.794 -0.6235 -0.1806  0.0124
 2422TIP3    H128681   6.508   4.079  15.736  0.0258 -0.2806  0.7944
 2422TIP3    H228682   6.458   3.985  15.844 -0.7436  0.4260  1.0665
 2423TIP3   OH228683   6.699   1.171  12.201  0.3768 -0.3947  0.2831
 2423TIP3    H128684   6.787   1.193  12.233  1.0850  0.8737 -2.2694
 2423TIP3    H228685   6.640   1.221  12.257  1.5810  2.2572 -0.6530
 2424TIP3   OH228686   3.457   5.553   1.387 -0.1571  0.2452  0.0110
 2424TIP3    H128687   3.460   5.641   1.350  1.4489 -0.6910 -2.4043
 2424TIP3    H228688   3.523   5.553   1.456 -0.2904  0.9675  0.1466
 2425TIP3   OH228689   4.652   1.937   4.397  0.4387  0.1041 -0.2003
 2425TIP3    H128690   4.649   2.032   4.407  0.7934  0.0405  0.5597
 2425TIP3    H228691   4.745   1.915   4.401  0.3229 -0.3304  0.2768
 2426TIP3   OH228692   5.340   1.167  13.064  0.5240  0.8685 -0.0141
 2426TIP3    H128693   5.333   1.119  12.981 -0.7243  0.3065  0.3860
 2426TIP3    H228694   5.354   1.098  13.129  3.5202  1.4303  0.0845
 2427TIP3   OH228695   5.683   5.401  11.988  0.2320 -0.0386  0.0964
 2427TIP3    H128696   5.630   5.380  11.911 -0.5267 -0.3175  0.6759
 2427TIP3    H228697   5.622   5.448  12.046  0.3721 -1.0695  1.1173
 2428TIP3   OH228698   4.481   2.511   2.667  0.2072 -0.2178  0.3077
 2428TIP3    H128699   4.557   2.556   2.632  0.5166 -0.4243  0.7040
 2428TIP3    H228700   4.406   2.551   2.622  0.3682  1.5407  1.4749
 2429TIP3   OH228701   4.234   3.284   4.508 -0.2848  0.0431  0.2809
 2429TIP3    H128702   4.319   3.258   4.544 -0.4671 -0.8067  0.1269
 2429TIP3    H228703   4.224   3.231   4.429  0.6411  2.6915 -1.7797
 2430TIP3   OH228704   4.566   3.651  13.721 -0.3841  0.0486 -0.1897
 2430TIP3    H128705   4.598   3.728  13.676  1.1618 -0.0018  0.7326
 2430TIP3    H228706   4.551   3.680  13.811  0.2015 -0.6956  0.1656
 2431TIP3   OH228707   4.233   4.921  11.972 -0.0235 -0.5188  0.4032
 2431TIP3    H128708   4.300   4.863  12.008  1.1662 -0.4565 -1.5690
 2431TIP3    H228709   4.191   4.869  11.902 -0.5266  0.2016  0.1607
 2432TIP3   OH228710   2.813   2.301   1.952  0.0150  0.6353 -0.2165
 2432TIP3    H128711   2.742   2.237   1.949  0.2315  0.3771  0.0679
 2432TIP3    H228712   2.802   2.344   2.037  0.9090 -0.2387  0.3704
 2433TIP3   OH228713   5.663   3.663  11.724 -0.1600 -0.5059 -0.0478
 2433TIP3    H128714   5.636   3.725  11.792  0.5229  0.5025 -0.6540
 2433TIP3    H228715   5.676   3.580  11.771  0.3447  0.1692  1.0711
 2434TIP3   OH228716   2.205   4.312   0.603 -0.4133 -0.2514  0.0271
 2434TIP3    H128717   2.216   4.400   0.567  1.8468 -1.3985 -2.4758
 2434TIP3    H228718   2.293   4.286   0.630 -0.5767 -2.4825 -1.3277
 2435TIP3   OH228719   2.401   5.767   2.213  0.0188  0.7380  0.0008
 2435TIP3    H128720   2.321   5.719   2.193  0.5830 -0.0568 -0.3958
 2435TIP3    H228721   2.425   5.737   2.301 -0.0846  0.9294  0.0946
 2436TIP3   OH228722   2.375   6.201  12.702  0.1965  0.0242 -0.3886
 2436TIP3    H128723   2.436   6.191  12.628  0.1934  0.7768 -0.4965
 2436TIP3    H228724   2.340   6.289  12.692 -1.6500 -0.7257 -0.8742
 2437TIP3   OH228725   1.404   2.131   1.599 -0.2303  0.1414 -0.2019
 2437TIP3    H128726   1.405   2.086   1.515 -2.5783  1.7247 -1.1949
 2437TIP3    H228727   1.422   2.223   1.577 -1.1237  0.6232  0.9554
 2438TIP3   OH228728   2.103   3.349   4.295  0.1415 -0.2276  0.0170
 2438TIP3    H128729   2.086   3.435   4.335  0.1005 -0.2648  0.0795
 2438TIP3    H228730   2.016   3.311   4.284  0.1237 -0.0538 -0.4660
 2439TIP3   OH228731   6.789   4.963  12.908  0.0910  0.2097  0.4452
 2439TIP3    H128732   6.876   4.979  12.874  0.3195  0.1558  0.9919
 2439TIP3    H228733   6.742   4.920  12.837  1.0632 -1.4075  0.7367
 2440TIP3   OH228734   6.154   0.827  12.273 -0.0370 -0.2194 -0.1235
 2440TIP3    H128735   6.212   0.862  12.205  0.4982 -1.3410 -0.2609
 2440TIP3    H228736   6.108   0.755  12.230 -1.0704  0.2537  0.1710
 2441TIP3   OH228737   3.746   3.668   2.414  0.0345  0.3278  0.4029
 2441TIP3    H128738   3.677   3.734   2.406 -0.2938 -0.1438 -0.8225
 2441TIP3    H228739   3.761   3.637   2.325  0.7033 -0.7313  0.8602
 2442TIP3   OH228740   1.349   6.124   1.000  0.0382  0.3709 -0.0532
 2442TIP3    H128741   1.349   6.125   1.096  0.0520  0.5125 -0.0554
 2442TIP3    H228742   1.415   6.059   0.977 -1.9735 -1.8734  0.0629
 2443TIP3   OH228743   1.144   4.974   5.667 -0.1767 -0.1201 -0.3419
 2443TIP3    H128744   1.061   4.939   5.699  0.0475 -1.7223 -1.3654
 2443TIP3    H228745   1.209   4.936   5.726 -0.2248  2.2363  1.3172
 2444TIP3   OH228746   1.933   0.122  17.126  0.2691  0.0665  0.5458
 2444TIP3    H128747   1.998   0.192  17.131 -0.5755  0.9966 -0.9344
 2444TIP3    H228748   1.902   0.112  17.216 -1.0884  3.0871  0.5328
 2445TIP3   OH228749   5.892   1.105   2.368  0.4597  0.1516  0.1980
 2445TIP3    H128750   5.798   1.121   2.374  0.4248  0.6112 -1.2497
 2445TIP3    H228751   5.931   1.173   2.422 -0.0281  0.0785  0.6485
 2446TIP3   OH228752   3.215   1.677   4.752  0.5111 -0.0722  0.0979
 2446TIP3    H128753   3.146   1.743   4.758 -1.6355 -2.3128  1.6540
 2446TIP3    H228754   3.171   1.594   4.767  2.8875 -2.0898 -2.8623
 2447TIP3   OH228755   1.594   5.767  12.156  0.0279 -0.3947  0.5219
 2447TIP3    H128756   1.679   5.784  12.197  0.3413 -0.0995 -0.2310
 2447TIP3    H228757   1.613   5.705  12.086 -0.0469  1.0321 -0.8253
 2448TIP3   OH228758   5.509   4.989   4.916 -0.0231  0.6078  0.3333
 2448TIP3    H128759   5.589   4.960   4.962 -1.5315 -2.4875  1.2900
 2448TIP3    H228760   5.453   5.024   4.986 -1.3911 -1.9245  0.6207
 2449TIP3   OH228761   6.423   2.430  16.744  0.0983 -0.7801 -0.0656
 2449TIP3    H128762   6.351   2.467  16.692  0.4730  0.3503  0.1982
 2449TIP3    H228763   6.408   2.335  16.741  0.2378 -0.7997 -2.4165
 2450TIP3   OH228764   0.364   6.735   6.406 -0.0921  0.5928  0.1945
 2450TIP3    H128765   0.329   6.656   6.447 -2.5393  1.0153 -0.9131
 2450TIP3    H228766   0.426   6.702   6.340  0.2294 -0.2862  0.9033
 2451TIP3   OH228767   3.971   3.324   3.271  0.2139 -0.8922  0.0623
 2451TIP3    H128768   3.878   3.327   3.296  0.6488 -1.0912  1.8116
 2451TIP3    H228769   4.011   3.397   3.317  1.0237 -1.0891 -0.3061
 2452TIP3   OH228770   5.384   0.032  15.338  0.7901 -0.2361 -0.1622
 2452TIP3    H128771   5.472   0.057  15.365  1.3038 -1.1594 -0.9425
 2452TIP3    H228772   5.362  -0.042  15.395  1.0237 -0.8129 -0.8187
 2453TIP3   OH228773   4.361   5.733   1.767  0.2476  0.1312  0.0977
 2453TIP3    H128774   4.437   5.790   1.773  0.0573  0.4247 -0.2803
 2453TIP3    H228775   4.378   5.664   1.831  1.3259 -0.3817 -0.7038
 2454TIP3   OH228776   1.828   6.555   2.032 -0.3398 -0.0666 -0.2694
 2454TIP3    H128777   1.873   6.480   1.993  0.2667  0.7547 -1.2131
 2454TIP3    H228778   1.897   6.621   2.042 -0.9829  0.5736 -0.0320
 2455TIP3   OH228779   5.803   2.987  11.664 -0.2833  0.9928  0.1243
 2455TIP3    H128780   5.819   3.068  11.713  0.7256 -0.1602  1.8110
 2455TIP3    H228781   5.887   2.942  11.664 -1.4070 -1.2625  1.5564
 2456TIP3   OH228782   1.200   3.350   1.101 -0.0218 -0.3071  0.3599
 2456TIP3    H128783   1.246   3.321   1.022  0.4476 -0.4759  0.6929
 2456TIP3    H228784   1.221   3.443   1.108  0.7517 -0.5136  0.8350
 2457TIP3   OH228785   2.282   1.672   0.909 -0.0262 -0.0374  0.1783
 2457TIP3    H128786   2.330   1.706   0.833  0.3759 -0.3741  0.2802
 2457TIP3    H228787   2.218   1.740   0.929 -2.4170 -1.2862 -2.4998
 2458TIP3   OH228788   6.084   6.612  12.938 -0.1155 -0.0079 -0.2836
 2458TIP3    H128789   6.136   6.612  13.018 -0.5080  0.1143 -0.0228
 2458TIP3    H228790   6.055   6.702  12.927  0.4072  0.0915 -0.8809
 2459TIP3   OH228791   1.059   0.452   6.559 -0.2607 -0.6785 -0.3922
 2459TIP3    H128792   1.084   0.542   6.542 -0.1595 -0.5480  0.4090
 2459TIP3    H228793   0.977   0.440   6.511 -1.3034  0.4330  1.0299
 2460TIP3   OH228794   0.707   4.401  13.234  0.1817 -0.6582 -0.2410
 2460TIP3    H128795   0.739   4.491  13.233  0.1654 -0.6490 -1.9218
 2460TIP3    H228796   0.612   4.409  13.222  0.1008 -0.8913  0.2049
 2461TIP3   OH228797   6.409   6.795  15.114  0.3557 -0.8732  0.6215
 2461TIP3    H128798   6.321   6.776  15.081 -0.1030 -0.4154  1.5460
 2461TIP3    H228799   6.404   6.778  15.208  0.7353  0.8552  1.0066
 2462TIP3   OH228800   4.855   2.016   4.017  0.2651 -0.5700  0.6371
 2462TIP3    H128801   4.867   2.062   4.101  0.6338  3.0854 -1.2370
 2462TIP3    H228802   4.763   2.028   3.996  0.3840 -0.6345  0.0683
 2463TIP3   OH228803   4.946   4.514   2.229 -0.9194 -0.1854  0.2646
 2463TIP3    H128804   5.033   4.474   2.236 -1.1990 -0.5839  1.7514
 2463TIP3    H228805   4.954   4.575   2.156  0.8509  0.3322  0.8296
 2464TIP3   OH228806   3.138   4.102  14.287  0.2333  0.3222 -0.0356
 2464TIP3    H128807   3.209   4.084  14.224 -0.1592 -1.4358 -0.0154
 2464TIP3    H228808   3.183   4.126  14.368  0.7511  1.7091 -0.6904
 2465TIP3   OH228809   0.789   4.988  15.824 -0.0496 -0.0815  0.5228
 2465TIP3    H128810   0.854   4.918  15.820 -0.2628 -0.2295 -0.4369
 2465TIP3    H228811   0.841   5.068  15.839  0.4276 -0.1138 -0.8398
 2466TIP3   OH228812   2.548   1.749  15.871  0.1374  0.1373  0.7767
 2466TIP3    H128813   2.606   1.770  15.798 -0.3864 -0.6237  0.1235
 2466TIP3    H228814   2.462   1.781  15.843 -0.6815 -2.6004 -0.2278
 2467TIP3   OH228815   2.020   4.016   6.085  0.2014 -0.2078 -0.1955
 2467TIP3    H128816   1.999   4.109   6.084  0.3957 -0.1212  1.3545
 2467TIP3    H228817   2.115   4.013   6.075  0.0770 -0.3113 -1.4372
 2468TIP3   OH228818   6.436   1.110  14.104 -0.2372  0.1970 -0.2433
 2468TIP3    H128819   6.422   1.018  14.083  0.0033  0.2998 -0.8867
 2468TIP3    H228820   6.528   1.117  14.126 -0.2661  0.2712 -0.1449
 2469TIP3   OH228821   5.108   3.677  16.265  0.5006 -0.2206 -0.1667
 2469TIP3    H128822   5.129   3.751  16.208 -0.5219  0.4442  0.2877
 2469TIP3    H228823   5.102   3.715  16.353 -3.0580 -0.1628 -0.2796
 2470TIP3   OH228824   0.042   3.163   0.748  0.0764  0.5583 -0.0585
 2470TIP3    H128825   0.010   3.073   0.754 -1.0784  0.9594  0.0560
 2470TIP3    H228826  -0.001   3.209   0.821  1.0592  1.0919  0.2083
 2471TIP3   OH228827   3.167   5.038  13.586 -0.5698  0.2403  0.2113
 2471TIP3    H128828   3.253   5.035  13.544 -0.4366 -0.9751  0.5147
 2471TIP3    H228829   3.106   5.013  13.517 -0.5747  0.2206  0.2226
 2472TIP3   OH228830   2.564   3.120  11.223 -0.5044 -0.4592 -0.1497
 2472TIP3    H128831   2.619   3.084  11.153 -0.4330 -0.7595  0.0608
 2472TIP3    H228832   2.618   3.186  11.265 -0.6095 -0.1514 -0.4892
 2473TIP3   OH228833   6.227   3.707   5.821 -0.2973 -0.1340 -0.1869
 2473TIP3    H128834   6.321   3.691   5.822 -0.1183  0.2231 -3.1818
 2473TIP3    H228835   6.188   3.623   5.847  0.8459 -1.1246 -1.4931
 2474TIP3   OH228836   4.062   3.425   2.565 -0.2169  0.5725 -0.2443
 2474TIP3    H128837   4.004   3.393   2.495  0.5298  2.1254 -1.6542
 2474TIP3    H228838   4.148   3.391   2.543 -0.1995 -0.0112  0.6840
 2475TIP3   OH228839   3.276   1.081   0.195 -0.3657  0.5021 -0.4404
 2475TIP3    H128840   3.232   1.085   0.280 -0.5631 -1.8872 -0.3736
 2475TIP3    H228841   3.218   1.029   0.140  1.2190 -0.6751 -1.0740
 2476TIP3   OH228842   1.736   3.751   6.240  0.5001  0.4069  0.0975
 2476TIP3    H128843   1.692   3.666   6.239  1.2126  0.0296 -0.7262
 2476TIP3    H228844   1.798   3.746   6.168 -0.5661  2.2263 -1.0201
 2477TIP3   OH228845   3.417   1.133   4.680  0.5121 -0.1958 -0.1949
 2477TIP3    H128846   3.348   1.174   4.730 -1.8504 -0.3373 -3.0481
 2477TIP3    H228847   3.423   1.184   4.599  2.7294 -1.0836 -0.6996
 2478TIP3   OH228848   2.172   3.909  12.057 -0.1783  0.4768  0.0375
 2478TIP3    H128849   2.260   3.877  12.082  0.1569  0.4784 -1.0920
 2478TIP3    H228850   2.137   3.948  12.137  0.0699 -1.2452  1.0404
 2479TIP3   OH228851   5.685   2.336   5.770  0.4183  0.8023  0.0068
 2479TIP3    H128852   5.745   2.272   5.809  1.2635  1.4135 -0.2578
 2479TIP3    H228853   5.606   2.331   5.823  0.5698 -0.2799  0.1409
 2480TIP3   OH228854   2.614   1.594   5.389 -0.1496  0.0856  0.1193
 2480TIP3    H128855   2.581   1.609   5.477 -1.9728  1.1431 -0.7084
 2480TIP3    H228856   2.629   1.682   5.353 -0.8501 -0.2850 -1.1315
 2481TIP3   OH228857   0.314   5.102  13.385 -0.3172 -0.0347 -0.2121
 2481TIP3    H128858   0.380   5.123  13.319 -1.3228  1.0341 -0.9222
 2481TIP3    H228859   0.340   5.152  13.463 -0.3471  0.4877 -0.5330
 2482TIP3   OH228860   0.789   0.675  16.344 -0.8473 -0.0209  0.4164
 2482TIP3    H128861   0.864   0.693  16.400  0.8828 -2.1751 -1.0488
 2482TIP3    H228862   0.726   0.631  16.401 -0.1394 -0.0293  1.2126
 2483TIP3   OH228863   4.463   0.099   1.298 -0.0986 -0.1347  0.1322
 2483TIP3    H128864   4.553   0.119   1.323  0.1225  0.5157 -1.0727
 2483TIP3    H228865   4.409   0.157   1.352  0.2499 -0.0286  0.3658
 2484TIP3   OH228866   5.059   1.236  16.975  0.2579  0.4781  0.0113
 2484TIP3    H128867   5.063   1.141  16.984 -0.0716  0.4292 -0.3286
 2484TIP3    H228868   4.991   1.263  17.037  0.8165  0.5631  0.5904
 2485TIP3   OH228869   0.057   5.667   5.172  0.1838  0.6082  0.2200
 2485TIP3    H128870   0.131   5.722   5.199  1.3595 -0.1203 -1.3199
 2485TIP3    H228871   0.099   5.587   5.138 -1.3004  0.2885 -0.9517
 2486TIP3   OH228872   4.112   5.285  16.635  0.5270  0.5107 -0.1591
 2486TIP3    H128873   4.020   5.268  16.654  0.0040  1.3337 -1.7350
 2486TIP3    H228874   4.129   5.234  16.556  0.4450  2.8573 -1.7919
 2487TIP3   OH228875   3.907   4.629  12.879 -0.4387  0.0435  0.0343
 2487TIP3    H128876   3.827   4.683  12.878 -0.9297 -0.5556 -2.5059
 2487TIP3    H228877   3.881   4.548  12.834  1.5342 -0.2608 -0.6547
 2488TIP3   OH228878   2.074   5.850   3.030  0.1465  0.1027  0.2835
 2488TIP3    H128879   2.089   5.849   2.935 -0.1992 -0.4213  0.2349
 2488TIP3    H228880   2.112   5.768   3.062  0.9172  0.6065  0.7107
 2489TIP3   OH228881   6.562   1.221   5.680 -0.3467  0.0142  0.3057
 2489TIP3    H128882   6.654   1.216   5.653 -0.5089  0.2636 -0.3274
 2489TIP3    H228883   6.548   1.142   5.733 -0.4455 -1.4650 -1.7873
 2490TIP3   OH228884   3.137   1.624  14.193 -0.3712  0.0352 -0.5217
 2490TIP3    H128885   3.139   1.662  14.281  0.3163  0.6715 -0.8046
 2490TIP3    H228886   3.100   1.693  14.138 -0.3235 -0.1758 -0.8200
 2491TIP3   OH228887   5.406   0.923   0.027  0.2206  0.4932 -0.1922
 2491TIP3    H128888   5.343   0.934   0.099  0.5534 -0.2981  0.2388
 2491TIP3    H228889   5.366   0.967  -0.047 -0.1394  1.3190  0.4765
 2492TIP3   OH228890   2.619   0.714   2.888 -0.0715 -0.1628  1.0219
 2492TIP3    H128891   2.655   0.646   2.945  0.2914 -0.9982 -0.1564
 2492TIP3    H228892   2.524   0.703   2.894 -0.0369 -0.1859  1.5351
 2493TIP3   OH228893   4.509   6.676   2.739  0.4505  0.2416  0.2823
 2493TIP3    H128894   4.479   6.589   2.713  1.1914  0.0137  0.1527
 2493TIP3    H228895   4.445   6.706   2.804 -1.0083  0.4901 -1.1956
 2494TIP3   OH228896   3.938   1.168   5.943 -0.0771  0.1725  0.5363
 2494TIP3    H128897   3.881   1.156   6.018  1.4279  0.1017  1.7157
 2494TIP3    H228898   3.947   1.263   5.934 -1.3905  0.2247 -0.4792
 2495TIP3   OH228899   1.199   6.014  11.276  0.1063  0.2785 -0.4385
 2495TIP3    H128900   1.211   5.950  11.205 -0.5982 -1.5953  1.0452
 2495TIP3    H228901   1.178   6.096  11.231 -0.6042 -0.9044 -2.3966
 2496TIP3   OH228902   2.927   5.195   3.315 -0.7599 -0.4314 -0.4108
 2496TIP3    H128903   2.977   5.148   3.248  0.5819  1.0144 -0.4822
 2496TIP3    H228904   2.994   5.234   3.371 -1.8573  0.0899  0.5570
 2497TIP3   OH228905   6.498   4.513   4.667 -0.3725  0.4995  0.2747
 2497TIP3    H128906   6.514   4.440   4.608  1.3476  1.3618 -0.4031
 2497TIP3    H228907   6.550   4.492   4.745  0.0651  0.9627  0.1076
 2498TIP3   OH228908   2.441   0.822  13.462 -0.0580  0.6262  0.3846
 2498TIP3    H128909   2.517   0.772  13.492 -1.7922 -1.1031  2.2474
 2498TIP3    H228910   2.421   0.881  13.535 -0.6419  0.9111  0.0012
 2499TIP3   OH228911   4.005   4.945   4.079 -0.8564  0.4274  0.1331
 2499TIP3    H128912   4.062   4.985   4.145 -2.2339  1.5928  0.6822
 2499TIP3    H228913   3.940   4.896   4.130 -1.5831  0.8432 -0.3794
 2500TIP3   OH228914   3.627   4.470   5.853 -0.2911 -0.1729  0.4352
 2500TIP3    H128915   3.711   4.508   5.876  0.1403 -0.0201 -1.2945
 2500TIP3    H228916   3.636   4.377   5.876 -0.3818  0.1926  2.0824
 2501TIP3   OH228917   2.675   6.627   0.119 -0.0280 -0.5529  0.3251
 2501TIP3    H128918   2.603   6.570   0.150 -0.3206 -1.3438 -1.6576
 2501TIP3    H228919   2.632   6.708   0.094 -0.1150 -0.7365 -0.1200
 2502TIP3   OH228920   2.324   5.592   2.434  0.7581 -0.4254  0.1411
 2502TIP3    H128921   2.401   5.586   2.490  0.7627 -2.0824 -0.0016
 2502TIP3    H228922   2.338   5.526   2.366  0.0019  0.4450 -0.8875
 2503TIP3   OH228923   3.796   2.612  16.114 -0.4111 -0.0589 -0.2732
 2503TIP3    H128924   3.718   2.636  16.165 -0.4241 -0.1403 -0.2533
 2503TIP3    H228925   3.858   2.581  16.180 -0.0490  0.8185 -0.1989
 2504TIP3   OH228926   0.487   2.926   5.059 -0.0828 -0.0751  0.4952
 2504TIP3    H128927   0.467   2.964   5.144  0.9296 -1.1409  1.2438
 2504TIP3    H228928   0.555   2.982   5.022  1.1446 -0.9245  1.4298
 2505TIP3   OH228929   2.701   1.524   4.631 -0.1773  0.1064  0.0049
 2505TIP3    H128930   2.768   1.531   4.563 -0.8590 -0.3837 -0.7394
 2505TIP3    H228931   2.731   1.454   4.688 -0.0864 -0.1550 -0.3613
 2506TIP3   OH228932   5.430   0.131   6.434 -0.4048 -0.2076  0.0870
 2506TIP3    H128933   5.398   0.140   6.524 -1.0528  1.7530 -0.2915
 2506TIP3    H228934   5.480   0.211   6.419 -1.1762 -0.0087 -1.6155
 2507TIP3   OH228935   5.488   1.113  15.029 -0.0437 -0.0661 -0.1579
 2507TIP3    H128936   5.540   1.102  14.949  1.5027 -0.1161  0.8031
 2507TIP3    H228937   5.531   1.184  15.076 -1.7447  0.8781  0.0263
 2508TIP3   OH228938   2.830   4.075  10.870 -0.2258  0.2078 -0.4104
 2508TIP3    H128939   2.750   4.103  10.913 -0.4793 -0.6120 -0.3184
 2508TIP3    H228940   2.802   4.045  10.784 -0.0554 -0.2981 -0.2942
 2509TIP3   OH228941   0.541   2.342   3.257 -0.0997 -0.0371  0.2531
 2509TIP3    H128942   0.446   2.335   3.269 -0.6713  0.7199 -2.8154
 2509TIP3    H228943   0.569   2.406   3.322 -1.7195 -0.2048  1.1534
 2510TIP3   OH228944   2.422   1.823   5.986  0.8996  0.5799  0.2069
 2510TIP3    H128945   2.462   1.840   6.071  0.7163  0.4807  0.3145
 2510TIP3    H228946   2.403   1.910   5.951 -1.1552  0.6227  1.2938
 2511TIP3   OH228947   5.407   1.435  13.024 -0.4104 -0.3939 -0.3380
 2511TIP3    H128948   5.485   1.473  13.065 -1.0308 -0.0629  0.5537
 2511TIP3    H228949   5.398   1.349  13.066 -0.1909 -0.6864 -0.8768
 2512TIP3   OH228950   0.325   0.363  17.085 -0.0130  0.2955 -0.0724
 2512TIP3    H128951   0.404   0.384  17.136 -0.1328 -0.1325  0.2906
 2512TIP3    H228952   0.290   0.284  17.125 -1.1868  1.0234  0.4092
 2513TIP3   OH228953   6.678   1.180   2.404  0.0223  0.1884 -0.2898
 2513TIP3    H128954   6.616   1.210   2.338 -0.3288 -0.1987 -0.1387
 2513TIP3    H228955   6.712   1.261   2.444 -0.1606  0.4075 -0.5760
 2514TIP3   OH228956   6.697   0.805  16.275 -0.3130  0.4478  0.0511
 2514TIP3    H128957   6.772   0.826  16.331  0.4413  0.3751 -0.9185
 2514TIP3    H228958   6.635   0.762  16.334  0.4650  0.3767  0.8395
 2515TIP3   OH228959   5.590   4.642  16.759 -0.2157  0.3157 -0.4094
 2515TIP3    H128960   5.670   4.691  16.778 -0.2287  0.6680 -1.2370
 2515TIP3    H228961   5.525   4.680  16.819  0.4726 -0.7158  1.0562
 2516TIP3   OH228962   6.595   4.616  12.457  0.4226  0.2040 -0.1062
 2516TIP3    H128963   6.609   4.709  12.442  1.5809 -0.1917 -1.7013
 2516TIP3    H228964   6.597   4.606  12.552  0.9110  1.6983  0.0618
 2517TIP3   OH228965   6.428   6.500  15.963 -0.3479 -0.2825  0.3399
 2517TIP3    H128966   6.420   6.433  15.895  1.6330 -0.8717  0.6423
 2517TIP3    H228967   6.505   6.550  15.939  0.1140 -0.1951  1.8797
 2518TIP3   OH228968   2.798   5.375   1.054  0.2622  0.7356 -0.3930
 2518TIP3    H128969   2.707   5.354   1.032  0.4929 -0.9218  0.1298
 2518TIP3    H228970   2.849   5.339   0.981  0.5348  1.2983 -0.4846
 2519TIP3   OH228971   0.708   4.245  12.753 -0.3226  0.5605 -0.4493
 2519TIP3    H128972   0.799   4.258  12.726 -0.0728 -0.5262 -0.1851
 2519TIP3    H228973   0.713   4.228  12.847 -0.7333 -0.0062 -0.5179
 2520TIP3   OH228974   5.979   1.262   4.980  0.3648  0.0227 -0.0193
 2520TIP3    H128975   5.892   1.251   5.019  1.0121  1.9914  2.1737
 2520TIP3    H228976   5.971   1.338   4.923  0.3411 -0.6544 -0.9480
 2521TIP3   OH228977   0.738   3.585  14.136 -0.3747  0.5306  0.4201
 2521TIP3    H128978   0.829   3.581  14.165 -0.8541  0.1327  1.9356
 2521TIP3    H228979   0.717   3.679  14.135  0.7513  0.8321 -2.3451
 2522TIP3   OH228980   3.584   1.816  13.490  0.1323  0.0937  0.1285
 2522TIP3    H128981   3.575   1.788  13.399  3.0279  0.0389 -0.2613
 2522TIP3    H228982   3.621   1.739  13.534  1.0397  0.8790  0.7708
 2523TIP3   OH228983   2.239   0.224  15.054 -0.2110 -0.0809  0.0408
 2523TIP3    H128984   2.266   0.299  15.107 -1.1600 -1.9585  3.4786
 2523TIP3    H228985   2.145   0.217  15.067 -0.2979 -1.3324 -0.9777
 2524TIP3   OH228986   3.837   6.075  17.068 -0.1640  0.1314 -0.0763
 2524TIP3    H128987   3.829   5.988  17.030  0.6291 -0.2363  0.5765
 2524TIP3    H228988   3.849   6.133  16.993  0.5440 -0.4809 -0.4464
 2525TIP3   OH228989   0.297   4.772   2.113  0.7517 -0.4438  0.2656
 2525TIP3    H128990   0.257   4.699   2.066 -1.9663 -0.0929  1.8237
 2525TIP3    H228991   0.276   4.755   2.205  1.9943  1.1706  0.8811
 2526TIP3   OH228992   2.390   4.985  15.218  0.0831  0.5664  0.6981
 2526TIP3    H128993   2.452   4.912  15.223  0.3828  0.8911  1.9920
 2526TIP3    H228994   2.331   4.961  15.147  0.7816 -0.4575  0.4354
 2527TIP3   OH228995   1.730   6.244   4.521 -0.6299  0.1440  0.1636
 2527TIP3    H128996   1.692   6.289   4.445  0.7488  1.9554  0.4706
 2527TIP3    H228997   1.759   6.160   4.487  1.2520  1.4557 -1.7238
 2528TIP3   OH228998   1.164   2.102   4.177 -0.4688 -0.5014  0.3205
 2528TIP3    H128999   1.109   2.169   4.219  0.3340 -0.8127  1.9687
 2528TIP3    H229000   1.211   2.061   4.250  0.6645 -1.4006 -0.8698
 2529TIP3   OH229001   6.079   2.072   0.457  0.0249  0.6349  0.4420
 2529TIP3    H129002   6.025   2.120   0.519 -1.9173 -4.1857  3.0146
 2529TIP3    H229003   6.155   2.044   0.508 -1.0160 -2.3996  0.5575
 2530TIP3   OH229004   5.629   3.502  14.075  0.4620 -0.0101  0.2848
 2530TIP3    H129005   5.543   3.509  14.034  0.5587 -1.2405 -0.1568
 2530TIP3    H229006   5.685   3.560  14.023  0.0353  0.3395  0.2117
 2531TIP3   OH229007   1.051   3.692   1.603 -0.5168 -0.3324 -0.4237
 2531TIP3    H129008   1.115   3.698   1.675  2.0150  0.7260 -2.5798
 2531TIP3    H229009   1.004   3.610   1.619  1.5616 -1.3070  1.1871
 2532TIP3   OH229010   6.581   2.958   1.016  0.2979  0.0797  0.3329
 2532TIP3    H129011   6.599   2.922   1.103  1.2857  1.8582  0.9180
 2532TIP3    H229012   6.529   3.036   1.034 -1.8564 -0.9874 -0.8950
 2533TIP3   OH229013   0.233   4.271  15.915  0.2532  0.2415  0.1615
 2533TIP3    H129014   0.220   4.339  15.981  2.3755  0.7004  0.1678
 2533TIP3    H229015   0.190   4.305  15.837  0.9471  1.4323  0.2762
 2534TIP3   OH229016   0.070   5.261  11.771  0.3082 -0.7824 -0.6605
 2534TIP3    H129017   0.040   5.333  11.715  0.5264 -0.6510 -0.6116
 2534TIP3    H229018   0.036   5.182  11.730  0.3256 -0.6729 -0.8838
 2535TIP3   OH229019   2.176   4.285  17.163 -0.1830 -0.1621 -0.2617
 2535TIP3    H129020   2.268   4.270  17.185  0.3182  1.2039 -1.2569
 2535TIP3    H229021   2.133   4.201  17.180  1.3679 -1.0236 -0.4081
 2536TIP3   OH229022   0.842   4.319  16.371 -0.4603  0.0328  0.1258
 2536TIP3    H129023   0.863   4.341  16.280 -0.1411 -1.7205 -0.2486
 2536TIP3    H229024   0.770   4.256  16.365 -0.8334  0.3467  1.1168
 2537TIP3   OH229025   3.538   3.862  12.904  0.7945 -0.1498 -0.3878
 2537TIP3    H129026   3.508   3.816  12.983  0.6492 -1.1919 -1.0248
 2537TIP3    H229027   3.487   3.943  12.902 -0.9943 -1.2227 -0.6922
 2538TIP3   OH229028   1.293   0.037   0.152  0.2594  0.3140  0.2983
 2538TIP3    H129029   1.387   0.044   0.164  0.2898 -0.3822  0.5451
 2538TIP3    H229030   1.269  -0.041   0.202 -0.3141 -0.0233 -0.4865
 2539TIP3   OH229031   3.296   6.533  14.533  0.1923 -0.4264  0.6789
 2539TIP3    H129032   3.232   6.604  14.528 -0.4905 -0.9877  1.2539
 2539TIP3    H229033   3.332   6.527  14.444  1.0639  1.3459  0.8641
 2540TIP3   OH229034   5.355   4.046   4.943  0.7196  0.0868 -0.3359
 2540TIP3    H129035   5.349   3.950   4.952  1.4416  0.0096 -0.6049
 2540TIP3    H229036   5.429   4.060   4.884  1.4535  0.8493  0.7291
 2541TIP3   OH229037   2.902   6.248  15.361 -0.0615  0.1029  0.2600
 2541TIP3    H129038   2.982   6.283  15.402  0.0219 -0.2550  0.4004
 2541TIP3    H229039   2.934   6.183  15.299 -0.1067  1.3987 -1.1808
 2542TIP3   OH229040   5.330   0.500  14.619  0.4039 -0.3412  0.2488
 2542TIP3    H129041   5.348   0.414  14.656 -0.1447  0.4016  2.4353
 2542TIP3    H229042   5.313   0.484  14.527  2.2461 -2.3004  0.1729
 2543TIP3   OH229043   4.908   4.644   3.904  0.2084 -0.2932  0.5313
 2543TIP3    H129044   4.974   4.615   3.841  2.0995 -2.1562  3.1788
 2543TIP3    H229045   4.951   4.716   3.951 -0.0220 -0.8595  1.6182
 2544TIP3   OH229046   1.973   6.444   0.344  0.0977 -0.6953  0.2416
 2544TIP3    H129047   1.880   6.435   0.322  0.4413 -2.3645 -0.6693
 2544TIP3    H229048   1.973   6.471   0.436 -1.2851 -1.1242  0.3970
 2545TIP3   OH229049   1.519   0.775   5.416 -0.5517 -0.4072 -0.0522
 2545TIP3    H129050   1.591   0.833   5.443 -0.3113 -0.4631 -0.5591
 2545TIP3    H229051   1.462   0.770   5.493 -1.4132  1.7630 -0.4765
 2546TIP3   OH229052   2.568   0.488  15.329 -0.4282 -0.3909  1.0980
 2546TIP3    H129053   2.655   0.516  15.302 -0.5963 -0.0784  0.8669
 2546TIP3    H229054   2.581   0.446  15.414 -0.1360  0.2015  1.3538
 2547TIP3   OH229055   2.386   1.935  12.301  0.1496  0.0262 -0.8948
 2547TIP3    H129056   2.362   1.858  12.251  0.4150 -0.1942 -0.6871
 2547TIP3    H229057   2.303   1.972  12.330 -0.0191  0.2824 -1.6815
 2548TIP3   OH229058   6.236   5.218  11.740  0.3795 -0.0552 -0.4569
 2548TIP3    H129059   6.140   5.215  11.734  0.3599 -1.0792  0.0952
 2548TIP3    H229060   6.265   5.221  11.649 -0.1638 -1.2126 -0.6903
 2549TIP3   OH229061   1.253   0.869  12.540  0.6851  0.0831 -0.2270
 2549TIP3    H129062   1.285   0.837  12.455 -1.1597 -1.5270 -0.3893
 2549TIP3    H229063   1.280   0.802  12.602  1.3896  0.8976  0.3598
 2550TIP3   OH229064   1.628   0.381  12.441 -0.3925 -0.0988  0.8466
 2550TIP3    H129065   1.687   0.379  12.516 -0.8565 -2.8136  1.2281
 2550TIP3    H229066   1.665   0.449  12.384  1.8254 -0.1910  2.0518
 2551TIP3   OH229067   6.258   6.346   4.836  0.3714 -0.4473  0.5239
 2551TIP3    H129068   6.223   6.435   4.841  1.6890  0.0929  0.6103
 2551TIP3    H229069   6.182   6.291   4.822 -0.4549  0.7125  0.3138
 2552TIP3   OH229070   5.516   5.598   2.570  0.2113 -0.2559 -0.5434
 2552TIP3    H129071   5.562   5.615   2.652  0.8338 -1.5709 -0.5998
 2552TIP3    H229072   5.425   5.619   2.589  0.2752 -0.9662  0.6351
 2553TIP3   OH229073   6.668   6.438  11.698 -0.2393  0.1109  0.4253
 2553TIP3    H129074   6.709   6.406  11.778  1.2865  1.8337  0.3950
 2553TIP3    H229075   6.582   6.396  11.696  0.8732 -2.3676  1.3453
 2554TIP3   OH229076   4.300   5.972   1.288  0.0896 -0.0582 -0.6540
 2554TIP3    H129077   4.226   6.022   1.255 -0.1780 -0.1628 -0.2143
 2554TIP3    H229078   4.283   5.961   1.382  0.9085  0.3587 -0.4430
 2555TIP3   OH229079   1.257   2.236  11.153 -0.0339  0.3455  0.1793
 2555TIP3    H129080   1.249   2.290  11.074 -1.1872  0.1225  0.1287
 2555TIP3    H229081   1.225   2.292  11.224  0.8291  0.4819  0.4699
 2556TIP3   OH229082   6.379   0.335   3.857  0.1929  0.5513  0.3675
 2556TIP3    H129083   6.291   0.349   3.892  0.8830  0.7900  2.1449
 2556TIP3    H229084   6.436   0.334   3.935  1.4012 -2.7351 -0.3821
 2557TIP3   OH229085   3.357   2.170   0.813 -0.1867  0.0226 -0.2652
 2557TIP3    H129086   3.305   2.165   0.733 -0.6316  1.1920 -0.0658
 2557TIP3    H229087   3.424   2.102   0.802 -0.6153 -0.2485 -1.3445
 2558TIP3   OH229088   2.072   2.356   3.951  0.1453  0.1794  0.2391
 2558TIP3    H129089   2.050   2.279   3.898 -1.6553 -0.0577  1.2628
 2558TIP3    H229090   2.030   2.340   4.035 -0.8284  2.5582  0.2737
 2559TIP3   OH229091   1.649   5.169   0.877  0.1633 -0.1899 -0.2975
 2559TIP3    H129092   1.643   5.260   0.850  1.5384  0.2272  0.7319
 2559TIP3    H229093   1.610   5.167   0.964  1.3648 -0.2958  0.2583
 2560TIP3   OH229094   3.036   2.684  16.128 -0.1045 -0.5677  0.2373
 2560TIP3    H129095   3.129   2.704  16.133 -0.1959 -0.3890  1.9442
 2560TIP3    H229096   3.007   2.721  16.044  1.4123 -0.9451 -0.4837
 2561TIP3   OH229097   6.776   3.327  17.020 -0.8934 -0.1063 -0.4461
 2561TIP3    H129098   6.742   3.381  17.091 -0.2644 -1.3823  0.8991
 2561TIP3    H229099   6.699   3.283  16.984 -1.4111  1.6735 -1.5839
 2562TIP3   OH229100   3.703   1.735   1.293 -0.9910  0.3625 -0.0758
 2562TIP3    H129101   3.651   1.763   1.218 -2.5578  0.9927  1.1925
 2562TIP3    H229102   3.777   1.688   1.255 -1.1434  1.6150 -2.0550
 2563TIP3   OH229103   3.902   0.256  16.268 -0.2977 -0.7724  0.1505
 2563TIP3    H129104   3.841   0.330  16.275 -0.8876 -1.1860 -0.6407
 2563TIP3    H229105   3.857   0.184  16.312 -1.2186 -1.5932 -2.0252
 2564TIP3   OH229106   3.939   1.430  12.494  0.3992 -0.0897  0.3338
 2564TIP3    H129107   3.960   1.398  12.407  0.5167 -0.2515  0.4213
 2564TIP3    H229108   3.864   1.378  12.522 -0.9133  1.2952 -0.4569
 2565TIP3   OH229109   2.205   3.310  11.612 -0.5372  0.7302  0.3474
 2565TIP3    H129110   2.259   3.305  11.533 -1.3729 -0.3938 -0.1766
 2565TIP3    H229111   2.216   3.400  11.642  0.6547  0.8727 -0.4305
 2566TIP3   OH229112   6.526   4.373  14.456 -0.2024  0.0434 -0.1181
 2566TIP3    H129113   6.519   4.297  14.514 -0.5387 -1.2745 -1.8182
 2566TIP3    H229114   6.611   4.365  14.415 -0.0957  0.7969 -0.0574
 2567TIP3   OH229115   1.982   0.998   4.495 -0.1583  0.4894 -0.1662
 2567TIP3    H129116   2.049   0.963   4.554 -0.4375  0.9785  0.4615
 2567TIP3    H229117   2.004   0.963   4.409  0.4169 -0.0225  0.1842
 2568TIP3   OH229118   6.263   4.875  12.128 -0.0532  0.2257 -0.6814
 2568TIP3    H129119   6.348   4.832  12.131  1.9265  3.7516 -0.3386
 2568TIP3    H229120   6.261   4.929  12.207 -3.2563 -0.6782 -0.0051
 2569TIP3   OH229121   6.502   5.090  14.566  0.2117  0.6217  0.3033
 2569TIP3    H129122   6.478   5.168  14.517 -2.5423 -0.0398  0.4563
 2569TIP3    H229123   6.566   5.045  14.510  0.8149  2.2615 -0.3830
 2570TIP3   OH229124   2.184   3.792  13.951  0.4338  0.1183 -0.2875
 2570TIP3    H129125   2.222   3.717  13.996 -1.7329  0.3511  2.1305
 2570TIP3    H229126   2.105   3.759  13.910  0.1178  0.8208 -0.2660
 2571TIP3   OH229127   2.143   1.039  13.374 -0.1266  0.7806  0.2571
 2571TIP3    H129128   2.227   1.078  13.354  0.1417 -0.5222 -1.3902
 2571TIP3    H229129   2.108   1.012  13.289 -1.5188 -0.0517  1.0511
 2572TIP3   OH229130   1.005   4.623  16.022 -0.3833 -0.2161  0.3807
 2572TIP3    H129131   0.959   4.549  16.063  0.1291 -1.3847 -1.0649
 2572TIP3    H229132   1.089   4.627  16.068 -0.3268 -0.6789  0.3233
 2573TIP3   OH229133   1.104   0.603   5.103  0.4402 -0.6240 -0.1591
 2573TIP3    H129134   1.141   0.592   5.015  1.2280 -1.0882  0.2192
 2573TIP3    H229135   1.154   0.676   5.140 -2.0981  1.8395 -1.2409
 2574TIP3   OH229136   0.865   6.141  11.459  0.4554 -0.1797  0.2504
 2574TIP3    H129137   0.864   6.097  11.374 -1.4221 -2.1064  1.1860
 2574TIP3    H229138   0.942   6.106  11.503 -0.2783 -1.5900  0.4675
 2575TIP3   OH229139   3.560   2.167  16.040  0.1277 -0.3274  1.3792
 2575TIP3    H129140   3.623   2.177  16.111 -1.5191  1.0755  2.6951
 2575TIP3    H229141   3.585   2.234  15.976  0.5426 -0.4177  1.4439
 2576TIP3   OH229142   6.276   2.536   4.643  0.7187  0.4926  0.2993
 2576TIP3    H129143   6.201   2.500   4.595  0.8673 -0.6385  0.8774
 2576TIP3    H229144   6.343   2.549   4.576  0.8726 -0.9136  0.1422
 2577TIP3   OH229145   1.587   3.478   6.117  0.0852 -0.3660 -0.0873
 2577TIP3    H129146   1.536   3.488   6.036  1.2132 -1.5579 -0.9894
 2577TIP3    H229147   1.544   3.407   6.164  0.8925 -1.4060 -0.8720
 2578TIP3   OH229148   6.363   0.430   2.012 -0.3962 -0.7823 -0.1354
 2578TIP3    H129149   6.421   0.504   2.032  0.0809 -0.6704 -1.7875
 2578TIP3    H229150   6.277   0.469   2.001 -0.3282 -0.6096 -0.0573
 2579TIP3   OH229151   6.370   1.062  11.746 -0.2383  0.8060 -0.0103
 2579TIP3    H129152   6.418   1.099  11.819 -0.7124  1.7781 -0.1782
 2579TIP3    H229153   6.400   1.111  11.669 -0.1917  0.2152 -0.3777
 2580TIP3   OH229154   1.705   5.143   2.793  0.0670 -0.1280  0.3811
 2580TIP3    H129155   1.744   5.129   2.707  0.7055  4.7957 -0.4435
 2580TIP3    H229156   1.614   5.115   2.784  0.3174 -0.4330 -1.6409
 2581TIP3   OH229157   4.357   4.902  12.635  0.3232  0.8219  0.4315
 2581TIP3    H129158   4.292   4.835  12.616  1.5923 -0.1973 -0.4752
 2581TIP3    H229159   4.369   4.896  12.730  0.5615 -0.3934  0.3436
 2582TIP3   OH229160   6.781   1.388   0.572 -0.2563 -0.3826  0.6943
 2582TIP3    H129161   6.839   1.457   0.541 -0.3403 -0.5170  0.2195
 2582TIP3    H229162   6.741   1.353   0.492 -0.7697 -0.4827  0.9890
 2583TIP3   OH229163   4.002   5.888   3.208  0.0416 -0.2056  0.0856
 2583TIP3    H129164   3.925   5.846   3.247 -0.0657  0.6443  0.8002
 2583TIP3    H229165   4.020   5.963   3.264  0.8561  0.1211 -0.5936
 2584TIP3   OH229166   1.308   2.529  11.897  0.3884  0.4815 -0.1491
 2584TIP3    H129167   1.327   2.574  11.980  1.4069  1.0804 -0.6952
 2584TIP3    H229168   1.343   2.441  11.908 -0.8007  0.0821  0.5911
 2585TIP3   OH229169   4.490   4.392  10.563 -0.1204 -0.7087  0.5587
 2585TIP3    H129170   4.461   4.482  10.549  2.0996 -0.1971 -1.4376
 2585TIP3    H229171   4.415   4.338  10.537 -0.9052  0.5300  0.1687
 2586TIP3   OH229172   0.672   1.246   0.469  0.4407  0.4041 -0.5747
 2586TIP3    H129173   0.578   1.264   0.462  0.6664  2.2843  0.5299
 2586TIP3    H229174   0.696   1.213   0.382 -1.1629  0.2285 -0.9942
 2587TIP3   OH229175   1.152   6.764  13.811  0.0453  0.3134  0.4882
 2587TIP3    H129176   1.192   6.712  13.741  1.1509 -0.1291  1.4251
 2587TIP3    H229177   1.061   6.734  13.813 -0.7691  2.1445 -2.4472
 2588TIP3   OH229178   5.782   5.536  15.355 -0.2719 -0.4617 -0.1325
 2588TIP3    H129179   5.767   5.612  15.411 -0.5016  0.3328 -1.2203
 2588TIP3    H229180   5.827   5.572  15.278 -0.0183 -1.5005 -0.4898
 2589TIP3   OH229181   0.820   0.541   4.022  0.8984 -0.1577  0.4701
 2589TIP3    H129182   0.860   0.607   4.079  2.6891 -0.5925 -0.2046
 2589TIP3    H229183   0.796   0.470   4.082 -1.9930  1.4145  1.3607
 2590TIP3   OH229184   5.693   3.611   4.608  0.2659  0.1340  0.0415
 2590TIP3    H129185   5.731   3.692   4.641  1.3482  0.6890 -2.3561
 2590TIP3    H229186   5.729   3.601   4.520 -2.7871 -0.9411 -1.2417
 2591TIP3   OH229187   0.340   1.691   3.264  0.4079  0.3201 -0.5538
 2591TIP3    H129188   0.303   1.709   3.177  0.1905  1.8544 -0.1740
 2591TIP3    H229189   0.400   1.763   3.280  0.7922 -0.1939  0.3868
 2592TIP3   OH229190   0.314   2.890   4.853  0.7195 -0.1429  0.0881
 2592TIP3    H129191   0.280   2.814   4.899  0.1550 -0.6556 -1.1291
 2592TIP3    H229192   0.375   2.931   4.915 -0.4445 -0.4535  1.4865
 2593TIP3   OH229193   3.064   1.984  15.714  0.2045 -0.5122 -0.6408
 2593TIP3    H129194   3.027   2.071  15.731 -1.1716 -1.1562 -0.2087
 2593TIP3    H229195   3.006   1.945  15.649  1.3180 -0.7906 -1.4928
 2594TIP3   OH229196   3.616   0.699  11.148  0.1991  0.2502 -0.2620
 2594TIP3    H129197   3.608   0.610  11.114 -2.1181 -0.0169  0.8092
 2594TIP3    H229198   3.626   0.689  11.242  1.3530  1.1150 -0.2649
 2595TIP3   OH229199   0.764   5.205  11.625  0.2860  0.1741  0.5683
 2595TIP3    H129200   0.799   5.210  11.714 -0.5560  1.4624  0.8719
 2595TIP3    H229201   0.671   5.226  11.635 -0.0675 -0.7909 -0.4877
 2596TIP3   OH229202   5.933   6.194   1.095 -0.3165  0.1208  0.1015
 2596TIP3    H129203   5.920   6.143   1.016  0.1696 -0.8809  0.6534
 2596TIP3    H229204   5.894   6.142   1.165  2.0444 -0.5767  1.0043
 2597TIP3   OH229205   5.177   1.040   3.938  0.5543 -0.9296 -0.7098
 2597TIP3    H129206   5.146   0.988   3.864  0.0175 -0.0915 -1.0881
 2597TIP3    H229207   5.172   1.130   3.907  1.4315 -0.6405 -0.0519
 2598TIP3   OH229208   4.362   1.917   0.701 -0.2448 -0.0644  0.0646
 2598TIP3    H129209   4.281   1.910   0.650  0.0293 -0.3995 -0.3240
 2598TIP3    H229210   4.422   1.966   0.646 -0.3699  0.7034  0.5932
 2599TIP3   OH229211   1.174   0.122   3.386 -0.4482  0.1754  0.0614
 2599TIP3    H129212   1.084   0.145   3.365  0.0202  1.8045 -0.3514
 2599TIP3    H229213   1.177   0.026   3.378 -2.1197  0.0888  0.1039
 2600TIP3   OH229214   0.391   0.092  12.596 -0.0812 -0.1511 -0.1453
 2600TIP3    H129215   0.395   0.187  12.584 -0.4334  0.0663  1.3065
 2600TIP3    H229216   0.335   0.079  12.672 -0.3044 -1.5505 -0.5186
 2601TIP3   OH229217   4.377   6.686   4.585 -0.2232  0.2413 -0.0157
 2601TIP3    H129218   4.282   6.682   4.577 -0.3758  1.3945  0.8722
 2601TIP3    H229219   4.399   6.775   4.559  0.3924  0.5648  1.5080
 2602TIP3   OH229220   0.273   4.916  14.887 -0.0732 -0.8376 -0.2594
 2602TIP3    H129221   0.342   4.849  14.887  1.2611  0.4636 -1.6438
 2602TIP3    H229222   0.282   4.959  14.972  1.5088 -0.0746 -0.7594
 2603TIP3   OH229223   5.706   0.105   1.374 -0.7214 -0.3585 -0.1982
 2603TIP3    H129224   5.731   0.012   1.374  0.1611 -0.1292  0.0409
 2603TIP3    H229225   5.691   0.125   1.467 -0.9513 -0.2654 -0.2541
 2604TIP3   OH229226   4.855   3.543   1.029  0.7557  0.3130 -0.4366
 2604TIP3    H129227   4.788   3.530   0.962 -0.4256  2.6463  0.1973
 2604TIP3    H229228   4.900   3.459   1.034 -0.5736 -0.6100 -2.5526
 2605TIP3   OH229229   1.323   4.136  15.252  0.3519 -0.5371 -0.7987
 2605TIP3    H129230   1.360   4.101  15.333  0.3117  1.1774  0.0223
 2605TIP3    H229231   1.229   4.127  15.262  0.3441 -0.2669 -0.6097
 2606TIP3   OH229232   0.117   2.781  11.552  0.0783  0.0431 -0.1345
 2606TIP3    H129233   0.113   2.704  11.496 -0.7048  0.0104 -0.0378
 2606TIP3    H229234   0.082   2.852  11.498  0.5984  0.2946 -0.1506
 2607TIP3   OH229235   0.488   6.660   3.411  0.2034 -0.3362  0.1157
 2607TIP3    H129236   0.486   6.729   3.345  1.2642 -1.1660 -0.8227
 2607TIP3    H229237   0.544   6.592   3.373 -1.0810 -1.8708  0.8594
 2608TIP3   OH229238   1.936   1.980  13.099 -0.1474  0.0219  0.1163
 2608TIP3    H129239   1.883   1.949  13.026  0.4364 -0.4671 -0.1118
 2608TIP3    H229240   2.017   2.012  13.058 -0.1533  0.5082  0.4793
 2609TIP3   OH229241   0.098   2.280   3.842  0.1828  0.5754 -0.3299
 2609TIP3    H129242   0.050   2.240   3.769 -1.6557  0.0925  1.0962
 2609TIP3    H229243   0.101   2.213   3.909 -0.9893  2.0256  1.2671
 2610TIP3   OH229244   0.466   2.314  12.274  0.1009  0.7179 -0.8804
 2610TIP3    H129245   0.456   2.244  12.210 -0.5509  1.6840 -1.8833
 2610TIP3    H229246   0.538   2.286  12.330 -0.1861 -0.7615 -1.2256
 2611TIP3   OH229247   3.305   4.348   1.705  0.1268  1.0753 -0.6646
 2611TIP3    H129248   3.384   4.306   1.671 -0.2965 -0.0723 -0.2873
 2611TIP3    H229249   3.333   4.436   1.728  2.0508 -0.1149  2.0950
 2612TIP3   OH229250   3.285   2.219  12.377  0.1487  0.2661  0.3046
 2612TIP3    H129251   3.319   2.130  12.366  0.4030  0.3685  0.2631
 2612TIP3    H229252   3.363   2.273  12.389 -0.0421  0.3801  1.0540
 2613TIP3   OH229253   0.497   2.916  15.289  0.3648  0.1422 -0.2522
 2613TIP3    H129254   0.455   2.981  15.233  0.3441  0.6593  0.3602
 2613TIP3    H229255   0.454   2.833  15.266  0.8786  0.2039 -1.5442
 2614TIP3   OH229256   1.491   3.962   2.416 -0.2751  0.6975  0.2816
 2614TIP3    H129257   1.496   3.950   2.321  1.8475 -0.6487  0.5198
 2614TIP3    H229258   1.558   4.027   2.435  1.4206 -1.2067  1.1394
 2615TIP3   OH229259   2.785   2.378  14.229 -0.5057  0.3993 -0.0235
 2615TIP3    H129260   2.754   2.455  14.181  0.4252  0.9452  0.2257
 2615TIP3    H229261   2.785   2.405  14.321  0.9044  0.5232 -0.0286
 2616TIP3   OH229262   3.392   4.569   1.471  0.0701 -0.4052 -0.4218
 2616TIP3    H129263   3.421   4.612   1.391 -0.8441 -0.3667 -0.7404
 2616TIP3    H229264   3.461   4.589   1.535  0.4205  0.2291 -0.9825
 2617TIP3   OH229265   3.157   6.215  16.944 -0.0715  0.6287  0.5148
 2617TIP3    H129266   3.091   6.188  17.008  0.4018 -1.5706  0.1525
 2617TIP3    H229267   3.205   6.286  16.988 -1.2822  0.8149  1.6170
 2618TIP3   OH229268   4.336   2.651  11.525  0.1612 -0.1201 -0.5806
 2618TIP3    H129269   4.249   2.614  11.543 -0.7154  1.6076 -0.9799
 2618TIP3    H229270   4.367   2.605  11.447 -0.5617 -0.4950 -0.6553
 2619TIP3   OH229271   1.452   2.757   5.346  0.5376 -0.2866  0.4271
 2619TIP3    H129272   1.523   2.722   5.293 -1.1139 -0.2635 -1.9520
 2619TIP3    H229273   1.495   2.786   5.427  2.9889 -1.4493 -0.3512
 2620TIP3   OH229274   2.474   3.039   0.829  0.3090 -0.3990  0.4763
 2620TIP3    H129275   2.567   3.062   0.823  0.8004 -1.9612  1.5386
 2620TIP3    H229276   2.467   2.956   0.782 -0.2931 -0.9371  1.4893
 2621TIP3   OH229277   5.789   4.465  12.939 -0.3385 -0.3311 -0.4846
 2621TIP3    H129278   5.733   4.540  12.957  0.8239 -0.0234  2.1622
 2621TIP3    H229279   5.857   4.500  12.881  0.1687  0.6804  0.6814
 2622TIP3   OH229280   0.311   2.103   6.433  0.1890 -0.0167  0.1734
 2622TIP3    H129281   0.286   2.176   6.490 -0.9858  0.1509 -0.5162
 2622TIP3    H229282   0.406   2.101   6.437  0.2199  1.2626  0.5677
 2623TIP3   OH229283   0.204   2.117   1.324  0.0119  0.0705  0.3325
 2623TIP3    H129284   0.263   2.137   1.251  0.5678  0.2759  0.8293
 2623TIP3    H229285   0.131   2.178   1.314  0.0502  0.0437 -0.0967
 2624TIP3   OH229286   2.938   3.687   1.279  0.8739 -0.1345 -0.2993
 2624TIP3    H129287   2.846   3.664   1.291  0.4426  0.7200 -1.7850
 2624TIP3    H229288   2.948   3.771   1.323  1.0521 -0.4088  0.1935
 2625TIP3   OH229289   2.332   3.374  10.148 -0.0416 -0.3889 -0.9195
 2625TIP3    H129290   2.241   3.402  10.136  0.5362  0.6359 -3.4196
 2625TIP3    H229291   2.333   3.333  10.235 -2.4431  1.2808 -0.0040
 2626TIP3   OH229292   0.966   5.707  12.135  0.5906 -0.7049  0.2434
 2626TIP3    H129293   1.020   5.729  12.059  2.1582 -2.3971  0.7877
 2626TIP3    H229294   1.021   5.648  12.187 -1.1468 -1.0959  1.7421
 2627TIP3   OH229295   2.558   3.976   4.303  0.4941 -0.1965 -0.2520
 2627TIP3    H129296   2.558   3.993   4.397 -0.2553 -0.4259 -0.1997
 2627TIP3    H229297   2.611   4.046   4.265  2.2892 -1.0747  0.4989
 2628TIP3   OH229298   4.671   1.176   4.863 -0.1008 -0.0132  0.3022
 2628TIP3    H129299   4.656   1.082   4.868 -0.3701  0.0419  0.5801
 2628TIP3    H229300   4.766   1.186   4.871  0.0350 -0.3243 -0.7851
 2629TIP3   OH229301   3.291   1.006  14.135  0.3808 -0.4952 -0.4158
 2629TIP3    H129302   3.384   1.031  14.137  0.4174 -0.5518 -1.1333
 2629TIP3    H229303   3.290   0.918  14.173  0.7864 -0.9489 -1.4061
 2630TIP3   OH229304   3.986   6.486  14.231  0.1935  0.1282  0.0807
 2630TIP3    H129305   3.970   6.393  14.218  0.2223  0.2876 -1.2399
 2630TIP3    H229306   3.911   6.529  14.189 -0.3670  0.7006  1.5881
 2631TIP3   OH229307   1.597   4.376   0.809  0.2708 -0.5710  0.5060
 2631TIP3    H129308   1.671   4.323   0.839  0.8601  0.3178  0.6373
 2631TIP3    H229309   1.530   4.311   0.784  0.3066 -1.3628  2.3247
 2632TIP3   OH229310   3.304   2.227  15.173 -0.4948  0.0469 -0.0030
 2632TIP3    H129311   3.229   2.285  15.186  0.6404  1.4230  0.6036
 2632TIP3    H229312   3.317   2.187  15.259  0.0019  0.4734  0.1204
 2633TIP3   OH229313   4.306   0.360   1.745 -0.2176 -0.6153  0.1926
 2633TIP3    H129314   4.311   0.271   1.779 -2.5793 -0.0867  2.2141
 2633TIP3    H229315   4.225   0.362   1.694  0.1382  0.2365 -0.3705
 2634TIP3   OH229316   3.933   4.682  11.978 -0.0789 -0.3089  0.2044
 2634TIP3    H129317   3.861   4.640  12.025 -2.4801  3.0241 -0.1429
 2634TIP3    H229318   4.009   4.670  12.034 -1.1810 -2.7429  1.2978
 2635TIP3   OH229319   6.707   4.980  13.181 -0.0602  0.8747  0.1178
 2635TIP3    H129320   6.624   5.026  13.191 -0.5090  0.3204 -0.8994
 2635TIP3    H229321   6.712   4.961  13.087  0.3351 -0.7206  0.4437
 2636TIP3   OH229322   0.892   0.625   0.232  0.2079  0.0462  0.0052
 2636TIP3    H129323   0.982   0.597   0.251  0.8084  1.0899 -1.1519
 2636TIP3    H229324   0.899   0.719   0.213 -0.8418 -0.1811 -1.7440
 2637TIP3   OH229325   0.749   4.863  14.296  0.5998  0.1864 -0.0978
 2637TIP3    H129326   0.705   4.947  14.300  0.3975  0.0842 -0.1591
 2637TIP3    H229327   0.842   4.883  14.307  0.6335  0.4953 -0.8781
 2638TIP3   OH229328   3.105   2.565  13.899  0.4229  0.1049 -0.6444
 2638TIP3    H129329   3.195   2.578  13.870  1.1049  0.2509  1.3950
 2638TIP3    H229330   3.063   2.519  13.826  2.3994 -0.8088 -1.2843
 2639TIP3   OH229331   5.507   5.555   5.495  0.0401  0.0205  0.0065
 2639TIP3    H129332   5.532   5.463   5.490 -0.3516 -0.0383 -1.4130
 2639TIP3    H229333   5.463   5.572   5.411 -0.9789  1.1776  0.7451
 2640TIP3   OH229334   1.574   0.389  14.434 -0.1360  0.3716  0.3475
 2640TIP3    H129335   1.589   0.465  14.490  2.7513 -0.8830  1.5254
 2640TIP3    H229336   1.501   0.413  14.378 -0.0562  3.5367  1.4369
 2641TIP3   OH229337   0.330   6.796  12.326 -0.5589  0.3023  0.1480
 2641TIP3    H129338   0.270   6.749  12.268  0.7243 -0.0696 -0.9279
 2641TIP3    H229339   0.273   6.850  12.381 -1.9441 -0.9553  0.0168
 2642TIP3   OH229340   3.045   0.133  12.147  0.5335  0.1411  0.1952
 2642TIP3    H129341   3.101   0.189  12.093  0.8289 -0.3827 -0.0435
 2642TIP3    H229342   3.100   0.108  12.221  0.4519  0.0385  0.2211
 2643TIP3   OH229343   2.416   6.484   4.363  0.1571  0.3387 -0.3382
 2643TIP3    H129344   2.486   6.532   4.408  1.1527  0.7797 -2.2689
 2643TIP3    H229345   2.340   6.542   4.367  0.9423  1.4919 -1.3749
 2644TIP3   OH229346   2.291   3.791  13.707 -0.6950  0.1984  0.4374
 2644TIP3    H129347   2.260   3.710  13.668 -0.6928 -0.5676  1.9787
 2644TIP3    H229348   2.252   3.793  13.794 -1.2125  2.1805  0.2043
 2645TIP3   OH229349   3.939   6.289   5.507 -0.3025  0.0626  0.0825
 2645TIP3    H129350   3.853   6.272   5.546 -0.6205  1.6354  0.1314
 2645TIP3    H229351   3.929   6.373   5.463  0.9267 -0.2331 -0.8149
 2646TIP3   OH229352   0.973   0.266   3.781 -0.0811 -0.3264 -0.2857
 2646TIP3    H129353   1.043   0.204   3.758 -0.2436 -0.9254  0.7463
 2646TIP3    H229354   0.985   0.340   3.721  1.8924 -0.0906  0.3196
 2647TIP3   OH229355   0.462   2.012  14.523  0.1534  0.0438  0.5395
 2647TIP3    H129356   0.380   1.984  14.482  0.6803 -1.1707  0.2960
 2647TIP3    H229357   0.448   2.105  14.541 -1.1849 -0.0781  0.2715
 2648TIP3   OH229358   6.348   3.694  13.853 -0.0823  0.3693  0.0647
 2648TIP3    H129359   6.288   3.624  13.879 -0.4113 -0.3670 -2.3980
 2648TIP3    H229360   6.435   3.654  13.860  0.0996  1.0287  2.3944
 2649TIP3   OH229361   2.124   1.613  16.999 -0.1098 -0.2984 -0.2592
 2649TIP3    H129362   2.181   1.690  17.003  0.4129 -0.7144  0.7820
 2649TIP3    H229363   2.049   1.636  17.054 -1.6193  0.7236 -2.5900
 2650TIP3   OH229364   3.501   3.936  12.022 -0.1288 -0.4991 -0.0665
 2650TIP3    H129365   3.590   3.937  11.988 -0.0839  0.2970  0.0463
 2650TIP3    H229366   3.446   3.952  11.946 -0.1571 -0.6982 -0.0881
 2651TIP3   OH229367   3.111   1.700  17.155 -0.1741  0.0726  0.1317
 2651TIP3    H129368   3.037   1.702  17.094  0.4535  0.7370 -0.6378
 2651TIP3    H229369   3.152   1.614  17.140 -0.9559 -0.4175  0.7766
 2652TIP3   OH229370   2.217   5.833   5.300  0.1929 -0.3682  0.0352
 2652TIP3    H129371   2.294   5.789   5.262  1.0273  1.2051 -0.1636
 2652TIP3    H229372   2.165   5.761   5.338  1.1944 -1.5812 -0.8045
 2653TIP3   OH229373   5.065   4.215  12.427  0.1944  0.2202  0.4051
 2653TIP3    H129374   5.122   4.141  12.405  1.3095  0.9336  0.7853
 2653TIP3    H229375   5.112   4.261  12.496 -2.5373 -1.1867  3.4641
 2654TIP3   OH229376   6.779   6.201   2.385  0.3513 -0.3470  0.1461
 2654TIP3    H129377   6.729   6.199   2.303  0.9988 -1.4600 -0.2529
 2654TIP3    H229378   6.797   6.109   2.403  0.2524 -0.1094  1.5351
 2655TIP3   OH229379   0.041   6.396  16.121  0.2218 -0.0602 -0.1627
 2655TIP3    H129380   0.083   6.443  16.049  1.2398 -0.2799  0.2666
 2655TIP3    H229381   0.023   6.464  16.186  4.0496 -0.4638  1.5841
 2656TIP3   OH229382   6.465   5.663  14.511  0.5681  0.1198 -0.0923
 2656TIP3    H129383   6.515   5.708  14.443 -0.7191  0.4159 -0.8934
 2656TIP3    H229384   6.517   5.672  14.591  1.3688  1.1227 -0.7155
 2657TIP3   OH229385   6.614   0.885   0.729  0.2751 -0.2993 -0.4219
 2657TIP3    H129386   6.611   0.981   0.730  1.6771 -0.2276 -0.0417
 2657TIP3    H229387   6.702   0.865   0.697  0.4985 -1.4402  0.8299
 2658TIP3   OH229388   3.466   0.074   1.358 -0.3764  0.2018 -0.3425
 2658TIP3    H129389   3.439   0.018   1.285 -1.7866 -1.0588  1.0446
 2658TIP3    H229390   3.384   0.095   1.403  0.4220  1.1916  0.6939
 2659TIP3   OH229391   4.576   2.155   3.733 -0.2855  0.2487 -0.5123
 2659TIP3    H129392   4.652   2.212   3.727 -0.8946  1.1170 -0.2690
 2659TIP3    H229393   4.501   2.216   3.736 -0.9413 -0.5629 -0.0680
 2660TIP3   OH229394   6.011   1.686   6.275  0.7990  0.0762  0.1990
 2660TIP3    H129395   5.992   1.592   6.287  0.9583  0.0657  0.3829
 2660TIP3    H229396   5.996   1.724   6.362  2.9184 -0.1636  0.7311
 2661TIP3   OH229397   4.121   6.763   3.942 -0.3388 -0.5959 -0.3913
 2661TIP3    H129398   4.055   6.714   3.893 -1.6130  0.3867  0.2861
 2661TIP3    H229399   4.071   6.812   4.008  0.8566  1.6113 -1.0287
 2662TIP3   OH229400   5.179   3.476  11.622  0.4343 -0.5099 -0.1821
 2662TIP3    H129401   5.098   3.428  11.605 -0.8244  1.1447  0.8096
 2662TIP3    H229402   5.241   3.441  11.558 -0.8479 -2.2776 -0.5574
 2663TIP3   OH229403   3.307   2.098  10.993  0.2347 -0.4553 -0.2596
 2663TIP3    H129404   3.330   2.125  10.904 -0.7462 -1.4315 -0.8277
 2663TIP3    H229405   3.213   2.080  10.989  0.0178  0.2047  1.1730
 2664TIP3   OH229406   5.331   2.784  13.166 -0.0750 -0.3853 -0.5397
 2664TIP3    H129407   5.350   2.693  13.145  0.8212 -0.5885  1.0457
 2664TIP3    H229408   5.348   2.831  13.084 -0.3705 -1.5846 -1.3283
 2665TIP3   OH229409   3.025   5.083   6.578 -0.3153  0.4972 -0.2567
 2665TIP3    H129410   2.971   5.029   6.520 -0.0349  2.3029 -2.3378
 2665TIP3    H229411   2.967   5.105   6.652 -0.6625 -1.9002  0.2485
 2666TIP3   OH229412   0.067   6.029   4.293 -0.0298  0.4890 -0.3140
 2666TIP3    H129413  -0.028   6.027   4.307  0.0152  0.9392  0.0914
 2666TIP3    H229414   0.083   5.959   4.230 -0.4283 -0.7167  0.8765
 2667TIP3   OH229415   4.054   3.625  16.846 -0.2867 -0.0473 -0.2378
 2667TIP3    H129416   4.077   3.656  16.933 -1.9665 -0.9664  0.5793
 2667TIP3    H229417   3.959   3.616  16.847 -0.5170  1.2114 -2.6249
 2668TIP3   OH229418   6.003   3.517   4.940  0.2623  0.1072  0.8030
 2668TIP3    H129419   6.074   3.512   5.004  0.4208 -0.6713  0.5757
 2668TIP3    H229420   6.029   3.457   4.870 -0.4319  0.1206  0.5214
 2669TIP3   OH229421   0.312   6.629  13.509  0.2009 -0.5248  0.1291
 2669TIP3    H129422   0.394   6.612  13.463  1.3671  0.4566  1.7361
 2669TIP3    H229423   0.328   6.598  13.598 -0.3543  1.6331  1.0530
 2670TIP3   OH229424   2.015   5.807  13.312 -0.5434 -0.3410  0.5197
 2670TIP3    H129425   1.943   5.786  13.252  0.3839 -2.1010 -0.0522
 2670TIP3    H229426   2.076   5.858  13.259  0.2465 -1.8446 -0.1029
 2671TIP3   OH229427   1.351   2.433  13.731  0.7623  0.2369  1.0101
 2671TIP3    H129428   1.266   2.455  13.693  0.8399 -0.8140  0.1818
 2671TIP3    H229429   1.333   2.357  13.787  1.2881 -0.5171  0.1746
 2672TIP3   OH229430   4.637   1.444  17.061 -0.0941  0.6021 -0.3071
 2672TIP3    H129431   4.603   1.513  17.118 -0.9444  1.2728 -1.5957
 2672TIP3    H229432   4.569   1.377  17.061 -0.3605  0.8637 -0.9724
 2673TIP3   OH229433   0.138   5.047   1.768  0.3319  0.3063 -0.1064
 2673TIP3    H129434   0.232   5.031   1.769  0.4771  1.0802 -0.1695
 2673TIP3    H229435   0.125   5.110   1.697 -0.3335 -0.3363 -0.5639
 2674TIP3   OH229436   2.889   5.716  14.902  0.2842  0.5084  0.0760
 2674TIP3    H129437   2.821   5.658  14.871  0.3854 -0.2931  1.2859
 2674TIP3    H229438   2.861   5.803  14.874 -0.6129  0.0553 -0.4777
 2675TIP3   OH229439   0.704   5.538   0.804 -0.4235 -0.3014 -0.0694
 2675TIP3    H129440   0.690   5.460   0.858 -1.6458 -1.1308 -1.5063
 2675TIP3    H229441   0.766   5.590   0.853 -1.3147 -1.1163  2.0263
 2676TIP3   OH229442   3.028   5.862  12.960 -0.4125 -0.1262  0.0868
 2676TIP3    H129443   2.978   5.904  12.891  0.8752 -1.4218 -1.7350
 2676TIP3    H229444   2.970   5.795  12.995 -0.4744 -0.6752 -1.0314
 2677TIP3   OH229445   3.342   2.762  14.459 -0.1788 -0.5363 -0.3034
 2677TIP3    H129446   3.298   2.846  14.466  1.5696  0.3933  0.0916
 2677TIP3    H229447   3.432   2.783  14.434  0.5464 -2.2016  0.6585
 2678TIP3   OH229448   4.709   5.562   1.025  0.1168 -0.2641  0.4964
 2678TIP3    H129449   4.682   5.477   1.060 -0.1522 -1.0189 -1.4257
 2678TIP3    H229450   4.729   5.545   0.933  2.2976  1.2854  0.5834
 2679TIP3   OH229451   4.166   2.797   3.103 -0.0904  0.0856  0.1588
 2679TIP3    H129452   4.146   2.790   3.010 -0.5605 -1.5964  0.3382
 2679TIP3    H229453   4.080   2.808   3.145  0.0177 -0.1176  0.4436
 2680TIP3   OH229454   0.607   0.574  16.906  0.1502  0.1680 -1.0629
 2680TIP3    H129455   0.587   0.520  16.982  2.1094 -0.2323 -0.7626
 2680TIP3    H229456   0.667   0.641  16.938  0.6920  0.2397 -2.1495
 2681TIP3   OH229457   3.395   4.103  12.911  0.2317  0.0905  0.2896
 2681TIP3    H129458   3.365   4.085  13.000 -2.2903  2.9277  0.1842
 2681TIP3    H229459   3.460   4.174  12.922  1.8080 -1.2435 -0.0293
 2682TIP3   OH229460   0.141   4.583   0.001  0.3102 -0.1962 -0.3001
 2682TIP3    H129461   0.183   4.630   0.073 -0.3126 -0.7835  0.4596
 2682TIP3    H229462   0.175   4.494   0.007 -0.1632 -0.3854 -0.3946
 2683TIP3   OH229463   2.393   6.276  15.450  0.2001  0.0505  0.4634
 2683TIP3    H129464   2.484   6.268  15.479 -0.1969  1.0689  2.1211
 2683TIP3    H229465   2.356   6.345  15.505 -1.6568 -0.5230  0.0163
 2684TIP3   OH229466   0.725   0.721  10.632 -0.2622 -0.3050  0.2095
 2684TIP3    H129467   0.702   0.673  10.711  1.7015 -0.0651  0.9943
 2684TIP3    H229468   0.754   0.654  10.570 -1.2961 -0.4462 -0.1356
 2685TIP3   OH229469   6.356   4.515   0.370 -0.1456 -0.0633  0.0331
 2685TIP3    H129470   6.396   4.601   0.379 -1.3438  0.5563 -0.3235
 2685TIP3    H229471   6.373   4.471   0.453  2.6116 -0.4549 -0.6379
 2686TIP3   OH229472   5.475   2.196  16.026  0.2057  0.4750  0.6032
 2686TIP3    H129473   5.533   2.193  16.103  0.8596 -1.0741  0.1028
 2686TIP3    H229474   5.430   2.111  16.027 -0.3662  0.7554 -0.2869
 2687TIP3   OH229475   2.912   1.756  16.608 -0.8062  0.6521  0.0433
 2687TIP3    H129476   2.936   1.824  16.545 -0.3430 -0.2246 -0.7557
 2687TIP3    H229477   2.819   1.771  16.626 -1.1667  0.4540 -1.4762
 2688TIP3   OH229478   3.332   0.498   4.809  0.3277  0.1710 -0.5062
 2688TIP3    H129479   3.380   0.569   4.767 -0.8930  1.5917  0.3999
 2688TIP3    H229480   3.242   0.507   4.778  0.2286 -1.2857 -0.7270
 2689TIP3   OH229481   0.385   3.066  13.847  0.0260  0.6086 -0.0366
 2689TIP3    H129482   0.464   3.085  13.898  0.8214 -0.0962 -0.9557
 2689TIP3    H229483   0.385   3.131  13.777 -0.5371  0.9717  0.2945
 2690TIP3   OH229484   1.108   0.913   3.353  0.1524  1.1904  0.2211
 2690TIP3    H129485   1.115   0.900   3.258  1.8363 -1.2436  0.5756
 2690TIP3    H229486   1.015   0.926   3.369 -0.1128  2.0485 -1.8014
 2691TIP3   OH229487   5.094   4.499   1.211  0.5380 -0.0724 -0.4673
 2691TIP3    H129488   5.106   4.564   1.280 -0.9794 -0.6052  0.3412
 2691TIP3    H229489   5.150   4.425   1.238  1.0418  0.2697 -0.5634
 2692TIP3   OH229490   5.604   5.445   6.363 -0.0539 -0.6880  0.6301
 2692TIP3    H129491   5.609   5.443   6.268  0.6533 -1.3581  0.6777
 2692TIP3    H229492   5.645   5.364   6.392 -2.1627 -1.5339  1.4438
 2693TIP3   OH229493   1.842   5.844  12.272  0.3903 -0.0062  0.4392
 2693TIP3    H129494   1.832   5.938  12.282 -2.6955 -0.0985 -0.6242
 2693TIP3    H229495   1.892   5.833  12.191  0.8869  0.6811  0.6470
 2694TIP3   OH229496   1.926   0.420  11.658 -0.5215  0.1099  0.1344
 2694TIP3    H129497   1.968   0.424  11.744  0.8558  1.5384 -0.5436
 2694TIP3    H229498   1.988   0.372  11.603  0.0423  1.7828 -0.7572
 2695TIP3   OH229499   0.825   3.124  14.164 -0.2946 -0.1865  0.2244
 2695TIP3    H129500   0.885   3.152  14.095 -0.7703  1.3599  0.3975
 2695TIP3    H229501   0.791   3.040  14.134 -1.8908  1.2449 -2.3586
 2696TIP3   OH229502   5.068   0.381   5.108  0.4714 -0.4213  0.5173
 2696TIP3    H129503   5.085   0.421   5.022  1.1394 -1.8789 -0.0545
 2696TIP3    H229504   5.009   0.443   5.151  0.4556  0.5509 -0.8221
 2697TIP3   OH229505   1.470   1.784   5.264  0.2364 -0.2890  0.2039
 2697TIP3    H129506   1.406   1.832   5.213  0.5606 -1.3237 -1.2305
 2697TIP3    H229507   1.488   1.706   5.212  2.2471 -0.2883  0.8358
 2698TIP3   OH229508   6.150   2.179   1.690 -0.4481  0.2444 -0.3387
 2698TIP3    H129509   6.164   2.155   1.781  0.3371  0.7565 -0.3098
 2698TIP3    H229510   6.066   2.140   1.667 -1.4080  1.3821  1.0486
 2699TIP3   OH229511   1.272   4.135  10.709  0.4864 -0.2659 -0.4251
 2699TIP3    H129512   1.313   4.112  10.625  0.1031 -0.4907 -0.5534
 2699TIP3    H229513   1.337   4.189  10.753  0.3511  0.5948 -1.2450
 2700TIP3   OH229514   3.315   0.337   1.228  0.1005  0.1742  0.3004
 2700TIP3    H129515   3.245   0.330   1.293 -0.2023 -0.0522 -0.0448
 2700TIP3    H229516   3.392   0.301   1.272 -0.3941 -1.1560  0.1100
 2701TIP3   OH229517   2.769   1.727   2.134 -0.3666 -0.2218  0.0555
 2701TIP3    H129518   2.863   1.746   2.134 -0.4681  0.4455  2.0468
 2701TIP3    H229519   2.761   1.649   2.188 -1.0551  0.3866  0.8561
 2702TIP3   OH229520   1.509   6.557  15.652  0.0970 -0.0472 -0.1660
 2702TIP3    H129521   1.413   6.558  15.651  0.0639 -1.3650  0.2458
 2702TIP3    H229522   1.533   6.507  15.575  0.4869  0.8087 -0.6134
 2703TIP3   OH229523   2.444   5.523   0.614  0.0079 -0.0121 -0.1865
 2703TIP3    H129524   2.385   5.492   0.682 -3.1255  0.1242 -2.5889
 2703TIP3    H229525   2.423   5.470   0.537  2.1881  0.9074 -1.5263
 2704TIP3   OH229526   5.767   4.140  16.560  0.4948 -0.2656  0.4031
 2704TIP3    H129527   5.845   4.175  16.517  0.5788 -1.8373 -0.7985
 2704TIP3    H229528   5.698   4.149  16.494 -0.0307 -0.1622  0.9601
 2705TIP3   OH229529   6.414   4.536  11.434  0.7314 -0.1583 -0.1252
 2705TIP3    H129530   6.449   4.562  11.519  0.0506 -0.4359  0.2534
 2705TIP3    H229531   6.451   4.598  11.372 -1.4422  2.2875  0.8361
 2706TIP3   OH229532   0.962   3.569   5.273 -0.1329 -0.3204  0.4264
 2706TIP3    H129533   0.997   3.520   5.347  0.1064  0.5696  0.9221
 2706TIP3    H229534   1.011   3.651   5.273  1.5822 -1.2336 -2.2038
 2707TIP3   OH229535   6.378   4.840  10.367  0.1098 -0.0296  0.0707
 2707TIP3    H129536   6.324   4.767  10.396  0.6761 -0.1994  0.7183
 2707TIP3    H229537   6.434   4.803  10.299  0.7681 -0.3447  0.7675
 2708TIP3   OH229538   3.658   0.961   5.177  0.3895  0.3457 -0.1254
 2708TIP3    H129539   3.567   0.960   5.146  0.3489 -1.6009 -0.0493
 2708TIP3    H229540   3.659   1.026   5.247 -0.7619  0.9278 -0.6281
 2709TIP3   OH229541   5.411   5.251  10.746  0.4268  0.5360  0.3670
 2709TIP3    H129542   5.429   5.326  10.803  0.0613  0.4948  0.5404
 2709TIP3    H229543   5.347   5.199  10.794  2.1288 -0.9260  1.1267
 2710TIP3   OH229544   3.717   5.959  14.169 -0.0493  0.1673  0.3575
 2710TIP3    H129545   3.694   5.938  14.078  0.2475 -0.2107  0.3725
 2710TIP3    H229546   3.771   6.038  14.162  0.9570 -0.5284  0.1125
 2711TIP3   OH229547   1.716   5.765  12.868 -0.1566  0.7089 -0.8312
 2711TIP3    H129548   1.691   5.752  12.777 -0.6245 -0.0625 -0.6028
 2711TIP3    H229549   1.639   5.807  12.908 -0.3311  0.1720 -0.5856
 2712TIP3   OH229550   6.263   0.653   2.599  0.0777  0.0397 -0.3210
 2712TIP3    H129551   6.304   0.582   2.648 -0.6559 -0.0297  0.2118
 2712TIP3    H229552   6.289   0.638   2.508  1.4151  0.1379  0.0258
 2713TIP3   OH229553   1.215   6.142   3.099  0.1024  0.1891 -0.0926
 2713TIP3    H129554   1.277   6.084   3.144  0.7281  0.9405  0.0390
 2713TIP3    H229555   1.155   6.171   3.169  0.6568  0.8144  0.1346
 2714TIP3   OH229556   5.815   4.763   1.791  0.1615  1.1575  0.2842
 2714TIP3    H129557   5.868   4.790   1.866 -0.9328 -2.3614  2.5844
 2714TIP3    H229558   5.725   4.761   1.825 -0.4145 -0.2744 -1.2045
 2715TIP3   OH229559   1.672   4.910  12.331  0.1876 -0.6421  0.8062
 2715TIP3    H129560   1.714   4.824  12.336 -1.1670 -1.4620 -0.9132
 2715TIP3    H229561   1.640   4.926  12.420  1.5372 -1.3001  1.4586
 2716TIP3   OH229562   4.553   0.829   5.895  0.1526 -0.2257  0.2616
 2716TIP3    H129563   4.536   0.740   5.925  0.7379 -0.5223 -0.2798
 2716TIP3    H229564   4.489   0.845   5.826  0.6759 -0.5706 -0.3014
 2717TIP3   OH229565   6.307   5.281  11.502 -0.0315 -0.5887 -0.0969
 2717TIP3    H129566   6.298   5.367  11.461 -2.2613 -0.0281  1.3843
 2717TIP3    H229567   6.388   5.246  11.466  0.4168  1.6914 -1.5310
 2718TIP3   OH229568   6.035   3.223  12.071 -0.9659 -0.3919 -0.3128
 2718TIP3    H129569   6.085   3.246  12.150  0.1104 -1.0889 -0.7707
 2718TIP3    H229570   6.064   3.287  12.006 -0.8868 -0.6224 -0.5029
 2719TIP3   OH229571   5.461   1.822  11.465 -0.2421  0.8073 -0.8478
 2719TIP3    H129572   5.448   1.912  11.495 -1.5724  0.3146  0.1755
 2719TIP3    H229573   5.385   1.804  11.410 -1.1755 -0.3685  0.7327
 2720TIP3   OH229574   5.808   1.909   2.561 -0.1268 -0.0667 -0.1640
 2720TIP3    H129575   5.762   1.826   2.576  0.2274 -0.2690 -0.1912
 2720TIP3    H229576   5.896   1.883   2.535  0.0390  0.3245  0.0086
 2721TIP3   OH229577   2.280   6.342  10.759  0.1635 -0.0445  0.4023
 2721TIP3    H129578   2.325   6.421  10.788  0.7841 -0.1901 -0.1573
 2721TIP3    H229579   2.243   6.305  10.839 -0.0329  0.7442  0.6855
 2722TIP3   OH229580   4.528   4.928  14.556 -0.3427 -0.3876 -0.4140
 2722TIP3    H129581   4.541   4.894  14.645  0.6162  0.7234 -0.1163
 2722TIP3    H229582   4.614   4.923  14.515  0.1416  2.6380  0.0162
 2723TIP3   OH229583   2.842   3.109   3.050 -0.0467 -0.0358 -0.7634
 2723TIP3    H129584   2.787   3.170   3.098  1.8540  1.4869 -0.3996
 2723TIP3    H229585   2.825   3.024   3.090 -1.6428  0.4906 -0.2674
 2724TIP3   OH229586   2.372   5.992   5.502 -0.3516  0.4447  0.0281
 2724TIP3    H129587   2.321   5.932   5.447  0.4143  0.3383 -0.5690
 2724TIP3    H229588   2.374   6.074   5.452 -0.3694  0.6015  0.2851
 2725TIP3   OH229589   1.936   5.290  12.642 -0.0148 -0.5505 -0.1359
 2725TIP3    H129590   1.967   5.350  12.574  0.6311  0.0998  0.7294
 2725TIP3    H229591   1.992   5.213  12.634  1.2458  0.2393  0.8036
 2726TIP3   OH229592   3.611   0.405   5.520  0.2496  0.3853 -0.5917
 2726TIP3    H129593   3.617   0.396   5.616 -0.5931  1.2018 -0.4462
 2726TIP3    H229594   3.603   0.315   5.488 -0.2866  0.1414  0.1757
 2727TIP3   OH229595   1.475   5.496  10.445  0.2885  0.1859  0.6219
 2727TIP3    H129596   1.570   5.506  10.441  0.3712  0.6312  2.4594
 2727TIP3    H229597   1.460   5.402  10.437  0.7718  0.2265 -0.9211
 2728TIP3   OH229598   3.553   3.069   4.439 -0.1111  0.2801  0.3469
 2728TIP3    H129599   3.531   3.079   4.532 -1.1471  1.9306 -0.0276
 2728TIP3    H229600   3.469   3.052   4.396  0.2290  0.4033 -0.3803
 2729TIP3   OH229601   6.286   6.456  13.932 -0.1409 -0.0300  0.0601
 2729TIP3    H129602   6.294   6.542  13.972 -1.0918  0.2317 -0.2810
 2729TIP3    H229603   6.284   6.395  14.006  0.2992  0.2491  0.3093
 2730TIP3   OH229604   0.010   4.337   1.413 -1.4056 -0.5217 -0.0701
 2730TIP3    H129605   0.015   4.432   1.426  1.4847 -0.7776  1.7933
 2730TIP3    H229606  -0.062   4.309   1.470  0.1931  0.2651  2.5222
 2731TIP3   OH229607   4.239   4.846   3.873 -0.4649  0.3275  0.2800
 2731TIP3    H129608   4.160   4.883   3.833 -0.1680 -0.5163 -1.1619
 2731TIP3    H229609   4.296   4.826   3.799  1.0905  0.8544  1.3079
 2732TIP3   OH229610   5.188   2.255  14.368  0.5030  0.0484 -0.3616
 2732TIP3    H129611   5.199   2.272  14.462  0.4145  3.4155 -0.8302
 2732TIP3    H229612   5.238   2.324  14.325 -0.6344 -0.5239 -2.7762
 2733TIP3   OH229613   5.528   6.380   2.666 -0.2097  0.3335  0.5449
 2733TIP3    H129614   5.452   6.326   2.646  0.8653 -1.2589  0.5599
 2733TIP3    H229615   5.558   6.411   2.581  1.5650 -2.5672 -0.0626
 2734TIP3   OH229616   4.857   6.033  13.290 -0.4370 -0.1347  0.0871
 2734TIP3    H129617   4.870   6.125  13.267 -0.0819 -0.5358 -1.4732
 2734TIP3    H229618   4.913   6.019  13.367  0.3285  0.7031 -0.2947
 2735TIP3   OH229619   4.669   3.856   3.070 -0.5694  0.2373  0.4317
 2735TIP3    H129620   4.763   3.841   3.067 -0.6913 -0.4845 -0.2266
 2735TIP3    H229621   4.649   3.898   2.987 -0.9126 -0.2089  0.2822
 2736TIP3   OH229622   5.373   0.742  16.961  0.3687  0.6168 -0.1224
 2736TIP3    H129623   5.383   0.788  17.044  3.4052 -0.3701  0.2105
 2736TIP3    H229624   5.410   0.802  16.896 -0.3802  0.6792 -0.4992
 2737TIP3   OH229625   5.643   0.904  10.675  0.1994 -0.1438  0.7052
 2737TIP3    H129626   5.665   0.981  10.622  0.0229  1.1694  2.4735
 2737TIP3    H229627   5.709   0.839  10.651  1.2063  1.0321  0.2103
 2738TIP3   OH229628   0.339   2.560  12.530 -0.0984  0.4053  0.0529
 2738TIP3    H129629   0.380   2.507  12.599 -0.4289  0.0526 -0.0203
 2738TIP3    H229630   0.385   2.533  12.450  0.6528  1.2003  0.2055
 2739TIP3   OH229631   1.327   0.831   1.635 -0.1717 -0.2917 -0.0712
 2739TIP3    H129632   1.337   0.737   1.619 -0.5858 -0.2188 -0.7858
 2739TIP3    H229633   1.243   0.854   1.595 -0.1159  0.3627  0.1753
 2740TIP3   OH229634   5.485   1.519   5.272  0.1262  0.0363 -0.0995
 2740TIP3    H129635   5.574   1.544   5.250  0.8264 -0.2653  2.1463
 2740TIP3    H229636   5.475   1.543   5.365 -2.6636  1.5264 -0.6648
 2741TIP3   OH229637   2.084   1.962   1.489 -0.2044  0.1587  0.1336
 2741TIP3    H129638   2.131   1.984   1.409 -0.9803 -0.6229 -0.5587
 2741TIP3    H229639   2.119   2.022   1.555  1.5721 -0.2149 -0.4096
 2742TIP3   OH229640   6.738   2.712   0.933  0.3398  0.1155  0.3305
 2742TIP3    H129641   6.731   2.806   0.913  1.1954 -0.2001 -1.6808
 2742TIP3    H229642   6.648   2.681   0.932  0.2175  0.4627 -1.5218
 2743TIP3   OH229643   3.422   2.135   3.276  0.3112 -0.4648 -0.2006
 2743TIP3    H129644   3.366   2.212   3.266  1.4770  0.3225 -0.8155
 2743TIP3    H229645   3.360   2.062   3.284 -0.8052  0.4338 -0.4061
 2744TIP3   OH229646   6.638   1.901  16.345  0.0527  0.4895  0.6114
 2744TIP3    H129647   6.657   1.809  16.328 -0.4561 -0.0180  2.4824
 2744TIP3    H229648   6.723   1.940  16.364  0.6360  1.0739 -2.6567
 2745TIP3   OH229649   0.599   6.004   3.921  0.2127  0.2156  0.1177
 2745TIP3    H129650   0.518   6.054   3.922 -0.3066 -0.6112  0.5470
 2745TIP3    H229651   0.663   6.060   3.965  0.1288  1.2519 -1.0202
 2746TIP3   OH229652   2.568   1.340  16.211 -0.3753 -0.1050 -0.1297
 2746TIP3    H129653   2.610   1.407  16.267 -2.0401  0.2594  0.7392
 2746TIP3    H229654   2.517   1.391  16.148  0.1434 -0.5494 -0.9189
 2747TIP3   OH229655   1.520   2.695   6.321 -0.4616  0.3777  0.0790
 2747TIP3    H129656   1.550   2.612   6.283  1.5376  0.7325  0.7713
 2747TIP3    H229657   1.444   2.670   6.374  0.5296 -1.1744  0.8567
 2748TIP3   OH229658   1.473   5.210   2.380  0.5053  0.1910  0.2820
 2748TIP3    H129659   1.538   5.167   2.436 -0.5467 -0.4039  1.0776
 2748TIP3    H229660   1.404   5.145   2.370 -0.7286  1.3824  0.8013
 2749TIP3   OH229661   2.257   0.394   2.164 -0.5007 -0.3084 -0.3911
 2749TIP3    H129662   2.225   0.381   2.074 -0.1872 -0.2065 -0.5165
 2749TIP3    H229663   2.262   0.489   2.174 -1.0746 -0.3065 -0.0738
 2750TIP3   OH229664   6.439   5.350   1.926 -0.1702 -0.0111  0.1428
 2750TIP3    H129665   6.521   5.307   1.903  0.2459  0.8168  0.0255
 2750TIP3    H229666   6.392   5.286   1.980 -1.0053 -1.8740 -2.5794
 2751TIP3   OH229667   2.929   6.070   5.557  0.5691 -0.0395  0.1764
 2751TIP3    H129668   2.835   6.064   5.536  0.2199  1.6342  1.0789
 2751TIP3    H229669   2.973   6.059   5.473 -0.5633  1.6206 -0.6908
 2752TIP3   OH229670   3.882   2.586   0.799 -0.3024 -0.5211 -0.2573
 2752TIP3    H129671   3.928   2.666   0.771 -2.3118  1.6674  2.1356
 2752TIP3    H229672   3.817   2.570   0.730 -0.6910  0.6932 -0.1997
 2753TIP3   OH229673   1.532   1.015  16.819 -0.0387 -0.4313  0.5352
 2753TIP3    H129674   1.485   1.094  16.793  0.0372 -0.4352  0.3871
 2753TIP3    H229675   1.618   1.046  16.848  0.6187 -0.6210 -1.1474
 2754TIP3   OH229676   0.265   3.009   2.964  0.2260  0.5518  0.2428
 2754TIP3    H129677   0.358   3.027   2.955  0.7229 -1.7036  0.1306
 2754TIP3    H229678   0.227   3.091   2.995  2.2756  1.4518  0.5438
 2755TIP3   OH229679   1.783   0.957   2.991 -0.5132 -0.4148  0.4496
 2755TIP3    H129680   1.797   0.865   3.014 -0.3728 -0.0966  1.6856
 2755TIP3    H229681   1.871   0.994   2.984 -0.5791 -0.2773  0.3387
 2756TIP3   OH229682   2.537   3.440   3.382  0.4362  0.4396 -0.1443
 2756TIP3    H129683   2.565   3.349   3.368 -0.8456  0.2314 -1.5492
 2756TIP3    H229684   2.610   3.492   3.349  0.2622 -0.0899 -1.4015
 2757TIP3   OH229685   6.307   2.416  15.861  0.4310 -0.0043 -0.1978
 2757TIP3    H129686   6.325   2.355  15.933 -1.0409  0.1939  0.3618
 2757TIP3    H229687   6.252   2.366  15.801 -0.4152  0.6167  0.0474
 2758TIP3   OH229688   2.372   3.899  14.242 -0.2023  0.0935 -0.4753
 2758TIP3    H129689   2.391   3.834  14.174  2.1117 -0.2962  0.4259
 2758TIP3    H229690   2.283   3.879  14.271 -0.7914 -0.4778 -2.5319
 2759TIP3   OH229691   3.359   2.115   1.228 -0.2340  0.5266 -0.0759
 2759TIP3    H129692   3.407   2.190   1.194 -0.2434  0.0604 -1.1367
 2759TIP3    H229693   3.362   2.050   1.158  1.4380 -1.2293  1.4943
 2760TIP3   OH229694   4.185   1.026   2.600  0.2412 -0.5016 -0.3571
 2760TIP3    H129695   4.096   1.056   2.582  0.5297  0.2896 -0.4949
 2760TIP3    H229696   4.173   0.949   2.656 -0.5014  1.2398  2.0560
 2761TIP3   OH229697   0.162   5.617  16.953 -0.2463  0.0509  0.6231
 2761TIP3    H129698   0.145   5.604  17.046 -1.5210 -1.7607  0.1933
 2761TIP3    H229699   0.121   5.700  16.932 -1.4576 -0.3439  1.3527
 2762TIP3   OH229700   5.340   3.595  16.848  0.3377 -0.3586 -0.4118
 2762TIP3    H129701   5.351   3.538  16.773 -1.5988 -1.0514 -0.2227
 2762TIP3    H229702   5.249   3.584  16.874 -0.4897  3.5828 -0.9815
 2763TIP3   OH229703   5.402   0.714  13.534  0.1025 -0.1448  0.2351
 2763TIP3    H129704   5.357   0.642  13.490  1.5689 -0.5007 -0.7719
 2763TIP3    H229705   5.389   0.789  13.476 -1.4364  0.4510  1.2907
 2764TIP3   OH229706   6.088   0.729  17.048 -0.3106  0.2140  0.4608
 2764TIP3    H129707   6.140   0.680  17.112 -0.1030 -0.7346 -0.4159
 2764TIP3    H229708   6.150   0.791  17.009 -0.2599  0.2799  0.6427
 2765TIP3   OH229709   2.415   2.002  11.382 -0.3517  0.2851 -0.5852
 2765TIP3    H129710   2.485   2.066  11.387 -1.6361  1.7819 -0.9781
 2765TIP3    H229711   2.417   1.958  11.467  1.3509 -0.0766 -0.7700
 2766TIP3   OH229712   3.622   5.224  16.008  0.1149 -0.0731  0.9571
 2766TIP3    H129713   3.578   5.309  16.000  1.1147  0.3378 -0.4128
 2766TIP3    H229714   3.608   5.181  15.924  1.5843 -0.2797  0.7924
 2767TIP3   OH229715   4.333   4.869   2.311  0.0312  0.9404 -0.7089
 2767TIP3    H129716   4.361   4.894   2.399 -1.2807  0.3910 -0.1015
 2767TIP3    H229717   4.241   4.845   2.321 -1.0697  3.7376 -2.7631
 2768TIP3   OH229718   1.619   3.593   1.887  0.7873  0.8432  0.4865
 2768TIP3    H129719   1.653   3.507   1.913  2.8086  1.7909  1.1700
 2768TIP3    H229720   1.599   3.637   1.969 -1.1740  0.7257  0.1173
 2769TIP3   OH229721   5.103   1.717  17.076 -0.3242 -0.0382 -0.0639
 2769TIP3    H129722   5.089   1.684  17.165 -0.0844  1.2135  0.4674
 2769TIP3    H229723   5.027   1.773  17.059 -0.4326 -0.3738 -0.6979
 2770TIP3   OH229724   6.447   1.913  11.344  0.1788 -0.0245 -0.8584
 2770TIP3    H129725   6.412   1.891  11.258  0.2630  0.9025 -1.1402
 2770TIP3    H229726   6.390   1.867  11.406  0.8890 -1.7712 -1.4245
 2771TIP3   OH229727   0.247   1.126  12.543  0.2291  0.5159 -0.6483
 2771TIP3    H129728   0.262   1.045  12.592  1.3965  0.3367 -1.2709
 2771TIP3    H229729   0.292   1.194  12.595 -0.0075  0.6239 -0.5814
 2772TIP3   OH229730   1.207   0.399  15.834 -0.4471  0.1322  0.4492
 2772TIP3    H129731   1.148   0.331  15.868 -1.1240  1.0233  1.0885
 2772TIP3    H229732   1.214   0.379  15.740 -0.9393 -0.5910  0.5548
 2773TIP3   OH229733   5.786   6.009   3.097  0.6974  0.1056 -0.4630
 2773TIP3    H129734   5.810   6.088   3.049  0.8124 -1.1038 -2.5468
 2773TIP3    H229735   5.752   5.950   3.029  0.2999 -1.5094  1.0687
 2774TIP3   OH229736   3.694   3.949  13.366 -0.4067  0.5900 -0.6269
 2774TIP3    H129737   3.633   4.015  13.333  1.4842  1.9024 -1.7384
 2774TIP3    H229738   3.694   3.880  13.300 -1.9557 -0.3115  0.2549
 2775TIP3   OH229739   6.056   0.344  11.844 -0.5388 -0.3498 -0.0818
 2775TIP3    H129740   6.022   0.372  11.929  0.6737  1.2130 -0.0506
 2775TIP3    H229741   6.003   0.391  11.780 -0.0763  0.1497 -0.1063
 2776TIP3   OH229742   0.255   6.358   1.873 -0.3464 -0.4245  0.3213
 2776TIP3    H129743   0.202   6.282   1.850 -1.2535  0.1308  0.5155
 2776TIP3    H229744   0.265   6.406   1.790  2.4312 -2.0195 -0.4031
 2777TIP3   OH229745   5.394   2.665  16.406  0.0065 -0.1904 -0.2037
 2777TIP3    H129746   5.396   2.694  16.497 -1.6032  1.3525 -0.6001
 2777TIP3    H229747   5.301   2.659  16.385  0.3446 -1.2740 -1.5335
 2778TIP3   OH229748   2.894   2.097   0.744  0.0728 -0.1047 -0.3733
 2778TIP3    H129749   2.959   2.161   0.717  0.0246 -1.0042 -2.8799
 2778TIP3    H229750   2.824   2.105   0.679 -0.3817 -1.9931 -0.1770
 2779TIP3   OH229751   2.508   3.000  15.531  0.2195  0.7452  0.6418
 2779TIP3    H129752   2.558   2.927  15.569 -1.1907 -1.3458 -1.2483
 2779TIP3    H229753   2.557   3.024  15.452 -1.5694 -1.3335 -1.2339
 2780TIP3   OH229754   5.179   6.143  16.607  0.1724 -0.2594 -0.1595
 2780TIP3    H129755   5.180   6.125  16.513 -2.6773 -1.1454 -0.1187
 2780TIP3    H229756   5.110   6.086  16.642  0.0287  1.2069  2.2005
 2781TIP3   OH229757   4.933   6.177   0.261  0.1968  0.1975 -0.1816
 2781TIP3    H129758   4.999   6.247   0.257  0.1861  0.3473  1.6413
 2781TIP3    H229759   4.864   6.206   0.202  0.2767  1.6493  0.4070
 2782TIP3   OH229760   3.648   5.471  13.994 -0.1231  0.3033 -0.1630
 2782TIP3    H129761   3.731   5.424  13.995  0.6071  1.5764  0.5531
 2782TIP3    H229762   3.629   5.483  13.901  0.3086 -0.3033 -0.3357
 2783TIP3   OH229763   3.340   4.324   0.106 -0.2448 -0.0332  0.4733
 2783TIP3    H129764   3.354   4.348   0.198 -0.7719  0.7668  0.3551
 2783TIP3    H229765   3.261   4.372   0.080  0.3227  0.3498 -0.6114
 2784TIP3   OH229766   0.023   5.037   2.220 -0.5219 -0.1952  0.0235
 2784TIP3    H129767   0.102   5.082   2.250 -0.7490  1.2807 -1.4495
 2784TIP3    H229768  -0.002   4.981   2.294  1.1839  0.2309  0.9817
 2785TIP3   OH229769   4.046   4.242  15.938 -0.7052 -0.1468 -0.4916
 2785TIP3    H129770   4.021   4.333  15.928 -1.0384 -0.0764  0.7972
 2785TIP3    H229771   4.142   4.241  15.927 -0.7294  0.3042 -0.7474
 2786TIP3   OH229772   0.108   5.811   2.519  0.1186  0.4176  0.4144
 2786TIP3    H129773   0.128   5.768   2.436 -4.1470 -2.5276  0.5764
 2786TIP3    H229774   0.035   5.869   2.499 -0.5262  0.1903  1.9435
 2787TIP3   OH229775   3.121   6.267   5.620 -0.0334 -0.3955  0.1275
 2787TIP3    H129776   3.083   6.327   5.556 -1.6069 -0.9727  0.4836
 2787TIP3    H229777   3.078   6.184   5.605 -0.2289 -0.6195  1.7225
 2788TIP3   OH229778   1.920   2.562  17.128 -0.1111  0.0679 -0.1848
 2788TIP3    H129779   1.947   2.519  17.046 -1.4253 -2.4802  0.6176
 2788TIP3    H229780   2.002   2.574  17.177  0.4807  0.0264 -1.1367
 2789TIP3   OH229781   0.220   0.832   4.397  0.4197  0.1245 -0.1604
 2789TIP3    H129782   0.199   0.879   4.316 -1.3150  1.0415  0.7686
 2789TIP3    H229783   0.278   0.761   4.369  1.8084  1.8167 -1.8586
 2790TIP3   OH229784   0.687   2.736   2.657 -0.0152 -0.5340 -0.1883
 2790TIP3    H129785   0.700   2.776   2.743 -1.0909 -0.0522 -0.2325
 2790TIP3    H229786   0.760   2.674   2.648  2.3254  2.0727 -0.5394
 2791TIP3   OH229787   0.862   0.367  11.112 -0.2212  0.2977  0.0906
 2791TIP3    H129788   0.833   0.279  11.136  1.4500  0.2458  2.1747
 2791TIP3    H229789   0.930   0.353  11.046  0.0093  0.0316  0.3852
 2792TIP3   OH229790   1.319   1.743   5.666 -0.0310 -0.6353  0.1422
 2792TIP3    H129791   1.348   1.679   5.731  1.1875  0.7852  1.0645
 2792TIP3    H229792   1.345   1.828   5.702  0.6537  0.2250 -2.1891
 2793TIP3   OH229793   5.332   1.118   2.451  0.5375 -0.2072  0.1893
 2793TIP3    H129794   5.327   1.093   2.359 -0.5548  1.7344 -0.3378
 2793TIP3    H229795   5.247   1.092   2.487  1.4343 -2.1816  1.0509
 2794TIP3   OH229796   3.582   6.455  15.142  0.2088 -0.4432 -0.1560
 2794TIP3    H129797   3.647   6.388  15.122 -1.9592 -2.6532 -0.1779
 2794TIP3    H229798   3.510   6.439  15.081 -0.1880  2.3115 -0.5496
 2795TIP3   OH229799   2.083   4.891  14.203  0.4998 -0.0106 -0.0394
 2795TIP3    H129800   2.115   4.944  14.276 -1.1591  1.1668 -0.0822
 2795TIP3    H229801   2.147   4.904  14.133  0.8078  0.9218  0.3951
 2796TIP3   OH229802   0.638   6.063  15.634 -0.0666  0.3368  0.2098
 2796TIP3    H129803   0.695   6.096  15.704  0.3754 -1.2072  0.6032
 2796TIP3    H229804   0.693   6.001  15.586 -1.0637 -0.2841 -0.1465
 2797TIP3   OH229805   1.847   4.351   0.151 -0.0222  0.3587  0.0982
 2797TIP3    H129806   1.790   4.403   0.094  3.2562  2.9362 -1.1174
 2797TIP3    H229807   1.836   4.390   0.238 -1.5520 -0.5377  0.3489
 2798TIP3   OH229808   1.348   6.306  15.686 -0.2844 -0.1724 -0.0435
 2798TIP3    H129809   1.424   6.305  15.628 -0.9759 -1.0645 -0.9816
 2798TIP3    H229810   1.363   6.234  15.747  0.2408  0.4930  0.6190
 2799TIP3   OH229811   5.674   5.705  15.550 -0.2022 -0.0901  0.2813
 2799TIP3    H129812   5.589   5.701  15.594 -0.2807  1.0920  0.2724
 2799TIP3    H229813   5.738   5.697  15.620 -0.3036 -1.2493  0.2614
 2800TIP3   OH229814   4.478   2.862  16.518  0.4271 -0.7397  0.0981
 2800TIP3    H129815   4.405   2.896  16.570  1.0955  0.6944  0.1320
 2800TIP3    H229816   4.506   2.783  16.565 -1.5970 -1.8162 -0.3533
 2801TIP3   OH229817   0.278   5.471  13.152  0.2551  0.0847  0.0551
 2801TIP3    H129818   0.287   5.476  13.057  0.7899 -1.2532  0.0138
 2801TIP3    H229819   0.365   5.490  13.185  0.0748  0.5250  0.2901
 2802TIP3   OH229820   5.024   1.605   4.864 -0.0002  0.9186 -0.0176
 2802TIP3    H129821   4.983   1.520   4.879  0.3451  0.4693 -1.4701
 2802TIP3    H229822   5.113   1.594   4.899  0.6681  0.0186 -1.8679
 2803TIP3   OH229823   1.075   4.019  16.875 -0.2534  0.2521  0.6845
 2803TIP3    H129824   1.017   3.952  16.839  1.1472 -0.5239 -0.2131
 2803TIP3    H229825   1.063   4.013  16.970 -0.2878 -1.1524  0.6054
 2804TIP3   OH229826   0.319   4.738  11.399  0.3289 -0.2568 -0.8160
 2804TIP3    H129827   0.299   4.749  11.306 -0.1741  1.5487 -0.5460
 2804TIP3    H229828   0.240   4.767  11.445 -0.3733 -3.4019  0.2236
 2805TIP3   OH229829   1.176   3.328  11.116  0.3024  0.1621 -0.7736
 2805TIP3    H129830   1.254   3.363  11.072 -0.4546  2.1835 -0.6324
 2805TIP3    H229831   1.108   3.393  11.098 -1.2990 -1.4077 -0.6478
 2806TIP3   OH229832   3.358   6.686  11.530  0.1441  0.2185  0.6950
 2806TIP3    H129833   3.402   6.617  11.580  1.7755 -0.2836 -1.2854
 2806TIP3    H229834   3.371   6.660  11.439 -0.0288  2.6763 -0.0753
 2807TIP3   OH229835   5.702   5.395  11.194 -0.1543  0.2722  0.0164
 2807TIP3    H129836   5.652   5.436  11.265  0.2029  1.4751 -0.4036
 2807TIP3    H229837   5.760   5.333  11.238 -2.3116 -1.5557  0.4993
 2808TIP3   OH229838   3.896   2.115  16.194 -0.5864  0.1168 -0.2480
 2808TIP3    H129839   3.940   2.031  16.203 -1.4561 -0.3653 -0.4335
 2808TIP3    H229840   3.939   2.157  16.119 -0.0548 -0.0834 -0.0643
 2809TIP3   OH229841   0.980   4.126   2.485 -0.2854  0.2652  0.1910
 2809TIP3    H129842   1.075   4.126   2.497  0.0355  3.5305 -1.3505
 2809TIP3    H229843   0.945   4.098   2.570  1.9529 -3.4237  0.0943
 2810TIP3   OH229844   6.644   1.838   4.023  0.4661 -0.2552 -0.4488
 2810TIP3    H129845   6.561   1.806   3.988 -0.2231 -2.4217  2.7511
 2810TIP3    H229846   6.708   1.820   3.955 -1.3626 -0.2056 -2.2686
 2811TIP3   OH229847   0.593   3.616  13.321 -0.0893  0.2903  0.0113
 2811TIP3    H129848   0.574   3.530  13.284  0.9544 -0.2118  0.5647
 2811TIP3    H229849   0.583   3.604  13.415  2.4012  0.0607  0.3268
 2812TIP3   OH229850   5.208   6.552  16.431  0.1733  0.3279 -0.2585
 2812TIP3    H129851   5.227   6.509  16.514  0.1016 -0.2659 -0.5386
 2812TIP3    H229852   5.127   6.601  16.447  0.3034  0.4266  0.0945
 2813TIP3   OH229853   2.889   0.686   1.383 -0.1220 -0.6406  0.1961
 2813TIP3    H129854   2.968   0.732   1.354  0.0841 -1.2534 -0.2299
 2813TIP3    H229855   2.910   0.656   1.472  0.7239 -2.1567 -0.4937
 2814TIP3   OH229856   2.833   3.501  15.158 -0.2693  0.1726  0.1874
 2814TIP3    H129857   2.850   3.407  15.149  0.0150  0.2172  0.2387
 2814TIP3    H229858   2.920   3.541  15.150 -0.5655  0.5526 -1.5597
 2815TIP3   OH229859   3.526   3.093   1.847 -0.0496  0.2125 -0.5769
 2815TIP3    H129860   3.446   3.041   1.839 -1.1628  2.0886 -3.0749
 2815TIP3    H229861   3.542   3.097   1.941 -0.8061 -3.1648 -0.1691
 2816TIP3   OH229862   5.777   2.765  16.444  0.0520 -0.1795  0.2289
 2816TIP3    H129863   5.765   2.670  16.447 -0.1839 -0.1480  0.2885
 2816TIP3    H229864   5.868   2.776  16.416 -0.6328 -0.3943 -2.2980
 2817TIP3   OH229865   5.053   2.573   6.503  0.1696 -0.1438  0.8115
 2817TIP3    H129866   4.968   2.536   6.480 -0.2672 -0.5273  2.8603
 2817TIP3    H229867   5.042   2.667   6.492 -0.4044 -0.2174  0.7206
 2818TIP3   OH229868   2.440   4.352  14.857  0.3207 -0.0028 -0.1871
 2818TIP3    H129869   2.510   4.317  14.802  0.9949 -0.1515  0.7596
 2818TIP3    H229870   2.473   4.346  14.946 -1.0824 -0.5634  0.3384
 2819TIP3   OH229871   4.816   0.364   0.335 -0.0839 -0.2810  0.1257
 2819TIP3    H129872   4.872   0.345   0.260 -0.6356 -0.0335 -0.3606
 2819TIP3    H229873   4.841   0.453   0.362  1.0347 -0.8536  1.0842
 2820TIP3   OH229874   5.940   2.559   5.446  0.4487 -0.0202  0.7095
 2820TIP3    H129875   6.032   2.554   5.469  1.2269  1.4893 -1.6645
 2820TIP3    H229876   5.931   2.644   5.401 -1.8717 -0.5543  0.0203
 2821TIP3   OH229877   3.310   4.749   1.891 -0.3904 -0.6409  0.4858
 2821TIP3    H129878   3.267   4.777   1.811 -0.8278  1.0066  1.2426
 2821TIP3    H229879   3.400   4.781   1.883 -1.2955  2.7880  2.0547
 2822TIP3   OH229880   2.754   6.042   4.237 -0.1354 -0.5273 -0.1359
 2822TIP3    H129881   2.737   6.123   4.285  2.4636  2.1818 -3.2840
 2822TIP3    H229882   2.670   6.019   4.197 -1.3543 -0.5549  2.3066
 2823TIP3   OH229883   1.746   0.280  11.276  0.2155  0.7050 -0.3889
 2823TIP3    H129884   1.735   0.212  11.343 -0.8704  0.5849 -0.6580
 2823TIP3    H229885   1.740   0.362  11.324 -1.6136  0.6419 -0.4204
 2824TIP3   OH229886   1.908   5.771   3.739 -0.1181 -0.3128  0.1164
 2824TIP3    H129887   1.924   5.758   3.833  0.1966  1.0654  0.2613
 2824TIP3    H229888   1.883   5.684   3.708 -0.5788 -0.7293  1.5481
 2825TIP3   OH229889   5.746   5.385  12.718  0.2624 -0.0198  0.4906
 2825TIP3    H129890   5.811   5.399  12.649 -0.5634  1.4164 -0.0188
 2825TIP3    H229891   5.719   5.473  12.744  0.5992 -0.5096  2.7227
 2826TIP3   OH229892   3.612   4.970   4.364 -0.6127  0.2678 -0.1253
 2826TIP3    H129893   3.558   4.892   4.379 -1.2087  0.3589 -1.5745
 2826TIP3    H229894   3.693   4.953   4.411 -2.3466  0.7169  3.2984
 2827TIP3   OH229895   2.564   6.009   4.453 -0.3787 -0.2325 -0.2153
 2827TIP3    H129896   2.603   5.936   4.406  0.2154  0.3823 -0.7056
 2827TIP3    H229897   2.525   6.064   4.384 -0.8473 -0.0959  0.1478
 2828TIP3   OH229898   6.678   2.165   3.170  0.0498  0.3079  0.0731
 2828TIP3    H129899   6.766   2.152   3.135  0.1028  0.5292  0.1238
 2828TIP3    H229900   6.620   2.129   3.103  0.1743  0.2594 -0.0080
 2829TIP3   OH229901   2.704   6.006  11.917 -0.5599 -0.1112  0.1582
 2829TIP3    H129902   2.689   6.095  11.886  0.3543  0.3921  1.0819
 2829TIP3    H229903   2.644   5.952  11.866  0.1007  0.8056 -1.6836
 2830TIP3   OH229904   6.218   6.137  11.095  0.3374 -0.3695  0.5940
 2830TIP3    H129905   6.279   6.112  11.165  0.5279  0.0856  0.5907
 2830TIP3    H229906   6.251   6.221  11.064 -1.3869  0.8451  1.8693
 2831TIP3   OH229907   5.685   3.081  14.333 -0.0795 -0.3196  0.3330
 2831TIP3    H129908   5.617   3.067  14.398 -0.8105 -1.8527 -0.6858
 2831TIP3    H229909   5.721   2.993  14.317  2.7485  0.5293  1.4390
 2832TIP3   OH229910   0.622   0.580  12.160  0.2102  0.3420 -0.1383
 2832TIP3    H129911   0.611   0.675  12.149 -0.0707  0.4531  0.9942
 2832TIP3    H229912   0.645   0.569  12.252  1.2565 -0.6187 -0.4909
 2833TIP3   OH229913   4.634   0.964   5.532  0.3240  0.3110 -0.2990
 2833TIP3    H129914   4.649   1.032   5.597  0.2746  0.6286 -0.6172
 2833TIP3    H229915   4.645   1.008   5.448  0.1380 -0.0372 -0.5079
 2834TIP3   OH229916   0.232   1.984   0.084 -0.3547 -0.1141  0.3361
 2834TIP3    H129917   0.177   2.062   0.077 -0.2264 -0.1332 -1.3082
 2834TIP3    H229918   0.173   1.911   0.066 -0.0027 -0.2030 -0.5049
 2835TIP3   OH229919   4.407   0.911   2.202  0.5674 -0.3190 -0.2604
 2835TIP3    H129920   4.372   0.930   2.115 -0.1463  1.1505  0.3274
 2835TIP3    H229921   4.493   0.952   2.203  0.4255 -0.0200 -0.1572
 2836TIP3   OH229922   5.063   5.665  11.020  0.1638 -0.1276 -0.0900
 2836TIP3    H129923   4.971   5.642  11.010  0.7958 -3.2441  0.1318
 2836TIP3    H229924   5.062   5.749  11.066 -2.5119  0.9573 -1.8873
 2837TIP3   OH229925   3.340   3.988  15.811 -0.2839  0.0636 -0.1511
 2837TIP3    H129926   3.408   4.045  15.846 -0.9572  0.5847  0.3267
 2837TIP3    H229927   3.269   4.047  15.788 -0.7309 -0.5162 -0.2731
 2838TIP3   OH229928   4.805   4.988   3.525  0.1501  0.2356 -0.2634
 2838TIP3    H129929   4.731   4.995   3.465 -0.0398  1.5946  0.0900
 2838TIP3    H229930   4.875   4.948   3.474 -0.0941  1.1129 -1.3141
 2839TIP3   OH229931   4.541   0.331   2.989 -0.2705  0.4722  0.4515
 2839TIP3    H129932   4.495   0.262   3.036 -1.2253  1.4748  1.0520
 2839TIP3    H229933   4.485   0.409   3.001  1.1292  1.5188  0.4372
 2840TIP3   OH229934   3.397   2.697   3.198  0.1501 -0.3144  0.5551
 2840TIP3    H129935   3.471   2.755   3.214 -0.0954 -0.4982  2.5678
 2840TIP3    H229936   3.431   2.634   3.134  0.9068  1.0777 -0.4754
 2841TIP3   OH229937   3.681   3.864   1.472 -0.5628 -0.3504 -0.2550
 2841TIP3    H129938   3.771   3.846   1.446 -0.3653 -1.1630  0.9147
 2841TIP3    H229939   3.648   3.780   1.504 -1.0790  0.3467  1.1424
 2842TIP3   OH229940   0.472   1.318  15.864  0.3124  0.6015  0.4292
 2842TIP3    H129941   0.515   1.247  15.912 -0.3373  0.9074  1.4973
 2842TIP3    H229942   0.403   1.274  15.814  0.4085  0.3881  0.4817
 2843TIP3   OH229943   5.025   4.043  14.195  0.3246  0.3058 -0.2533
 2843TIP3    H129944   5.060   4.090  14.119  2.5668  0.2710  0.6810
 2843TIP3    H229945   5.088   4.061  14.265 -0.8766 -0.8974  1.2017
 2844TIP3   OH229946   0.665   6.472   2.956 -0.7630  0.2471 -0.3392
 2844TIP3    H129947   0.574   6.502   2.953 -0.9293 -0.1994  0.1219
 2844TIP3    H229948   0.710   6.528   2.893 -1.2489  0.8369 -0.1755
 2845TIP3   OH229949   1.997   4.268  14.732  0.2255 -0.7242 -0.1622
 2845TIP3    H129950   2.046   4.326  14.790 -1.9872 -0.0886  1.1940
 2845TIP3    H229951   1.982   4.189  14.784 -0.0692 -0.9529 -0.5858
 2846TIP3   OH229952   0.604   1.961  11.725 -0.7367 -0.2277 -0.0212
 2846TIP3    H129953   0.678   1.983  11.782 -0.0672 -1.1965 -0.4899
 2846TIP3    H229954   0.617   2.013  11.646 -1.9775  1.5573  0.8837
 2847TIP3   OH229955   2.460   2.052   0.424  0.4468  0.3440  0.2833
 2847TIP3    H129956   2.444   2.049   0.330 -1.8501 -0.1709  0.6198
 2847TIP3    H229957   2.399   2.119   0.456 -1.4197 -1.8856  1.7512
 2848TIP3   OH229958   4.932   5.500  13.790 -0.3837  0.0684  0.2812
 2848TIP3    H129959   4.843   5.520  13.819 -0.7743  0.3965 -1.0691
 2848TIP3    H229960   4.949   5.412  13.823 -1.3714 -0.1530  0.2243
 2849TIP3   OH229961   0.198   3.321   5.390  0.0260 -0.1686  0.0706
 2849TIP3    H129962   0.115   3.275   5.402  0.8520 -2.3921 -1.9550
 2849TIP3    H229963   0.187   3.371   5.309  0.4520 -0.0154  0.1028
 2850TIP3   OH229964   5.339   5.164  12.251  0.2250  0.1497 -0.2828
 2850TIP3    H129965   5.251   5.178  12.287  0.1723 -0.6020 -0.1055
 2850TIP3    H229966   5.394   5.230  12.295 -0.1337  0.2451  0.0298
 2851TIP3   OH229967   4.959   2.948   2.766  0.4426 -0.2180  0.0147
 2851TIP3    H129968   4.914   2.865   2.781  1.9489 -1.3032 -1.1967
 2851TIP3    H229969   5.001   2.968   2.850 -0.1850 -0.5065  0.4008
 2852TIP3   OH229970   2.058   1.794  13.295 -0.0094 -0.0082 -0.5392
 2852TIP3    H129971   2.101   1.724  13.245 -0.7844  0.5637 -2.0780
 2852TIP3    H229972   2.012   1.845  13.229  0.8711  2.2318  0.4823
 2853TIP3   OH229973   0.241   2.247  10.500 -0.3292 -0.2440  0.5296
 2853TIP3    H129974   0.158   2.207  10.474 -0.7627  1.9481 -1.8515
 2853TIP3    H229975   0.216   2.323  10.553  0.0186  0.9957 -1.0057
 2854TIP3   OH229976   2.122   1.645  15.053  0.5596  0.4218  0.7587
 2854TIP3    H129977   2.166   1.694  14.983 -0.4361  0.1080 -0.1083
 2854TIP3    H229978   2.194   1.611  15.106  1.4402 -0.6937 -1.0239
 2855TIP3   OH229979   2.789   2.141   3.244  0.0217  0.3089  0.8444
 2855TIP3    H129980   2.747   2.227   3.253  0.1274  0.2757  1.7077
 2855TIP3    H229981   2.833   2.145   3.159 -2.7593 -0.1269 -0.7419
 2856TIP3   OH229982   4.650   5.691  13.548 -0.3426  0.0056  0.3829
 2856TIP3    H129983   4.600   5.766  13.517  0.0837  0.1097 -0.0634
 2856TIP3    H229984   4.652   5.701  13.644 -1.0082  0.0996  0.3895
 2857TIP3   OH229985   2.656   6.519   2.555  0.5405  0.1913 -0.2855
 2857TIP3    H129986   2.641   6.436   2.510  1.9694 -1.2254  1.6651
 2857TIP3    H229987   2.575   6.537   2.601  0.6223 -0.8010  0.2658
 2858TIP3   OH229988   6.680   0.448  12.139  0.4204 -0.6553  0.0167
 2858TIP3    H129989   6.767   0.489  12.133  0.8828 -1.5300  0.4909
 2858TIP3    H229990   6.694   0.371  12.195 -1.0053  0.1350  1.5565
 2859TIP3   OH229991   4.157   4.856  15.285  0.2267 -0.4410 -0.0143
 2859TIP3    H129992   4.084   4.916  15.268 -0.8114 -0.4729  3.4969
 2859TIP3    H229993   4.132   4.775  15.241 -0.7891  0.1943 -0.6593
 2860TIP3   OH229994   2.110   6.105   5.646 -0.5998  0.6927  0.3589
 2860TIP3    H129995   2.205   6.108   5.642 -0.5235 -0.1305  1.2012
 2860TIP3    H229996   2.088   6.155   5.725 -1.0991  3.7478 -1.5856
 2861TIP3   OH229997   6.100   1.310   1.265  0.0766  0.5680 -0.4385
 2861TIP3    H129998   6.053   1.370   1.208 -0.6323  1.3735  0.9534
 2861TIP3    H229999   6.171   1.362   1.303  1.5581 -0.3774 -1.7538
 2862TIP3   OH230000   3.760   1.703  17.031 -0.0130  0.0634  0.1961
 2862TIP3    H130001   3.792   1.793  17.042 -3.5632  2.1164 -3.4130
 2862TIP3    H230002   3.829   1.659  16.981  1.2678  1.0853  0.9887
 2863TIP3   OH230003   1.750   5.673  15.917  0.0023 -0.2154  0.1483
 2863TIP3    H130004   1.768   5.674  16.011  1.4129 -0.0812 -0.1008
 2863TIP3    H230005   1.705   5.590  15.902 -1.4342  0.3431  1.1218
 2864TIP3   OH230006   4.238   3.054  12.932 -0.5170  0.3053 -0.2644
 2864TIP3    H130007   4.289   3.026  13.008 -1.1886 -0.6613 -0.1601
 2864TIP3    H230008   4.301   3.100  12.877  0.5147 -1.0155 -0.2314
 2865TIP3   OH230009   3.105   5.783   4.727 -0.2895  0.1231 -0.0878
 2865TIP3    H130010   3.041   5.726   4.684 -1.2355  1.6893 -0.8329
 2865TIP3    H230011   3.086   5.774   4.821  0.6342 -1.9690 -0.0503
 2866TIP3   OH230012   0.509   2.521   2.583 -0.5623 -0.2816 -0.0131
 2866TIP3    H130013   0.570   2.594   2.596 -1.9636  0.9655 -0.0794
 2866TIP3    H230014   0.424   2.563   2.572 -1.3163 -1.9136 -0.8051
 2867TIP3   OH230015   3.362   4.194   4.797 -0.3734 -0.5685 -0.6436
 2867TIP3    H130016   3.296   4.257   4.767  0.2387 -0.7029 -2.3766
 2867TIP3    H230017   3.337   4.111   4.757 -0.0246 -0.9873 -0.0170
 2868TIP3   OH230018   4.149   0.011  11.728  0.1479  0.0203  0.6375
 2868TIP3    H130019   4.182  -0.039  11.654  0.7604  0.9048  0.3061
 2868TIP3    H230020   4.204   0.089  11.731 -1.4907  1.2125  0.4830
 2869TIP3   OH230021   1.231   5.890  16.122  0.1743  0.6656 -0.4363
 2869TIP3    H130022   1.242   5.971  16.171  0.6295  0.3898 -0.0818
 2869TIP3    H230023   1.262   5.911  16.034  0.8576  0.7018 -0.1849
 2870TIP3   OH230024   4.197   1.391   4.939 -0.1718  0.2677 -0.0997
 2870TIP3    H130025   4.260   1.328   4.903 -0.6922  0.2886 -1.0998
 2870TIP3    H230026   4.250   1.452   4.990  0.5492 -0.0280 -0.4839
 2871TIP3   OH230027   2.513   4.869  14.276 -0.3018 -1.2233  0.1300
 2871TIP3    H130028   2.463   4.939  14.317  0.1046 -1.6275  1.3778
 2871TIP3    H230029   2.485   4.869  14.184 -2.3811 -1.2578  0.7082
 2872TIP3   OH230030   3.393   1.284  12.104  0.2918 -0.0304 -0.4374
 2872TIP3    H130031   3.401   1.245  12.016 -0.8062 -0.1717 -0.4878
 2872TIP3    H230032   3.315   1.242  12.141  1.0180 -0.3215  0.7948
 2873TIP3   OH230033   4.340   0.957   1.956 -0.0997 -0.9413 -0.2131
 2873TIP3    H130034   4.389   1.039   1.966  1.3537 -1.9833  1.7729
 2873TIP3    H230035   4.358   0.929   1.866  0.2436  0.3528 -0.5706
 2874TIP3   OH230036   3.368   1.595   1.803  0.3128  0.3857  0.5372
 2874TIP3    H130037   3.394   1.664   1.865  0.3283  1.4150 -0.5679
 2874TIP3    H230038   3.405   1.623   1.719 -0.2223 -0.6556 -0.0698
 2875TIP3   OH230039   3.034   1.942  12.826 -0.1438  0.0705  0.1377
 2875TIP3    H130040   3.014   1.982  12.741  0.0054 -0.1233  0.0112
 2875TIP3    H230041   3.116   1.983  12.853  0.0583 -0.2162 -0.0353
 2876TIP3   OH230042   4.856   0.506   4.833  1.2863 -0.2253 -0.4239
 2876TIP3    H130043   4.933   0.450   4.820  0.4371 -1.0938 -1.9459
 2876TIP3    H230044   4.783   0.444   4.838  0.5466  0.6552 -0.1563
 2877TIP3   OH230045   3.061   4.961  15.120  0.4254  0.1626  0.0449
 2877TIP3    H130046   3.144   5.007  15.102  0.8951 -0.2851  1.0161
 2877TIP3    H230047   3.087   4.885  15.173 -0.6509  0.2011  0.6422
 2878TIP3   OH230048   4.684   1.068   5.783 -0.2091 -0.6921  0.1747
 2878TIP3    H130049   4.671   0.982   5.822 -1.6758 -0.4353  0.2913
 2878TIP3    H230050   4.658   1.130   5.851 -2.3930 -0.2335 -0.9682
 2879TIP3   OH230051   1.176   1.503  12.540 -0.3950 -0.1683 -0.0199
 2879TIP3    H130052   1.122   1.552  12.478 -1.1221 -0.9160 -0.0027
 2879TIP3    H230053   1.163   1.546  12.624  0.6413  0.8867 -0.3782
 2880TIP3   OH230054   4.188   1.415  13.584  0.2138  0.1862  0.4186
 2880TIP3    H130055   4.176   1.353  13.655 -0.9437 -0.6385 -0.4573
 2880TIP3    H230056   4.145   1.495  13.615 -2.5097 -0.9121 -0.2632
 2881TIP3   OH230057   0.461   4.695   5.364 -0.0461 -0.3795 -0.3107
 2881TIP3    H130058   0.383   4.657   5.325  1.3469 -2.1576 -1.5151
 2881TIP3    H230059   0.479   4.642   5.441  0.3418 -0.4129 -0.4184
 2882TIP3   OH230060   5.620   1.881   3.326 -0.2229 -0.1677  0.2301
 2882TIP3    H130061   5.605   1.929   3.245 -1.0831 -0.1405  0.4030
 2882TIP3    H230062   5.711   1.850   3.318  0.4775  1.7045  0.2366
 2883TIP3   OH230063   3.484   1.216  15.922 -0.1141 -0.0441 -0.0068
 2883TIP3    H130064   3.559   1.237  15.866 -0.7423 -0.0610 -0.8678
 2883TIP3    H230065   3.495   1.123  15.942 -0.5669 -0.3660 -1.1758
 2884TIP3   OH230066   3.047   2.131  13.583  0.1498 -0.1118  0.0030
 2884TIP3    H130067   3.051   2.073  13.508  0.6128 -0.7256  0.4880
 2884TIP3    H230068   3.052   2.219  13.546 -0.4360 -0.3759 -0.7295
 2885TIP3   OH230069   1.170   5.550   1.211  0.4565 -0.0945 -0.3251
 2885TIP3    H130070   1.134   5.542   1.300 -0.7880 -0.0875 -0.7993
 2885TIP3    H230071   1.265   5.548   1.223  0.3088 -0.7388  0.9409
 2886TIP3   OH230072   4.202   5.725  11.463  0.5912 -0.5991 -0.1363
 2886TIP3    H130073   4.151   5.733  11.382  0.4314  0.5781  0.0566
 2886TIP3    H230074   4.138   5.695  11.528  0.4557 -0.4654 -0.2047
 2887TIP3   OH230075   3.154   1.284   5.947  0.0012  0.1470 -0.7959
 2887TIP3    H130076   3.185   1.233   6.021  1.0955  3.4469  1.2285
 2887TIP3    H230077   3.065   1.251   5.931 -0.5865 -0.2380  2.5174
 2888TIP3   OH230078   3.758   0.620  14.874 -0.1485 -0.3538  0.2596
 2888TIP3    H130079   3.709   0.629  14.956 -1.8918 -1.9956 -0.5200
 2888TIP3    H230080   3.693   0.638  14.805  1.3330  1.2387 -0.8122
 2889TIP3   OH230081   3.770   4.511  14.247 -0.0759 -0.1800 -0.1423
 2889TIP3    H130082   3.707   4.561  14.299 -0.3360 -0.3292 -0.3081
 2889TIP3    H230083   3.835   4.575  14.219 -0.2919  0.0255 -0.1753
 2890TIP3   OH230084   5.483   5.205   6.127  0.0455 -0.0418  0.6439
 2890TIP3    H130085   5.578   5.190   6.122 -0.3137 -2.3111 -1.1020
 2890TIP3    H230086   5.468   5.285   6.077  0.7672 -1.6133 -2.3380
 2891TIP3   OH230087   1.551   0.356   3.047  1.0917 -0.2748  0.2905
 2891TIP3    H130088   1.554   0.319   2.959 -0.2928 -1.1466  0.5709
 2891TIP3    H230089   1.459   0.381   3.059  1.6052  1.4617  0.8506
 2892TIP3   OH230090   2.169   2.346   2.657 -0.2597 -0.0205  0.0874
 2892TIP3    H130091   2.167   2.329   2.563 -1.8395 -2.0393  0.4223
 2892TIP3    H230092   2.262   2.350   2.679  0.2179 -3.0786 -0.9957
 2893TIP3   OH230093   5.738   4.665  13.647  0.2237 -0.9477 -0.3921
 2893TIP3    H130094   5.662   4.655  13.704 -0.7132  1.4861 -1.1050
 2893TIP3    H230095   5.799   4.719  13.698 -0.4716  0.9351 -1.4664
 2894TIP3   OH230096   2.035   1.860  15.182 -0.4691 -0.1521  0.4189
 2894TIP3    H130097   1.960   1.818  15.225  0.2690 -1.0105  0.8843
 2894TIP3    H230098   2.082   1.789  15.140 -0.8186  0.5933 -1.3204
 2895TIP3   OH230099   3.640   5.826   4.622  0.1423 -0.1092 -0.0950
 2895TIP3    H130100   3.665   5.811   4.713 -0.3030 -1.5416 -0.1835
 2895TIP3    H230101   3.581   5.753   4.601 -0.9777  1.0290 -1.0723
 2896TIP3   OH230102   4.181   3.868   4.868  0.4830  0.2568  0.3367
 2896TIP3    H130103   4.177   3.775   4.888 -2.0082 -0.0258 -1.0355
 2896TIP3    H230104   4.199   3.910   4.952 -2.5052 -1.2514  1.8864
 2897TIP3   OH230105   1.807   5.076  13.156  0.1013  0.0650 -0.5464
 2897TIP3    H130106   1.894   5.115  13.165  0.3384 -0.2688 -1.3985
 2897TIP3    H230107   1.768   5.087  13.243  0.8846  0.4673 -0.2318
 2898TIP3   OH230108   4.219   1.360   4.375  0.3001 -0.1410  0.1695
 2898TIP3    H130109   4.242   1.449   4.346  1.4241 -0.9174 -1.4659
 2898TIP3    H230110   4.274   1.345   4.452  1.9993 -0.3144 -1.0393
 2899TIP3   OH230111   4.301   0.066   3.734 -0.1750 -0.0619 -0.0049
 2899TIP3    H130112   4.254   0.035   3.811  1.4609  1.0385  1.5203
 2899TIP3    H230113   4.280   0.160   3.730 -0.7907 -0.2390 -1.3333
 2900TIP3   OH230114   4.780   6.311  11.703 -0.0603 -0.4173  0.2416
 2900TIP3    H130115   4.865   6.276  11.729 -0.6002  0.2220  3.1729
 2900TIP3    H230116   4.792   6.406  11.705  0.0941 -0.2750 -2.9902
 2901TIP3   OH230117   1.682   0.247   2.020  0.1436  0.1651  0.0318
 2901TIP3    H130118   1.635   0.223   1.941 -2.0581  1.2939  0.9068
 2901TIP3    H230119   1.765   0.285   1.989  0.0056 -0.8215 -1.6208
 2902TIP3   OH230120   4.378   4.064  16.713 -0.4505  0.3984 -0.4483
 2902TIP3    H130121   4.369   4.143  16.767 -0.5986  0.7465 -0.9756
 2902TIP3    H230122   4.358   4.093  16.624  2.2254  0.3668 -1.1179
 2903TIP3   OH230123   4.082   2.648  11.649 -0.0053  0.2486 -0.0072
 2903TIP3    H130124   4.064   2.585  11.579  2.0820  0.5144 -0.8487
 2903TIP3    H230125   4.030   2.725  11.626 -1.5994 -0.6731  0.3508
 2904TIP3   OH230126   6.363   3.469  10.739 -0.0469  0.4360 -0.1572
 2904TIP3    H130127   6.452   3.475  10.705 -0.5558  1.2336 -1.4426
 2904TIP3    H230128   6.373   3.459  10.834  1.4017  0.0132 -0.3385
 2905TIP3   OH230129   3.222   1.523  11.835  0.4693  0.5287 -0.1874
 2905TIP3    H130130   3.188   1.445  11.790  1.0455 -0.9495  1.8167
 2905TIP3    H230131   3.246   1.583  11.764  0.9861 -1.5236 -1.8418
 2906TIP3   OH230132   1.628   0.090   5.262 -0.0899 -0.3404  0.2992
 2906TIP3    H130133   1.577   0.011   5.244  2.3498 -2.0453  0.4530
 2906TIP3    H230134   1.563   0.160   5.267 -2.1744 -1.9525 -1.9210
 2907TIP3   OH230135   5.112   6.692   2.521 -0.3263 -0.2664  0.3374
 2907TIP3    H130136   5.043   6.642   2.477  1.6458 -2.6307 -0.2646
 2907TIP3    H230137   5.100   6.674   2.614  0.7656 -2.5645  0.0924
 2908TIP3   OH230138   2.596   5.278   4.961  0.2498 -0.8562 -0.4943
 2908TIP3    H130139   2.651   5.306   5.035  0.0724 -0.0975 -0.6398
 2908TIP3    H230140   2.507   5.292   4.991  0.1283 -1.7529 -0.3938
 2909TIP3   OH230141   5.232   2.709   1.782 -0.2403  0.5588 -0.2360
 2909TIP3    H130142   5.192   2.793   1.759  0.9332  1.2494  0.1358
 2909TIP3    H230143   5.265   2.723   1.871  1.2587  0.1991 -0.7124
 2910TIP3   OH230144   2.043   6.507  10.724 -0.2930 -0.2854  0.7543
 2910TIP3    H130145   2.109   6.575  10.715 -1.5416  0.8524 -0.3752
 2910TIP3    H230146   2.039   6.489  10.818 -0.0267  1.3142  1.0968
 2911TIP3   OH230147   5.723   2.477   6.467  0.4986  0.5931  0.3279
 2911TIP3    H130148   5.815   2.454   6.457  0.1019 -0.9608 -0.0283
 2911TIP3    H230149   5.680   2.396   6.494 -1.4461  0.0226 -3.7176
 2912TIP3   OH230150   3.451   3.335   2.821  0.2123  0.0895  0.2595
 2912TIP3    H130151   3.478   3.422   2.848 -0.3723  0.4943 -0.4202
 2912TIP3    H230152   3.496   3.276   2.882  1.6125  0.7838 -0.0672
 2913TIP3   OH230153   0.967   3.104  15.386  0.2322 -0.1518 -0.1349
 2913TIP3    H130154   0.979   3.199  15.397 -1.1944 -0.1243  1.6015
 2913TIP3    H230155   0.900   3.081  15.449  0.5525 -2.3593 -0.5272
 2914TIP3   OH230156   1.016   5.628   2.601  0.1404 -0.1012 -0.2238
 2914TIP3    H130157   1.049   5.699   2.547  1.0389 -0.0405  0.3927
 2914TIP3    H230158   0.933   5.662   2.637 -0.1449  0.0887 -1.0441
 2915TIP3   OH230159   4.550   0.936   5.067 -0.1332 -0.7085  0.3452
 2915TIP3    H130160   4.643   0.923   5.048 -0.0951 -0.2156  0.1763
 2915TIP3    H230161   4.515   0.847   5.079  0.1709 -0.9509 -0.4860
 2916TIP3   OH230162   6.565   5.620   4.297  0.5371  0.0752  0.3164
 2916TIP3    H130163   6.627   5.554   4.265 -0.5873 -0.9433  0.1587
 2916TIP3    H230164   6.497   5.570   4.341 -1.4373  0.9072 -1.5751
 2917TIP3   OH230165   1.595   0.798   0.112 -0.2018 -0.5908 -0.2656
 2917TIP3    H130166   1.648   0.757   0.044  2.1912  1.0300  0.4662
 2917TIP3    H230167   1.573   0.726   0.172  1.4307 -1.3184 -0.4841
 2918TIP3   OH230168   5.259   5.040   6.132 -1.1374  0.0364  0.2451
 2918TIP3    H130169   5.320   5.113   6.125 -1.3750  0.3560  1.3615
 2918TIP3    H230170   5.180   5.072   6.088 -0.6931 -0.1896 -0.7505
 2919TIP3   OH230171   1.959   1.084  12.264  0.2264  0.1951 -0.4802
 2919TIP3    H130172   1.914   1.165  12.290  0.7075 -0.4705  2.9473
 2919TIP3    H230173   2.037   1.114  12.219  0.1607  1.6714  0.3053
 2920TIP3   OH230174   2.054   4.903  12.244  0.1803 -0.1199 -0.1855
 2920TIP3    H130175   2.148   4.897  12.264  0.0276  0.5227  0.8361
 2920TIP3    H230176   2.042   4.849  12.166  1.4239 -0.0998 -0.4137
 2921TIP3   OH230177   5.057   6.306   1.123  0.4099  0.0640  0.1033
 2921TIP3    H130178   5.126   6.372   1.120  0.3251  0.3765  2.5434
 2921TIP3    H230179   5.102   6.226   1.152  0.0261 -0.1327  0.1608
 2922TIP3   OH230180   6.747   4.583  11.137  0.3978 -0.0477 -0.3921
 2922TIP3    H130181   6.768   4.641  11.064 -0.7625 -0.2198 -0.8957
 2922TIP3    H230182   6.767   4.495  11.105 -1.1027 -0.2260 -0.9280
 2923TIP3   OH230183   4.708   6.476   0.322 -0.3748  0.5242  0.3619
 2923TIP3    H130184   4.750   6.542   0.377 -0.7968  0.7390  0.4257
 2923TIP3    H230185   4.620   6.467   0.357 -0.9394  1.2794 -0.7899
 2924TIP3   OH230186   5.369   5.274   4.028  0.2196 -0.7639 -0.1881
 2924TIP3    H130187   5.330   5.280   4.115  0.8367 -2.0384  0.2098
 2924TIP3    H230188   5.308   5.320   3.970 -0.9871 -1.2358  0.6794
 2925TIP3   OH230189   6.258   3.598   2.966  0.0675  0.0639 -0.3954
 2925TIP3    H130190   6.287   3.688   2.952  0.3447 -0.0625 -0.6273
 2925TIP3    H230191   6.307   3.568   3.043  0.3384 -0.0535 -0.6142
 2926TIP3   OH230192   4.641   2.410   4.584  0.1333  0.5630 -0.4359
 2926TIP3    H130193   4.717   2.446   4.537 -0.9392  2.1553 -1.0165
 2926TIP3    H230194   4.578   2.482   4.588 -1.0562 -0.4794  0.7393
 2927TIP3   OH230195   6.611   1.474   3.611 -1.1698  0.3055  0.7441
 2927TIP3    H130196   6.645   1.493   3.699  0.2036  0.6444  0.1667
 2927TIP3    H230197   6.606   1.559   3.568  0.0257 -0.0212 -0.1235
 2928TIP3   OH230198   4.718   2.797  14.398 -0.0251 -0.5610 -0.1146
 2928TIP3    H130199   4.668   2.821  14.477 -0.4617  1.2646 -0.9097
 2928TIP3    H230200   4.665   2.828  14.325  1.6069  0.1608 -1.0470
 2929TIP3   OH230201   6.338   1.879   5.607 -0.2862  0.5577 -0.0131
 2929TIP3    H130202   6.283   1.810   5.644 -1.7730  0.4598 -2.2319
 2929TIP3    H230203   6.304   1.893   5.519  0.4289  3.6236  0.0651
 2930TIP3   OH230204   4.864   6.096   2.107  0.0225 -0.1135 -0.1736
 2930TIP3    H130205   4.867   6.151   2.186 -1.3408 -0.4318  0.1178
 2930TIP3    H230206   4.956   6.091   2.078  0.9836 -1.9706  2.7537
 2931TIP3   OH230207   0.313   1.431  15.459  0.3966 -0.3667  0.0202
 2931TIP3    H130208   0.268   1.404  15.539  1.6317 -0.2368  0.7688
 2931TIP3    H230209   0.244   1.432  15.393 -0.1783 -3.0888  0.4587
 2932TIP3   OH230210   2.004   1.291  15.612 -1.1324  0.3800 -0.1901
 2932TIP3    H130211   1.997   1.255  15.700 -2.2408  1.3835  0.1568
 2932TIP3    H230212   2.098   1.292  15.594 -0.7884  1.2777  1.4635
 2933TIP3   OH230213   2.490   0.699   1.579  0.0685 -0.0166 -0.5411
 2933TIP3    H130214   2.528   0.694   1.666 -2.0615 -0.2740  0.4391
 2933TIP3    H230215   2.548   0.757   1.530  1.4520 -0.0862  0.9565
 2934TIP3   OH230216   1.398   4.152   5.772 -0.0297  0.8503 -0.3332
 2934TIP3    H130217   1.309   4.184   5.761 -0.5225 -0.4527 -0.3460
 2934TIP3    H230218   1.418   4.167   5.864 -0.4655  0.6677 -0.2072
 2935TIP3   OH230219   4.365   1.448  12.225 -0.0690  0.3003 -0.1440
 2935TIP3    H130220   4.305   1.465  12.297  1.2850  2.9154  0.4870
 2935TIP3    H230221   4.448   1.429  12.266  0.6588  1.5485 -0.9625
 2936TIP3   OH230222   4.395   5.253  16.890 -0.1094 -0.7910 -0.4398
 2936TIP3    H130223   4.376   5.167  16.854 -1.2376 -0.3053 -1.0656
 2936TIP3    H230224   4.314   5.302  16.879  0.7695  0.6264 -0.9479
 2937TIP3   OH230225   1.106   2.054  10.729 -0.0461  0.4335  0.1033
 2937TIP3    H130226   1.140   2.136  10.692  2.0402 -0.5656 -0.3337
 2937TIP3    H230227   1.183   2.011  10.766 -1.0390 -1.4833  0.0486
 2938TIP3   OH230228   6.596   5.659   4.771 -0.0435 -0.3702  0.1762
 2938TIP3    H130229   6.519   5.607   4.750 -0.2071  0.7982 -2.5416
 2938TIP3    H230230   6.661   5.596   4.801 -0.5750 -2.0375 -1.9798
 2939TIP3   OH230231   4.039   4.483   0.950  0.0866 -0.0500 -0.1069
 2939TIP3    H130232   4.007   4.394   0.962 -0.4272 -0.2197 -2.3748
 2939TIP3    H230233   3.961   4.534   0.930  0.4424  0.8464  0.7108
 2940TIP3   OH230234   0.110   4.234   3.321  0.0390 -0.0754  0.2483
 2940TIP3    H130235   0.151   4.281   3.394  1.2745 -1.7680  0.7076
 2940TIP3    H230236   0.042   4.180   3.362 -0.4458  0.2688 -0.0955
 2941TIP3   OH230237   2.933   3.113   3.661 -0.3200 -0.0823 -0.5685
 2941TIP3    H130238   2.961   3.112   3.569  0.8631  1.5106 -0.2624
 2941TIP3    H230239   2.867   3.181   3.665 -0.1845  0.0248 -0.1834
 2942TIP3   OH230240   2.134   0.786  13.470 -0.0629 -0.4564  0.2080
 2942TIP3    H130241   2.125   0.878  13.445 -0.5816 -0.6038 -0.1541
 2942TIP3    H230242   2.224   0.764  13.446 -0.1503 -0.2317 -0.3481
 2943TIP3   OH230243   2.352   2.299   3.946  0.2383 -0.2270 -0.1284
 2943TIP3    H130244   2.263   2.334   3.941  0.3210  0.7969  3.2078
 2943TIP3    H230245   2.351   2.222   3.889 -2.7257 -0.1605 -0.3166
 2944TIP3   OH230246   5.204   1.209  16.639 -0.2134 -0.8067  0.5699
 2944TIP3    H130247   5.232   1.295  16.670 -1.3642 -0.7044  1.3907
 2944TIP3    H230248   5.110   1.206  16.658 -0.3422 -1.9522 -0.1449
 2945TIP3   OH230249   1.080   3.941  11.396 -0.2273  0.0466 -0.0670
 2945TIP3    H130250   1.012   3.902  11.451 -1.3499  1.0818 -0.6773
 2945TIP3    H230251   1.124   3.866  11.356  0.0794 -0.6971  1.5770
 2946TIP3   OH230252   1.488   6.459  11.847 -0.1814 -0.2305 -0.3735
 2946TIP3    H130253   1.440   6.381  11.876 -3.6223  1.2177 -1.6631
 2946TIP3    H230254   1.523   6.497  11.928 -0.1149 -2.0364  0.4936
 2947TIP3   OH230255   3.579   2.525  14.243 -0.1365 -0.2792 -0.4008
 2947TIP3    H130256   3.539   2.447  14.204 -3.9554  1.8099 -1.1320
 2947TIP3    H230257   3.529   2.598  14.208  1.7796  2.3941  1.9841
 2948TIP3   OH230258   1.585   6.155  12.271  0.1160  0.0453  0.0132
 2948TIP3    H130259   1.538   6.238  12.258 -0.8130 -0.5773 -0.7428
 2948TIP3    H230260   1.575   6.108  12.188 -0.0036 -1.1332  0.6735
 2949TIP3   OH230261   1.935   1.489  14.966 -0.1708  0.5375  0.9251
 2949TIP3    H130262   1.845   1.508  14.992  0.1522  1.8363  1.1599
 2949TIP3    H230263   1.986   1.562  15.000  0.9611 -0.1162  0.6811
 2950TIP3   OH230264   5.810   2.907  14.878 -0.2539 -0.3016  0.5572
 2950TIP3    H130265   5.840   2.860  14.955 -0.0064 -2.1356 -0.5971
 2950TIP3    H230266   5.821   2.999  14.900  0.5787 -0.8009  2.3918
 2951TIP3   OH230267   4.068   5.297   4.879 -0.2294  0.4512 -0.1529
 2951TIP3    H130268   4.054   5.244   4.957  0.9720 -0.0675 -0.2685
 2951TIP3    H230269   3.985   5.293   4.831 -0.8711  0.5152  0.9266
 2952TIP3   OH230270   6.781   6.296   2.752 -0.3881 -0.4768  0.2739
 2952TIP3    H130271   6.789   6.366   2.687  0.9298 -0.4963  0.3936
 2952TIP3    H230272   6.868   6.290   2.791 -1.5304  0.6686  3.2508
 2953TIP3   OH230273   1.512   3.747  12.201 -0.1166  0.0716 -0.5854
 2953TIP3    H130274   1.494   3.680  12.267 -0.0404  1.3205  0.7485
 2953TIP3    H230275   1.568   3.703  12.137  0.7680 -0.8742  0.7771
 2954TIP3   OH230276   0.870   3.483  14.699  0.0393  0.4752  0.1606
 2954TIP3    H130277   0.873   3.392  14.667  1.2748  0.4318  0.3513
 2954TIP3    H230278   0.777   3.504  14.701 -0.2829 -0.8478  0.2594
 2955TIP3   OH230279   6.287   0.345  12.222  0.4769 -0.0508  0.0735
 2955TIP3    H130280   6.215   0.290  12.189 -0.4591  1.2256 -0.0745
 2955TIP3    H230281   6.244   0.412  12.275  1.0690  3.1504 -3.1163
 2956TIP3   OH230282   5.521   1.612  16.560  0.4166  0.3854 -0.2760
 2956TIP3    H130283   5.445   1.558  16.537  1.6107 -1.0584 -0.9429
 2956TIP3    H230284   5.531   1.600  16.654 -0.5300  1.0870 -0.0665
 2957TIP3   OH230285   0.598   0.108   5.758 -0.1829 -0.6694  0.0044
 2957TIP3    H130286   0.582   0.059   5.839  0.7712 -1.7246 -0.4145
 2957TIP3    H230287   0.513   0.110   5.714 -0.7867  0.1746  1.1442
 2958TIP3   OH230288   4.913   2.838  14.716 -0.1156  0.1327  0.4330
 2958TIP3    H130289   4.889   2.929  14.734  0.3896  0.9002 -2.2786
 2958TIP3    H230290   4.977   2.816  14.784 -1.8173  1.0217  2.4411
 2959TIP3   OH230291   3.919   6.213   4.351 -0.1032  0.4890 -0.1148
 2959TIP3    H130292   3.967   6.211   4.434  1.6906  0.9860 -1.1022
 2959TIP3    H230293   3.950   6.136   4.304 -0.9673  0.3195 -0.4304
 2960TIP3   OH230294   6.503   2.126  16.757 -0.3442 -0.0055  0.0335
 2960TIP3    H130295   6.520   2.159  16.845  2.6954  1.4395 -0.9495
 2960TIP3    H230296   6.471   2.037  16.770 -0.0158  0.1906  2.5839
 2961TIP3   OH230297   3.692   4.621   3.650  0.2883 -0.0849  0.0768
 2961TIP3    H130298   3.660   4.574   3.573 -0.3766 -2.7675  1.8357
 2961TIP3    H230299   3.650   4.706   3.646 -0.6132 -0.5720 -1.9349
 2962TIP3   OH230300   6.252   5.334  10.484 -0.0353 -0.2783  0.3146
 2962TIP3    H130301   6.213   5.313  10.399  0.8483  1.3171 -0.5299
 2962TIP3    H230302   6.340   5.297  10.480  0.7532  1.5593 -0.3293
 2963TIP3   OH230303   0.564   0.251  14.265  0.0144  0.1202  0.1618
 2963TIP3    H130304   0.611   0.172  14.237 -0.3141  0.2878 -0.9174
 2963TIP3    H230305   0.529   0.288  14.184 -0.7334  0.8011  0.7784
 2964TIP3   OH230306   3.897   5.640  15.705 -0.3522 -0.3816  0.4387
 2964TIP3    H130307   3.861   5.644  15.794  0.1544  0.2448  0.6291
 2964TIP3    H230308   3.859   5.716  15.660 -0.3332 -0.4961  0.2308
 2965TIP3   OH230309   2.322   4.332  15.849  0.3951 -0.3239 -0.2537
 2965TIP3    H130310   2.324   4.398  15.780 -1.1306 -0.2622 -0.2602
 2965TIP3    H230311   2.342   4.250  15.805  0.2077 -0.1700 -0.6258
 2966TIP3   OH230312   0.735   5.863  15.483  0.2550  0.0259 -0.5139
 2966TIP3    H130313   0.813   5.884  15.433 -1.0430  0.1261 -2.6436
 2966TIP3    H230314   0.749   5.774  15.514  0.2393 -0.9825 -3.1020
 2967TIP3   OH230315   1.484   2.839   5.003  0.4046  0.5127  0.1165
 2967TIP3    H130316   1.493   2.785   4.924 -0.1168 -0.5153  0.7301
 2967TIP3    H230317   1.500   2.778   5.075  2.2707  1.7399  0.8055
 2968TIP3   OH230318   4.269   1.224   1.377 -0.5531  0.2762 -0.0611
 2968TIP3    H130319   4.324   1.146   1.370 -0.3391  0.3995  0.2285
 2968TIP3    H230320   4.305   1.273   1.452  0.3730  1.4905 -1.2506
 2969TIP3   OH230321   6.216   2.299   2.384  0.0079  0.3260 -0.5164
 2969TIP3    H130322   6.253   2.256   2.461 -0.3309 -1.7534 -1.4638
 2969TIP3    H230323   6.199   2.389   2.413  2.2276  0.3277  1.0729
 2970TIP3   OH230324   4.626   1.372  16.034  0.4421 -0.0319  0.3395
 2970TIP3    H130325   4.684   1.312  15.986 -0.1364  0.4853 -1.0698
 2970TIP3    H230326   4.538   1.334  16.022  0.3973 -0.5314  2.0232
 2971TIP3   OH230327   4.009   6.201  13.553 -0.0425 -0.2217  0.4140
 2971TIP3    H130328   3.978   6.111  13.564  2.2178 -0.9292  1.5265
 2971TIP3    H230329   4.095   6.192  13.512  0.5342  1.3784  1.2015
 2972TIP3   OH230330   0.581   3.315   0.956 -0.2178  0.1332  0.0842
 2972TIP3    H130331   0.672   3.328   0.930 -0.5334  0.2577 -1.0172
 2972TIP3    H230332   0.547   3.251   0.894 -0.4840 -1.0757  1.4304
 2973TIP3   OH230333   1.016   6.259   4.051 -0.3193  0.2959  0.4150
 2973TIP3    H130334   1.017   6.332   4.113 -0.0016 -0.3951  1.2407
 2973TIP3    H230335   1.059   6.187   4.097 -1.6546 -0.7791  0.0600
 2974TIP3   OH230336   1.909   2.024  14.206 -0.2557 -0.4412  0.1443
 2974TIP3    H130337   2.004   2.033  14.216 -0.3421 -0.1332  0.6934
 2974TIP3    H230338   1.874   2.039  14.293 -0.8895  0.3980 -0.2490
 2975TIP3   OH230339   4.162   4.681  14.533  0.0768 -0.0533 -0.2039
 2975TIP3    H130340   4.151   4.757  14.591  0.4120 -0.6534  0.6697
 2975TIP3    H230341   4.073   4.655  14.510 -0.0867 -0.1046  0.4565
 2976TIP3   OH230342   0.280   5.463  11.846 -0.3224  0.8863  0.6062
 2976TIP3    H130343   0.245   5.406  11.778 -0.2480  0.6577  0.7590
 2976TIP3    H230344   0.375   5.458  11.835 -0.3023  0.6747  0.8666
 2977TIP3   OH230345   2.093   0.580   2.779 -0.5045 -0.4660  0.4954
 2977TIP3    H130346   2.055   0.667   2.794 -0.4966 -0.6265  1.4891
 2977TIP3    H230347   2.025   0.520   2.809 -0.3541 -0.8013  0.1648
 2978TIP3   OH230348   2.110   1.769   0.524  0.3097 -0.1871 -0.4171
 2978TIP3    H130349   2.080   1.844   0.473 -0.0869 -0.7476 -1.0228
 2978TIP3    H230350   2.206   1.774   0.520  0.3272  1.1810  0.8886
 2979TIP3   OH230351   5.688   1.409   2.649 -0.5720 -0.5830  0.3042
 2979TIP3    H130352   5.725   1.476   2.592  0.2380 -0.7149  0.6573
 2979TIP3    H230353   5.649   1.345   2.590 -1.7664  0.4249 -0.0258
 2980TIP3   OH230354   1.945   0.265  12.777 -0.0220  0.3991  0.3882
 2980TIP3    H130355   1.871   0.299  12.726 -0.1259 -1.2808 -0.6274
 2980TIP3    H230356   1.914   0.270  12.868 -0.5164  1.7592  0.1823
 2981TIP3   OH230357   0.083   0.166   2.573 -0.4350 -0.1063  0.0627
 2981TIP3    H130358   0.170   0.205   2.571 -1.1889  1.6904 -0.5699
 2981TIP3    H230359   0.096   0.077   2.605  1.5630  0.2643  0.3815
 2982TIP3   OH230360   2.881   3.680   0.237  0.5992 -0.2144  0.3674
 2982TIP3    H130361   2.901   3.618   0.166 -0.9467  0.0509 -0.3439
 2982TIP3    H230362   2.853   3.760   0.191  0.7092  0.3631  1.2892
 2983TIP3   OH230363   5.889   2.770  15.629  0.3472 -0.1873  1.2036
 2983TIP3    H130364   5.890   2.864  15.612 -0.3120 -0.5052 -0.9297
 2983TIP3    H230365   5.806   2.755  15.676  0.0736  0.1991  0.8523
 2984TIP3   OH230366   4.913   5.938   2.462  0.0144  0.4545 -0.1310
 2984TIP3    H130367   4.932   5.848   2.490  0.0819  0.5126  0.0099
 2984TIP3    H230368   4.995   5.967   2.422 -0.4173 -0.0218 -1.4312
 2985TIP3   OH230369   6.541   4.343  13.294  0.0056 -0.0628 -0.2286
 2985TIP3    H130370   6.505   4.373  13.377 -0.7457 -2.5241  0.4235
 2985TIP3    H230371   6.636   4.356  13.302 -0.0181 -0.6075  1.1819
 2986TIP3   OH230372   2.036   5.690  15.480  0.5694  0.5027  0.0763
 2986TIP3    H130373   2.070   5.632  15.411  0.9451 -0.1962  0.8367
 2986TIP3    H230374   1.952   5.652  15.504  0.8050  0.2769  0.5593
 2987TIP3   OH230375   4.051   6.722   5.168  0.0336  0.6711 -0.0839
 2987TIP3    H130376   4.103   6.769   5.234 -0.1926 -0.1490  0.7024
 2987TIP3    H230377   4.115   6.674   5.117  0.1816  1.0436 -0.2564
 2988TIP3   OH230378   6.423   0.908   2.751  0.2781 -0.0655 -0.4074
 2988TIP3    H130379   6.335   0.916   2.714 -0.3889 -1.5845  0.7174
 2988TIP3    H230380   6.411   0.852   2.828  2.1303  0.2689  0.1714
 2989TIP3   OH230381   2.078   5.217  12.243  0.0397  0.3473 -0.0713
 2989TIP3    H130382   2.055   5.303  12.280 -0.4210  0.3698 -0.4049
 2989TIP3    H230383   2.149   5.236  12.181  1.2080  0.2410  1.1731
 2990TIP3   OH230384   0.814   0.077   1.642  0.0334 -0.2785  0.5180
 2990TIP3    H130385   0.758   0.146   1.679 -1.1375 -0.4387 -0.8506
 2990TIP3    H230386   0.827   0.104   1.551 -0.6554 -1.9643 -0.1139
 2991TIP3   OH230387   1.733   5.889   2.293  0.3697  0.0731  0.8350
 2991TIP3    H130388   1.707   5.798   2.308  1.6482 -0.2626  1.1634
 2991TIP3    H230389   1.762   5.891   2.202 -0.2692  0.3161  0.6316
 2992TIP3   OH230390   1.885   5.773   5.151 -0.0038 -0.2882  0.6026
 2992TIP3    H130391   1.808   5.804   5.105  0.1982 -1.4948 -0.6268
 2992TIP3    H230392   1.945   5.848   5.151  0.1053 -0.3206 -1.4083
 2993TIP3   OH230393   5.453   1.765  12.499 -0.1702  0.2654 -0.6655
 2993TIP3    H130394   5.404   1.798  12.574  0.2155  0.3020 -0.4278
 2993TIP3    H230395   5.542   1.752  12.532  0.1373  0.8108 -1.2643
 2994TIP3   OH230396   4.551   4.039   2.901 -0.5856 -0.0129  0.4542
 2994TIP3    H130397   4.613   4.111   2.909  0.4669 -0.6715 -1.1017
 2994TIP3    H230398   4.557   4.013   2.809  0.2953 -3.0822  1.2492
 2995TIP3   OH230399   3.065   5.715  11.547 -0.3491  0.3635 -0.0039
 2995TIP3    H130400   3.088   5.787  11.488  0.4711  0.1138  0.0006
 2995TIP3    H230401   3.137   5.652  11.538 -1.1545 -0.5648 -0.1782
 2996TIP3   OH230402   5.354   3.641  13.024 -0.1288  0.0966  0.0942
 2996TIP3    H130403   5.343   3.667  12.933 -1.4492  0.3026  0.2956
 2996TIP3    H230404   5.369   3.724  13.071  4.0805 -0.1911 -0.3022
 2997TIP3   OH230405   5.759   2.499   4.899  0.3637  0.3487  0.5500
 2997TIP3    H130406   5.700   2.540   4.962 -0.4197  0.5697 -0.3077
 2997TIP3    H230407   5.767   2.562   4.827 -0.4087 -0.7141 -0.5248
 2998TIP3   OH230408   0.961   6.121  14.050  0.3638  0.6246 -0.6969
 2998TIP3    H130409   1.026   6.134  14.119 -0.4264 -2.3029  0.7525
 2998TIP3    H230410   0.877   6.131  14.094 -0.1720  0.8012 -1.7356
 2999TIP3   OH230411   5.298   5.623   6.094 -0.2069  0.3458 -0.6875
 2999TIP3    H130412   5.214   5.668   6.109  0.2728  1.1806 -0.4503
 2999TIP3    H230413   5.351   5.647   6.170  0.1753 -0.3598 -0.7277
 3000TIP3   OH230414   3.354   1.280   2.451 -0.2443 -0.1289  0.0424
 3000TIP3    H130415   3.270   1.321   2.427  1.1709  3.1402  0.1176
 3000TIP3    H230416   3.389   1.247   2.368 -0.1946  1.4574 -0.6102
 3001TIP3   OH230417   0.939   5.516  11.594  0.6249 -0.5992 -0.2312
 3001TIP3    H130418   0.922   5.610  11.604  0.5663 -0.7136  0.8778
 3001TIP3    H230419   0.853   5.475  11.605  0.7691 -0.8231  0.0965
 3002TIP3   OH230420   5.962   2.979  16.388  0.7479 -0.1260 -0.4651
 3002TIP3    H130421   5.920   3.015  16.310  2.1874  0.9602 -0.7693
 3002TIP3    H230422   5.971   3.053  16.447 -0.0139 -0.8748  0.6260
 3003TIP3   OH230423   5.258   3.203  15.310  0.3644 -0.2364  0.1120
 3003TIP3    H130424   5.340   3.227  15.266  0.7117 -0.3435  0.7035
 3003TIP3    H230425   5.220   3.287  15.336 -0.2933 -0.1073 -1.1791
 3004TIP3   OH230426   3.911   3.364  11.010 -0.0425 -0.2184  0.0455
 3004TIP3    H130427   3.867   3.449  11.012  0.1732  0.0280 -2.6610
 3004TIP3    H230428   3.895   3.330  10.922  1.6965 -2.0201  0.3437
 3005TIP3   OH230429   1.602   6.686   0.535  0.2837 -0.4179 -0.4806
 3005TIP3    H130430   1.577   6.615   0.476  1.3232 -1.8757  0.7510
 3005TIP3    H230431   1.563   6.661   0.619  1.0523  0.2156  0.0757
 3006TIP3   OH230432   6.263   5.458   2.272  0.3670  0.0606 -0.1477
 3006TIP3    H130433   6.193   5.452   2.338  2.5115 -1.3756  2.1668
 3006TIP3    H230434   6.216   5.462   2.189 -2.5391  2.9740  1.3850
 3007TIP3   OH230435   3.060   5.202  10.784 -1.1695 -0.4706  0.2726
 3007TIP3    H130436   3.057   5.185  10.878 -1.2397  0.2062  0.3992
 3007TIP3    H230437   2.985   5.260  10.768 -1.9739 -1.6787 -0.4370
 3008TIP3   OH230438   3.913   2.579   1.825 -0.0889  0.0177 -1.1385
 3008TIP3    H130439   3.843   2.643   1.810 -0.8797 -0.5212  0.0185
 3008TIP3    H230440   3.975   2.593   1.754 -1.2136  0.7459 -2.0118
 3009TIP3   OH230441   1.189   0.940  11.696  0.9718  0.0299  0.1322
 3009TIP3    H130442   1.273   0.895  11.702  0.5854 -0.6171  0.9094
 3009TIP3    H230443   1.198   0.997  11.620  1.3590 -1.6240 -1.1216
 3010TIP3   OH230444   1.984   5.128   4.456 -0.0417 -0.0197  0.4003
 3010TIP3    H130445   1.911   5.068   4.469 -0.2362 -0.0731 -0.8008
 3010TIP3    H230446   1.976   5.192   4.527 -0.6814 -0.5836  0.8434
 3011TIP3   OH230447   1.522   0.832  13.444  0.4406  0.4321  0.1969
 3011TIP3    H130448   1.516   0.917  13.488  1.1063  0.7293 -0.2781
 3011TIP3    H230449   1.593   0.786  13.489  1.4007  0.8946 -0.8050
 3012TIP3   OH230450   3.851   2.326   1.931  0.5684 -0.0282 -0.1397
 3012TIP3    H130451   3.756   2.336   1.923  0.2868 -1.5814  0.7192
 3012TIP3    H230452   3.886   2.414   1.923 -1.0286  0.6919  0.4888
 3013TIP3   OH230453   4.137   0.791  14.426  0.5924 -0.6676 -0.3437
 3013TIP3    H130454   4.076   0.852  14.469  1.2762 -1.9662  2.7503
 3013TIP3    H230455   4.089   0.708  14.423  1.3943 -1.1541  0.0632
 3014TIP3   OH230456   4.706   0.622   2.373 -0.3464 -0.1949 -0.4153
 3014TIP3    H130457   4.637   0.577   2.422  0.3574 -0.9205 -0.0729
 3014TIP3    H230458   4.782   0.564   2.380  0.0873  0.2367 -1.4116
 3015TIP3   OH230459   3.597   6.231   3.612 -0.4104  1.0624 -0.0317
 3015TIP3    H130460   3.554   6.146   3.603  0.0498  0.6144  1.6467
 3015TIP3    H230461   3.653   6.238   3.534  1.2665 -1.2227  0.8854
 3016TIP3   OH230462   6.487   0.576  16.145 -0.1575  0.3291  0.1941
 3016TIP3    H130463   6.419   0.637  16.173 -1.4169 -0.7256 -0.4493
 3016TIP3    H230464   6.527   0.546  16.226 -0.2836  1.1387  0.5713
 3017TIP3   OH230465   2.851   2.266  13.987 -0.6854 -0.1491  0.0645
 3017TIP3    H130466   2.799   2.332  13.941 -4.3716 -1.5349  1.9137
 3017TIP3    H230467   2.842   2.288  14.080  2.3928 -0.3311  0.5127
 3018TIP3   OH230468   6.010   1.536  15.639 -0.1274 -0.2683  0.1763
 3018TIP3    H130469   6.099   1.506  15.619  0.1376 -0.0671  1.0167
 3018TIP3    H230470   5.957   1.456  15.637 -0.1108 -0.2683 -1.2361
 3019TIP3   OH230471   1.971   0.284   1.290 -0.4679 -0.0836  0.4858
 3019TIP3    H130472   1.877   0.298   1.278 -0.4658 -1.8569 -2.6369
 3019TIP3    H230473   1.977   0.230   1.368 -2.0781 -0.1459  0.6010
 3020TIP3   OH230474   3.813   0.257  14.085 -0.5282 -0.2795 -0.3772
 3020TIP3    H130475   3.783   0.211  14.163  0.9631 -0.2253  0.2615
 3020TIP3    H230476   3.737   0.259  14.027 -2.3991  1.6330  1.9342
 3021TIP3   OH230477   1.529   4.439   1.926  0.6294  0.6302  0.0538
 3021TIP3    H130478   1.515   4.477   2.013 -2.8486  0.2378 -0.1763
 3021TIP3    H230479   1.454   4.469   1.875  1.6142 -0.6656 -2.3038
 3022TIP3   OH230480   4.917   1.003   3.544  0.2590  0.0246  0.3597
 3022TIP3    H130481   4.975   1.071   3.509  0.5691 -1.0661 -1.3237
 3022TIP3    H230482   4.836   1.012   3.493 -0.4702  0.4314  1.5364
 3023TIP3   OH230483   4.060   0.978   1.604  0.7038  0.2817 -0.3575
 3023TIP3    H130484   4.133   1.040   1.600 -0.8196  2.2243  0.1382
 3023TIP3    H230485   4.039   0.972   1.698  0.2754 -0.3092 -0.4868
 3024TIP3   OH230486   4.308   1.623   3.266 -0.5601 -0.1552 -0.3398
 3024TIP3    H130487   4.230   1.579   3.233 -1.1516  0.1985  0.5276
 3024TIP3    H230488   4.284   1.716   3.270 -0.2641 -0.1012  0.3761
 3025TIP3   OH230489   0.761   0.148  11.401  0.5915  0.3082 -0.1515
 3025TIP3    H130490   0.797   0.126  11.315  0.3036 -1.4508  0.1403
 3025TIP3    H230491   0.666   0.148  11.387  0.4971 -0.9321  0.3371
 3026TIP3   OH230492   1.933   1.008  15.499  0.0397  0.4479  0.2662
 3026TIP3    H130493   1.897   0.951  15.432  1.2381 -0.7279  0.5903
 3026TIP3    H230494   2.025   1.018  15.476  0.4424  0.1414  1.6443
 3027TIP3   OH230495   6.482   3.619   5.855  0.2700  0.3253  0.6348
 3027TIP3    H130496   6.560   3.620   5.799  0.6146 -0.2164  1.0811
 3027TIP3    H230497   6.515   3.650   5.940 -0.1695  0.8113  0.6292
 3028TIP3   OH230498   1.185   0.140  11.207  0.2218 -0.4152 -0.5121
 3028TIP3    H130499   1.266   0.189  11.216  0.6488 -0.7771 -2.0610
 3028TIP3    H230500   1.127   0.197  11.157  0.4869 -1.1800 -1.7386
 3029TIP3   OH230501   3.524   2.545   0.192  0.0634  0.7851  0.1700
 3029TIP3    H130502   3.453   2.598   0.157  0.7102  2.0626  0.7407
 3029TIP3    H230503   3.585   2.536   0.119 -0.3602  0.2375 -0.1257
 3030TIP3   OH230504   4.405   4.710  12.068  0.5370  0.2752 -0.7291
 3030TIP3    H130505   4.406   4.726  12.162  0.4120 -0.0368 -0.6741
 3030TIP3    H230506   4.492   4.674  12.049  0.0620 -1.0589 -0.4812
 3031TIP3   OH230507   5.480   1.452  16.231 -0.6087 -0.0848 -0.4875
 3031TIP3    H130508   5.521   1.407  16.158 -2.2435  1.8529 -2.7265
 3031TIP3    H230509   5.492   1.393  16.305  0.8300 -2.2864 -2.3538
 3032TIP3   OH230510   3.422   6.242   5.626 -0.3473 -0.1012  0.3675
 3032TIP3    H130511   3.371   6.251   5.546  0.8450 -1.0438 -0.5331
 3032TIP3    H230512   3.366   6.192   5.685 -1.7510  1.6755  0.6408
 3033TIP3   OH230513   3.993   1.165   3.590 -0.1595 -0.7087 -0.1605
 3033TIP3    H130514   4.055   1.163   3.664  0.5404 -4.8049 -0.5971
 3033TIP3    H230515   4.045   1.199   3.517  0.1752  0.1508  0.4579
 3034TIP3   OH230516   3.216   1.626   3.619 -0.0339 -0.2994 -0.4931
 3034TIP3    H130517   3.228   1.574   3.540  0.8362  1.6465 -1.7385
 3034TIP3    H230518   3.193   1.713   3.587 -0.9613  0.2345  1.4619
 3035TIP3   OH230519   6.480   3.637   5.497  0.4169 -0.3505 -0.3691
 3035TIP3    H130520   6.494   3.559   5.551  1.1442 -0.8550 -1.2532
 3035TIP3    H230521   6.399   3.620   5.450  0.1372 -0.2027  0.0529
 3036TIP3   OH230522   0.943   5.139  11.382  0.0762  0.2345 -0.0754
 3036TIP3    H130523   0.896   5.082  11.321 -0.6762  0.6265  0.1274
 3036TIP3    H230524   0.884   5.150  11.456  0.3346  1.0259  0.0272
 3037TIP3   OH230525   1.507   6.690   3.836  0.1240 -0.0584  0.3060
 3037TIP3    H130526   1.593   6.671   3.801 -0.2164 -0.7393 -0.1836
 3037TIP3    H230527   1.446   6.663   3.767 -0.5016 -0.1731  0.8871
 3038TIP3   OH230528   4.575   6.115  11.559  0.3289  0.3096 -0.0200
 3038TIP3    H130529   4.507   6.097  11.624 -0.6042 -0.1931 -1.0937
 3038TIP3    H230530   4.635   6.176  11.603 -0.7345  0.6583  1.0090
 3039TIP3   OH230531   5.907   3.893   2.282 -0.1104  0.0655 -0.1894
 3039TIP3    H130532   5.815   3.922   2.282 -0.8525 -1.9704  1.6486
 3039TIP3    H230533   5.940   3.922   2.367  0.9339  0.6916 -0.8020
 3040TIP3   OH230534   1.468   5.955  16.870  0.5721 -0.9030 -0.2462
 3040TIP3    H130535   1.514   6.032  16.902 -0.6345 -0.4027  0.3532
 3040TIP3    H230536   1.493   5.948  16.778  0.9753 -0.0155 -0.2107
 3041TIP3   OH230537   2.061   2.245  15.521 -0.6051  0.2905 -0.0281
 3041TIP3    H130538   1.983   2.280  15.565 -0.6345 -1.6226  1.5605
 3041TIP3    H230539   2.120   2.221  15.593  1.3869  1.4477 -1.1896
 3042TIP3   OH230540   5.932   3.938  15.305 -0.3744 -0.2420  0.0090
 3042TIP3    H130541   5.991   3.977  15.370 -1.0597  0.9315 -0.0436
 3042TIP3    H230542   5.990   3.910  15.234  0.2055  0.1292  0.3214
 3043TIP3   OH230543   4.873   3.092   1.191 -0.0061 -0.0112  0.2771
 3043TIP3    H130544   4.808   3.100   1.261 -1.0033  2.1207 -0.8139
 3043TIP3    H230545   4.859   3.169   1.136  2.6364 -0.1358 -0.7057
 3044TIP3   OH230546   0.576   0.865  12.885  0.3752  0.2804  0.0637
 3044TIP3    H130547   0.614   0.784  12.851  1.4504  0.4558  0.7909
 3044TIP3    H230548   0.548   0.913  12.807  1.2938 -0.0425 -0.4785
 3045TIP3   OH230549   6.496   3.351  16.528  0.0925 -0.0181 -0.0026
 3045TIP3    H130550   6.538   3.403  16.597  0.8642 -1.0163  0.3155
 3045TIP3    H230551   6.453   3.280  16.575 -1.2050  0.4869 -0.4083
 3046TIP3   OH230552   3.148   2.253   4.198 -0.0425 -0.0036 -0.0952
 3046TIP3    H130553   3.185   2.233   4.112  0.3015 -0.3096  0.1236
 3046TIP3    H230554   3.064   2.295   4.178 -0.3973 -0.9032 -0.5790
 3047TIP3   OH230555   1.108   6.392   4.279  0.1122  0.1358  0.2473
 3047TIP3    H130556   1.180   6.402   4.217 -0.7911 -1.0217 -1.0328
 3047TIP3    H230557   1.151   6.382   4.364  1.5259 -1.5224 -0.5984
 3048TIP3   OH230558   2.166   5.461   3.796  0.0653  0.4248  0.1975
 3048TIP3    H130559   2.209   5.440   3.879  0.3129  0.8661  0.1829
 3048TIP3    H230560   2.073   5.442   3.812  0.1948 -0.0766  0.3779
 3049TIP3   OH230561   5.886   3.930  11.457 -0.0518 -0.6059  0.3179
 3049TIP3    H130562   5.925   3.942  11.544  1.8603 -2.3795 -0.1998
 3049TIP3    H230563   5.847   3.843  11.460 -1.8898  0.1633  0.0165
 3050TIP3   OH230564   5.046   1.193   3.330 -0.0873 -0.3130  0.5845
 3050TIP3    H130565   4.953   1.184   3.348 -0.1037 -0.3603  0.4786
 3050TIP3    H230566   5.060   1.287   3.315 -0.1444 -0.3234  0.4622
 3051TIP3   OH230567   6.213   4.519   3.842  0.5628  0.4340 -0.7989
 3051TIP3    H130568   6.260   4.591   3.884  0.4931  0.4363 -0.7258
 3051TIP3    H230569   6.137   4.561   3.800 -0.6753  0.1280  1.0441
 3052TIP3   OH230570   0.488   2.283   0.463  0.3030 -0.0178 -0.1319
 3052TIP3    H130571   0.470   2.192   0.440  2.7303 -0.2674 -1.4442
 3052TIP3    H230572   0.431   2.334   0.406 -0.2762 -0.6941 -0.1745
 3053TIP3   OH230573   0.596   4.233   3.441  0.0053 -0.5399  0.2357
 3053TIP3    H130574   0.516   4.183   3.459 -1.0044 -0.0551 -2.4540
 3053TIP3    H230575   0.613   4.281   3.522 -1.9808 -1.2437  1.1345
 3054TIP3   OH230576   4.188   6.381  10.711 -0.1800  0.1330  0.1611
 3054TIP3    H130577   4.194   6.476  10.702 -0.3216  0.0458 -1.0825
 3054TIP3    H230578   4.137   6.353  10.634  1.7868 -1.1749 -0.7409
 3055TIP3   OH230579   3.992   2.160  14.821 -0.2297 -0.1487  0.7410
 3055TIP3    H130580   3.969   2.138  14.911  0.4132 -1.1688  0.6758
 3055TIP3    H230581   3.918   2.129  14.769 -0.4687  0.1737  0.8859
 3056TIP3   OH230582   1.991   6.356  11.865 -0.2345  0.2753  0.1583
 3056TIP3    H130583   1.918   6.346  11.804  0.3281  0.0692 -0.5007
 3056TIP3    H230584   1.995   6.450  11.883 -0.0323  0.4207 -0.6120
 3057TIP3   OH230585   5.233   5.046  11.536  0.6668 -0.0838  0.0772
 3057TIP3    H130586   5.281   5.105  11.595  0.3101  0.1566  0.1333
 3057TIP3    H230587   5.191   5.105  11.473  0.2104 -0.2698  0.2042
 3058TIP3   OH230588   6.012   6.030   5.919  0.0448 -0.0976  1.0517
 3058TIP3    H130589   6.026   6.106   5.863 -0.7559  0.9981  2.2667
 3058TIP3    H230590   6.022   6.063   6.008  1.2817 -1.7865  1.5926
 3059TIP3   OH230591   3.111   5.939   0.885  0.5043  0.3527 -0.5985
 3059TIP3    H130592   3.153   5.998   0.823 -0.1368  1.2091 -0.2432
 3059TIP3    H230593   3.183   5.894   0.929  0.9838  0.3975 -1.3313
 3060TIP3   OH230594   4.776   5.698   1.261 -0.3517 -0.3642  0.1554
 3060TIP3    H130595   4.732   5.782   1.250  1.6975  0.8790  0.8559
 3060TIP3    H230596   4.777   5.660   1.173 -0.4689  0.7984 -0.3762
 3061TIP3   OH230597   1.660   2.431   0.274  0.1774 -0.1977  0.5476
 3061TIP3    H130598   1.592   2.469   0.330 -0.7347 -0.3087 -0.4473
 3061TIP3    H230599   1.707   2.507   0.239 -0.7572 -0.0125 -0.3542
 3062TIP3   OH230600   1.655   6.434  16.210 -0.5098  0.0176 -0.1232
 3062TIP3    H130601   1.572   6.417  16.165 -1.3703 -0.4105  1.5464
 3062TIP3    H230602   1.642   6.519  16.252 -0.5727 -0.5912  1.1308
 3063TIP3   OH230603   4.380   3.203  12.435 -0.1192  0.4321  0.1403
 3063TIP3    H130604   4.338   3.127  12.473 -0.6429  1.2288  1.1993
 3063TIP3    H230605   4.313   3.271  12.435 -0.2106  0.4348 -2.4083
 3064TIP3   OH230606   4.406   0.225   4.129 -0.4742  0.1214 -0.8068
 3064TIP3    H130607   4.334   0.287   4.141 -0.6470  0.6505 -3.7720
 3064TIP3    H230608   4.367   0.152   4.080  0.7162 -0.1395 -1.4102
 3065TIP3   OH230609   1.487   6.606   2.585  0.4130  0.6841  0.2705
 3065TIP3    H130610   1.573   6.646   2.596  0.2952  0.4224  2.7888
 3065TIP3    H230611   1.499   6.540   2.517  2.1549  0.7942  0.4315
 3066TIP3   OH230612   4.294   5.506   3.619  0.3516 -0.2391  0.4191
 3066TIP3    H130613   4.323   5.421   3.654 -0.5071 -1.4293 -1.5923
 3066TIP3    H230614   4.373   5.543   3.578  1.1894  0.8488  2.8286
 3067TIP3   OH230615   2.698   5.006  16.045 -0.0714 -0.0056  0.8465
 3067TIP3    H130616   2.783   5.030  16.080 -0.3431  1.5249  0.5252
 3067TIP3    H230617   2.705   5.022  15.951 -0.3740 -0.9656  0.6436
 3068TIP3   OH230618   4.193   6.723  10.965 -0.3044  0.2311 -0.0333
 3068TIP3    H130619   4.221   6.642  11.008 -0.1338  0.0675 -0.4504
 3068TIP3    H230620   4.244   6.726  10.885  0.4882  1.3083  0.4967
 3069TIP3   OH230621   3.161   0.770  15.182 -0.5193 -0.5048  0.4054
 3069TIP3    H130622   3.090   0.736  15.238  0.3178 -3.2206 -0.0116
 3069TIP3    H230623   3.123   0.770  15.094 -0.1957 -1.5245  0.2479
 3070TIP3   OH230624   6.167   1.617   5.965  0.4245  0.2019  0.5171
 3070TIP3    H130625   6.183   1.664   6.047 -0.6715 -1.1727  1.5731
 3070TIP3    H230626   6.149   1.527   5.992 -2.4831  0.2152 -0.9871
 3071TIP3   OH230627   3.434   4.908  13.484  0.2295 -0.1184  0.7712
 3071TIP3    H130628   3.528   4.922  13.483  0.2548 -0.2470 -0.9096
 3071TIP3    H230629   3.423   4.815  13.503  0.3616  0.1616  2.3818
 3072TIP3   OH230630   5.916   6.686  16.766 -0.3286 -0.6622  0.2322
 3072TIP3    H130631   5.859   6.738  16.822  0.5205  0.9525 -0.3060
 3072TIP3    H230632   5.920   6.600  16.807 -2.9379 -0.7721  0.3875
 3073TIP3   OH230633   6.071   1.963   3.569 -0.1489  0.2979 -0.1665
 3073TIP3    H130634   6.091   2.056   3.577  2.2577 -0.2575  1.3680
 3073TIP3    H230635   6.051   1.935   3.659 -0.4701 -0.7553 -0.5462
 3074TIP3   OH230636   5.908   4.798   2.054  0.4363  0.0952  0.5616
 3074TIP3    H130637   5.880   4.710   2.080  0.6849  0.3964  1.9563
 3074TIP3    H230638   5.859   4.856   2.112 -0.0512  0.9202 -0.6406
 3075TIP3   OH230639   2.189   6.342  14.665 -0.1131 -0.1829 -0.1316
 3075TIP3    H130640   2.178   6.282  14.591  0.6707  0.9981 -1.2367
 3075TIP3    H230641   2.206   6.285  14.739  0.5222 -1.3474 -1.1333
 3076TIP3   OH230642   6.705   1.717  16.705 -0.0668 -0.4604  0.1576
 3076TIP3    H130643   6.636   1.781  16.687  0.6975  0.8897  1.7581
 3076TIP3    H230644   6.786   1.766  16.693  0.6088 -1.7035 -0.5309
 3077TIP3   OH230645   2.925   1.503   4.416  0.0659  0.4750 -0.0447
 3077TIP3    H130646   2.961   1.484   4.329 -1.0011 -0.3392 -0.3322
 3077TIP3    H230647   2.975   1.579   4.447 -0.1699  1.3561 -1.7504
 3078TIP3   OH230648   0.459   0.532   0.885  0.6472  0.0133  0.4120
 3078TIP3    H130649   0.437   0.579   0.805  2.5464 -1.0792 -0.8250
 3078TIP3    H230650   0.493   0.600   0.944  1.9301  0.4603 -0.7904
 3079TIP3   OH230651   0.729   4.855  12.922  0.6754  0.2838 -0.8684
 3079TIP3    H130652   0.701   4.941  12.890  0.6107  0.9933  0.9562
 3079TIP3    H230653   0.685   4.793  12.865 -1.0222  1.4411 -0.9002
 3080TIP3   OH230654   4.356   5.281  12.807 -0.2053  0.0188  0.3133
 3080TIP3    H130655   4.389   5.323  12.728 -0.1457  1.0565  0.8722
 3080TIP3    H230656   4.333   5.354  12.865  2.2867 -0.6470  2.3218
 3081TIP3   OH230657   1.873   2.235  16.007  0.2017  0.3621 -0.1207
 3081TIP3    H130658   1.959   2.206  16.035 -0.2525  0.0632  1.0356
 3081TIP3    H230659   1.887   2.321  15.969  1.2994 -0.5432 -1.8953
 3082TIP3   OH230660   0.390   0.138  13.281  0.6120  0.8593 -0.4552
 3082TIP3    H130661   0.360   0.229  13.282  1.3945  1.1397 -0.9619
 3082TIP3    H230662   0.481   0.142  13.312  0.4043  0.1399  0.2987
 3083TIP3   OH230663   5.141   5.914   0.424  0.5971  0.2183  0.3216
 3083TIP3    H130664   5.052   5.943   0.443 -0.1153 -0.9040 -1.1167
 3083TIP3    H230665   5.187   5.995   0.400 -0.3144  0.6801  0.0680
 3084TIP3   OH230666   3.911   4.291   1.507  0.0036  0.2138  0.1267
 3084TIP3    H130667   3.955   4.260   1.429 -0.1697 -0.2636  0.2153
 3084TIP3    H230668   3.957   4.372   1.530  0.5151 -0.0203 -0.0562
 3085TIP3   OH230669   3.573   2.708   2.981  0.1714 -0.4416  0.1682
 3085TIP3    H130670   3.627   2.636   2.948 -0.3386 -1.5429  1.6486
 3085TIP3    H230671   3.636   2.770   3.018  0.5731 -0.4384 -0.5019
 3086TIP3   OH230672   5.139   2.681  14.069  0.0144  0.1637 -0.4781
 3086TIP3    H130673   5.207   2.713  14.128 -1.0728 -1.1461  1.5987
 3086TIP3    H230674   5.088   2.621  14.122 -2.6598  0.9342 -2.0074
 3087TIP3   OH230675   4.504   2.049   0.040 -0.1564  0.3692 -0.2422
 3087TIP3    H130676   4.519   2.137   0.073 -1.0644  1.2661 -2.0513
 3087TIP3    H230677   4.484   1.997   0.117 -3.8013  2.6750  0.6131
 3088TIP3   OH230678   2.648   2.295   5.171 -0.5466 -0.3248  0.0980
 3088TIP3    H130679   2.712   2.254   5.113 -2.0323  0.8375 -2.5113
 3088TIP3    H230680   2.645   2.387   5.143 -0.7463  0.5325  2.6288
 3089TIP3   OH230681   5.647   6.441   5.999 -0.5688  0.0670  0.0322
 3089TIP3    H130682   5.557   6.464   6.022 -0.6525 -0.1109 -0.1084
 3089TIP3    H230683   5.701   6.506   6.044 -0.7142 -0.3734  0.8542
 3090TIP3   OH230684   4.021   3.269  14.864 -0.5617  0.2732 -0.3893
 3090TIP3    H130685   4.001   3.192  14.917 -1.8129  0.4358 -0.5968
 3090TIP3    H230686   3.992   3.246  14.776  0.9210  0.2461 -0.8869
 3091TIP3   OH230687   2.532   6.759   4.690  0.0823  0.2141 -0.3872
 3091TIP3    H130688   2.594   6.832   4.686 -1.2019  1.3851  0.1206
 3091TIP3    H230689   2.460   6.792   4.745  0.8622 -2.4987  2.6180
 3092TIP3   OH230690   2.378   5.696  11.840 -0.0191  0.0736 -0.6181
 3092TIP3    H130691   2.357   5.602  11.844 -0.1943  0.0983 -0.9736
 3092TIP3    H230692   2.358   5.722  11.750 -0.2300  0.5128 -0.4495
 3093TIP3   OH230693   2.049   5.644   2.388 -0.4591 -0.0147 -0.0640
 3093TIP3    H130694   2.120   5.633   2.452 -2.7294  2.1452  3.0711
 3093TIP3    H230695   2.092   5.685   2.313  2.1296 -1.5713  0.4312
 3094TIP3   OH230696   5.275   1.599   5.041  0.5560 -0.4370 -0.1844
 3094TIP3    H130697   5.212   1.590   5.112 -2.0505  1.4765 -2.0847
 3094TIP3    H230698   5.349   1.646   5.081 -1.3851  1.7541  1.0699
 3095TIP3   OH230699   0.021   3.950   1.290  0.7409 -0.2371 -0.0638
 3095TIP3    H130700   0.020   3.938   1.195  0.1567  1.9890 -0.4051
 3095TIP3    H230701   0.113   3.967   1.310  0.5039  2.2518 -0.7495
 3096TIP3   OH230702   4.593   5.346  16.243 -0.3109  0.4095 -0.1204
 3096TIP3    H130703   4.612   5.343  16.337 -1.8746 -0.2093  0.2023
 3096TIP3    H230704   4.555   5.433  16.230  0.7475  0.8470 -0.3702
 3097TIP3   OH230705   6.585   5.814   5.766 -0.1440 -0.7040  0.2889
 3097TIP3    H130706   6.605   5.872   5.840 -0.6303 -0.8252  0.5243
 3097TIP3    H230707   6.536   5.869   5.705  1.6218 -0.1691 -0.6884
 3098TIP3   OH230708   4.084   0.039  14.299 -0.6654 -0.1225  0.2732
 3098TIP3    H130709   4.152   0.046  14.366 -1.2871  1.2950  0.7945
 3098TIP3    H230710   4.094   0.119  14.247  0.3670 -1.5909 -1.9033
 3099TIP3   OH230711   1.040   6.672   4.585  0.1168 -0.1627 -0.3875
 3099TIP3    H130712   0.981   6.653   4.658  0.5101  1.0509  0.2664
 3099TIP3    H230713   0.992   6.734   4.531  0.7093  0.6852  0.0458
 3100TIP3   OH230714   5.232   6.715  14.065 -0.1720  0.3457 -0.1665
 3100TIP3    H130715   5.145   6.705  14.027 -0.7965  0.5670  1.1333
 3100TIP3    H230716   5.277   6.777  14.008  0.0516 -1.6334 -2.3047
 3101TIP3   OH230717   4.746   5.046  12.436  0.5594  0.4234 -0.4754
 3101TIP3    H130718   4.755   4.951  12.441 -0.5371  0.2626 -1.2356
 3101TIP3    H230719   4.677   5.067  12.500  1.0102  0.7562 -0.0849
 3102TIP3   OH230720   4.646   2.213   4.393  0.4712  0.0341 -0.2477
 3102TIP3    H130721   4.609   2.272   4.459  0.4572 -0.3419  0.0897
 3102TIP3    H230722   4.617   2.249   4.310 -0.7125 -0.2770  0.0056
 3103TIP3   OH230723   6.336   0.230   2.477  0.8165  0.8126 -0.0644
 3103TIP3    H130724   6.425   0.214   2.507  1.3451  2.6061 -0.5892
 3103TIP3    H230725   6.346   0.256   2.385 -0.5086 -1.5785 -0.9882
 3104TIP3   OH230726   1.121   5.829  13.575 -0.3548 -0.8099  0.0774
 3104TIP3    H130727   1.096   5.882  13.650  0.3097  0.7912 -0.7861
 3104TIP3    H230728   1.062   5.857  13.505  2.0023  1.1913 -1.2702
 3105TIP3   OH230729   1.491   0.178  12.097  0.3485 -0.2024  0.2745
 3105TIP3    H130730   1.471   0.259  12.049 -0.6867 -1.0847 -0.8333
 3105TIP3    H230731   1.469   0.199  12.188  1.2158  1.1232  0.2147
 3106TIP3   OH230732   3.512   5.205  13.599 -0.0211 -0.2415 -0.7950
 3106TIP3    H130733   3.556   5.122  13.578 -1.2824 -0.4614 -2.7531
 3106TIP3    H230734   3.474   5.190  13.686  1.0294 -1.1595 -0.4652
 3107TIP3   OH230735   4.103   0.222   4.139 -0.2679 -0.2815 -0.4232
 3107TIP3    H130736   4.072   0.267   4.217  1.5677  0.9189 -0.3470
 3107TIP3    H230737   4.045   0.253   4.069  1.1958  2.6662 -0.4699
 3108TIP3   OH230738   3.802   6.340  10.643 -0.1636 -0.0720 -0.6064
 3108TIP3    H130739   3.715   6.342  10.604 -0.3842  2.3228 -0.1671
 3108TIP3    H230740   3.855   6.397  10.587  0.3595  0.7643  0.6949
 3109TIP3   OH230741   2.931   0.981  11.852 -0.3909  0.2319 -0.1528
 3109TIP3    H130742   2.843   1.016  11.868 -0.0850  1.3521 -0.8288
 3109TIP3    H230743   2.919   0.917  11.783 -1.0360 -1.4421  1.4275
 3110TIP3   OH230744   2.456   1.078   3.114  0.3959 -0.1918 -0.2253
 3110TIP3    H130745   2.394   1.005   3.119  0.3686 -0.0884  2.7144
 3110TIP3    H230746   2.509   1.060   3.037 -1.7417 -1.5227 -1.4775
 3111TIP3   OH230747   4.191   2.376  12.955 -0.1943  0.8669  0.1340
 3111TIP3    H130748   4.148   2.356  13.038  0.0266  1.7895  0.4904
 3111TIP3    H230749   4.142   2.327  12.889  0.3403 -0.8196  0.9308
 3112TIP3   OH230750   4.004   4.405  15.257 -0.4821  1.0376  0.1958
 3112TIP3    H130751   4.077   4.399  15.319 -2.2401 -2.3464  2.2605
 3112TIP3    H230752   4.032   4.354  15.181  0.0698  1.5674  0.0348
 3113TIP3   OH230753   6.545   1.690   5.390  0.0400  0.7729 -0.7621
 3113TIP3    H130754   6.512   1.736   5.312 -0.4865  1.4247 -0.1652
 3113TIP3    H230755   6.636   1.717   5.396  0.2414  0.2821 -1.4656
 3114TIP3   OH230756   1.400   3.641  16.873 -0.1728 -0.5731 -0.1531
 3114TIP3    H130757   1.392   3.652  16.779 -1.9305 -0.8064 -0.0736
 3114TIP3    H230758   1.313   3.612  16.901  0.4758 -1.0702  1.4649
 3115TIP3   OH230759   0.627   6.305  11.855  0.2286  0.4019  0.0246
 3115TIP3    H130760   0.645   6.399  11.865 -0.1791  0.6235 -1.1741
 3115TIP3    H230761   0.681   6.263  11.922 -0.5170  1.5729  1.4352
 3116TIP3   OH230762   4.899   1.392   3.796  0.2275  0.3919 -0.1063
 3116TIP3    H130763   4.912   1.404   3.702  1.1247  1.2991  0.1248
 3116TIP3    H230764   4.866   1.302   3.803  1.5252 -0.2205 -1.1832
 3117TIP3   OH230765   6.044   0.532  15.241  0.1001  0.1770 -0.0012
 3117TIP3    H130766   6.118   0.575  15.283 -0.3300  1.0667 -0.1467
 3117TIP3    H230767   5.978   0.600  15.231  0.0055 -0.1124 -1.6998
 3118TIP3   OH230768   0.408   2.051   4.862 -0.1110  0.0966  0.3463
 3118TIP3    H130769   0.381   1.959   4.862 -0.7286  0.2603 -0.4626
 3118TIP3    H230770   0.481   2.055   4.923 -0.0734 -0.9331  0.3852
 3119TIP3   OH230771   5.991   3.692   2.921 -0.1137 -0.0901  0.5981
 3119TIP3    H130772   6.071   3.641   2.936  0.0392 -0.2675 -0.6740
 3119TIP3    H230773   6.007   3.775   2.966  0.5866 -0.3159  0.7777
 3120TIP3   OH230774   4.446   0.083   5.449 -0.0581 -0.2738  0.1326
 3120TIP3    H130775   4.489   0.043   5.373  0.7928  1.5955 -0.4357
 3120TIP3    H230776   4.449   0.016   5.517 -0.8693 -2.0196 -1.4505
 3121TIP3   OH230777   5.228   5.542   5.488 -0.1668  0.3700  0.2187
 3121TIP3    H130778   5.279   5.462   5.475 -0.4120  0.1796  0.4081
 3121TIP3    H230779   5.163   5.540   5.418  0.5834  1.0193 -0.5108
 3122TIP3   OH230780   6.323   1.387  11.396  0.3979 -0.6761  0.3227
 3122TIP3    H130781   6.382   1.441  11.343  0.2049  0.1586  0.9420
 3122TIP3    H230782   6.235   1.411  11.364  0.3558 -1.5327 -0.2404
 3123TIP3   OH230783   3.084   4.429   1.574  0.0326 -0.2152  0.3519
 3123TIP3    H130784   3.083   4.442   1.479 -0.6452 -1.3771  0.1804
 3123TIP3    H230785   3.173   4.399   1.593 -0.5305 -2.4732 -0.3148
 3124TIP3   OH230786   1.497   4.697   5.297  0.0127  0.5124 -0.1243
 3124TIP3    H130787   1.582   4.652   5.291 -0.4378 -0.2316 -1.4386
 3124TIP3    H230788   1.435   4.629   5.320 -0.1276  1.2270  1.7509
 3125TIP3   OH230789   4.668   0.030   0.143 -0.8018 -0.2814 -0.8937
 3125TIP3    H130790   4.658   0.073   0.228  0.6743  0.1981 -0.9318
 3125TIP3    H230791   4.596  -0.033   0.139 -0.6404 -0.6337  0.8988
 3126TIP3   OH230792   5.628   3.146   6.381 -0.0274  0.5654 -0.4224
 3126TIP3    H130793   5.535   3.169   6.388 -0.2817 -0.5913  0.2697
 3126TIP3    H230794   5.639   3.073   6.442  0.7209 -1.1151 -2.4350
 3127TIP3   OH230795   4.703   6.122   3.108 -0.2304 -0.1218 -0.1833
 3127TIP3    H130796   4.612   6.094   3.112  0.5455 -2.8604  0.1081
 3127TIP3    H230797   4.707   6.200   3.164 -2.7971  1.5477 -2.0959
 3128TIP3   OH230798   6.491   0.755   3.023  0.3780  0.5041 -0.3891
 3128TIP3    H130799   6.410   0.708   3.044  0.1934  0.1997 -1.6528
 3128TIP3    H230800   6.499   0.822   3.090  1.5615 -2.3525  2.6120
 3129TIP3   OH230801   0.125   6.017   4.944 -0.1598  0.2050 -0.3382
 3129TIP3    H130802   0.119   6.037   4.851 -0.2924 -1.5417 -0.7445
 3129TIP3    H230803   0.034   6.011   4.973 -0.1194  1.0557 -0.0031
 3130TIP3   OH230804   1.894   2.892   4.947  0.0511 -0.7009 -0.0549
 3130TIP3    H130805   1.976   2.940   4.958 -0.8479  0.6653  1.0568
 3130TIP3    H230806   1.840   2.920   5.021 -0.4942 -3.5811  0.7640
 3131TIP3   OH230807   4.738   3.217   2.124  0.2425 -0.0835 -0.4091
 3131TIP3    H130808   4.717   3.307   2.099  0.8697  0.0933 -0.3181
 3131TIP3    H230809   4.830   3.206   2.102  0.5664 -0.2272  0.9129
 3132TIP3   OH230810   3.506   0.717   5.650  0.6839 -0.3666 -0.2027
 3132TIP3    H130811   3.457   0.747   5.727  0.9048  0.9604 -0.5507
 3132TIP3    H230812   3.479   0.626   5.639 -0.1311 -0.2779  0.8351
 3133TIP3   OH230813   4.982   2.828   4.496 -0.0035  0.1974 -0.5214
 3133TIP3    H130814   5.015   2.868   4.577 -0.8765 -1.0701  0.4999
 3133TIP3    H230815   5.034   2.868   4.426  2.0972 -0.0713  0.8094
 3134TIP3   OH230816   1.692   4.345   3.634  0.2913 -0.0167 -0.0457
 3134TIP3    H130817   1.716   4.435   3.655  0.3086  0.4811 -2.0051
 3134TIP3    H230818   1.605   4.351   3.594  0.4921 -0.7808 -0.6466
 3135TIP3   OH230819   6.408   2.585   5.690  0.3570  0.3561  0.8699
 3135TIP3    H130820   6.466   2.637   5.635  0.0259 -0.7035 -0.5333
 3135TIP3    H230821   6.451   2.500   5.696 -1.1665 -0.5793 -0.5156
 3136TIP3   OH230822   6.319   3.811  16.245 -0.7751  0.1833 -0.7045
 3136TIP3    H130823   6.329   3.723  16.209  0.3313  0.6001 -1.4753
 3136TIP3    H230824   6.228   3.835  16.224 -1.0369 -0.7024 -0.6327
 3137TIP3   OH230825   1.380   6.159  11.045 -0.4110 -0.7723 -0.2958
 3137TIP3    H130826   1.318   6.231  11.055 -0.6208 -0.8981 -0.6838
 3137TIP3    H230827   1.338   6.099  10.984  0.4110 -0.5039 -1.1470
 3138TIP3   OH230828   4.267   3.046  13.997  0.5039 -0.3784  0.0915
 3138TIP3    H130829   4.316   3.125  13.974  2.2140 -1.6062 -0.7182
 3138TIP3    H230830   4.262   3.047  14.093 -0.1127  1.0299  0.0680
 3139TIP3   OH230831   2.280   1.428  15.274 -0.2102  0.0990 -0.5637
 3139TIP3    H130832   2.193   1.416  15.236  0.1546 -0.6332 -1.2096
 3139TIP3    H230833   2.324   1.345  15.257  0.7983  0.6612 -0.7422
 3140TIP3   OH230834   2.877   4.258   5.545  0.4899 -0.0357 -0.0072
 3140TIP3    H130835   2.855   4.227   5.457  1.4134 -0.6624 -0.0300
 3140TIP3    H230836   2.888   4.353   5.535  2.1566 -0.2877 -0.9267
 3141TIP3   OH230837   0.677   3.801  11.233 -0.0735  0.0564  0.7728
 3141TIP3    H130838   0.668   3.892  11.205 -0.1720 -0.4943 -1.1280
 3141TIP3    H230839   0.632   3.750  11.165  1.5984 -1.5329  0.7676
 3142TIP3   OH230840   2.460   0.954  14.613  0.2704 -0.2749 -0.2943
 3142TIP3    H130841   2.464   0.863  14.641 -2.0264 -0.4761 -0.4382
 3142TIP3    H230842   2.426   0.950  14.524  0.2509  0.7212 -0.3387
 3143TIP3   OH230843   2.605   6.258  13.001  0.3335  0.1679  0.7495
 3143TIP3    H130844   2.604   6.311  12.922 -2.7270 -2.0965 -0.9843
 3143TIP3    H230845   2.516   6.222  13.006  1.8709 -4.0094  2.1726
 3144TIP3   OH230846   6.512   1.429   3.315  0.0230 -0.1615  0.3510
 3144TIP3    H130847   6.526   1.443   3.409 -2.7320 -0.5725  0.9033
 3144TIP3    H230848   6.538   1.338   3.300 -1.6978 -0.8662  1.2947
 3145TIP3   OH230849   6.483   3.913   3.055  0.0568  0.0604  0.0456
 3145TIP3    H130850   6.551   3.871   3.108  0.7668  0.8467 -0.2170
 3145TIP3    H230851   6.531   3.962   2.989 -0.7387  1.5033  0.5097
 3146TIP3   OH230852   5.931   6.791  11.591  0.3744 -0.4548 -0.1669
 3146TIP3    H130853   5.956   6.709  11.549  0.1823 -0.1197 -0.9674
 3146TIP3    H230854   5.942   6.857  11.522  1.6598  0.3851  0.7907
 3147TIP3   OH230855   4.137   3.675   2.498 -0.0131 -0.1624 -0.2371
 3147TIP3    H130856   4.162   3.664   2.406  2.1785 -1.5079  0.4442
 3147TIP3    H230857   4.070   3.608   2.513  0.6979 -0.9358 -0.4921
 3148TIP3   OH230858   4.037   4.811  13.792 -0.1821 -0.5842  0.4664
 3148TIP3    H130859   4.006   4.901  13.786  0.2570 -0.3887  1.0742
 3148TIP3    H230860   3.961   4.762  13.823 -0.0409 -0.1816  1.4946
 3149TIP3   OH230861   6.504   5.897   3.466  0.2064 -0.6914 -0.4090
 3149TIP3    H130862   6.520   5.880   3.559 -0.9298 -0.4310 -0.1562
 3149TIP3    H230863   6.421   5.853   3.447  0.7801 -1.3537 -1.4911
 3150TIP3   OH230864   0.085   2.699  13.107  0.1115 -0.5523 -0.2020
 3150TIP3    H130865   0.110   2.634  13.174  0.6502 -0.7962 -0.6372
 3150TIP3    H230866   0.167   2.742  13.083 -0.4357  1.3363  1.1343
 3151TIP3   OH230867   2.681   6.393  15.225  0.1025  0.1261  0.4312
 3151TIP3    H130868   2.731   6.354  15.297  0.8042  0.3182  0.0593
 3151TIP3    H230869   2.627   6.322  15.193  0.9195 -0.3892  0.1569
 3152TIP3   OH230870   4.804   3.900  11.120  0.1876  0.3890  0.3984
 3152TIP3    H130871   4.810   3.820  11.069 -2.7199  0.2983 -0.0120
 3152TIP3    H230872   4.832   3.875  11.208 -0.3531 -1.0210  0.1999
 3153TIP3   OH230873   2.170   1.347  12.402 -0.2399  0.7062  0.1926
 3153TIP3    H130874   2.077   1.354  12.423  0.3148  2.3550  2.6329
 3153TIP3    H230875   2.198   1.266  12.444 -0.8280 -0.7494 -2.0502
 3154TIP3   OH230876   3.740   6.539  17.125  0.5252  0.8298 -0.2561
 3154TIP3    H130877   3.730   6.630  17.153 -0.3507  1.0057 -1.0607
 3154TIP3    H230878   3.785   6.545  17.040  0.9087  0.4742 -0.0827
 3155TIP3   OH230879   4.624   0.456  14.994 -0.6962 -0.3251 -0.1607
 3155TIP3    H130880   4.708   0.498  14.977  0.0219 -2.2121 -1.5080
 3155TIP3    H230881   4.645   0.377  15.044 -1.8915  0.1678  1.1942
 3156TIP3   OH230882   1.986   2.952  16.963  0.1585 -0.5459 -0.0553
 3156TIP3    H130883   2.066   2.907  16.934  0.2165 -1.0217  0.8120
 3156TIP3    H230884   1.934   2.884  17.005 -0.2476 -0.0212  0.2998
 3157TIP3   OH230885   3.300   2.897  15.655 -0.0074 -0.4276 -0.6669
 3157TIP3    H130886   3.368   2.963  15.671 -0.3540 -0.2429  0.1087
 3157TIP3    H230887   3.283   2.902  15.561  1.8680 -1.2873 -1.1088
 3158TIP3   OH230888   2.826   6.772  15.856  0.5793 -0.0690 -0.1107
 3158TIP3    H130889   2.873   6.854  15.871  1.1994 -0.4592  0.1330
 3158TIP3    H230890   2.895   6.707  15.846  0.1191 -0.4028 -1.2881
 3159TIP3   OH230891   2.173   4.774   1.301 -0.1793 -0.0089 -0.3824
 3159TIP3    H130892   2.107   4.743   1.239  0.3363 -1.2937 -0.3061
 3159TIP3    H230893   2.158   4.723   1.380  0.0112  0.6985  0.1241
 3160TIP3   OH230894   2.975   6.013  12.694 -0.3156 -0.4965  0.2011
 3160TIP3    H130895   2.958   6.098  12.735  0.3911 -0.5543  0.6170
 3160TIP3    H230896   3.067   6.017  12.668 -0.2338 -1.1991  0.3721
 3161TIP3   OH230897   0.005   4.587  16.380  0.7836 -0.3851  0.0096
 3161TIP3    H130898   0.045   4.631  16.455 -1.6744  0.5634  0.8701
 3161TIP3    H230899  -0.009   4.497  16.409 -0.7729  0.1435  1.0107
 3162TIP3   OH230900   6.454   0.390   4.904 -0.0534 -0.1992  0.4719
 3162TIP3    H130901   6.405   0.465   4.937 -4.7656 -3.0348  0.8105
 3162TIP3    H230902   6.439   0.391   4.809  0.0837 -0.5540  0.4421
 3163TIP3   OH230903   0.869   5.411  10.522  0.0652 -0.6014 -0.1708
 3163TIP3    H130904   0.781   5.392  10.555 -0.8951 -0.8205 -2.6861
 3163TIP3    H230905   0.919   5.332  10.539 -1.3086 -1.9587 -2.0730
 3164TIP3   OH230906   5.212   2.094  15.664 -0.0578 -0.2605 -0.0590
 3164TIP3    H130907   5.272   2.169  15.658  1.3171 -1.3150  0.0209
 3164TIP3    H230908   5.125   2.132  15.654  0.5465  1.4591  0.8114
 3165TIP3   OH230909   4.111   3.886   0.231 -0.4206  0.1340  0.2534
 3165TIP3    H130910   4.171   3.894   0.158  0.7903 -1.6538  0.9831
 3165TIP3    H230911   4.044   3.953   0.215  0.9521  1.1894 -1.3426
 3166TIP3   OH230912   2.321   4.700   4.106  0.6378 -0.1694  0.0432
 3166TIP3    H130913   2.345   4.792   4.110 -2.6095  0.8295 -0.1239
 3166TIP3    H230914   2.335   4.666   4.194  3.1039  0.0602 -0.2110
 3167TIP3   OH230915   0.246   4.385  13.613  0.0358 -0.0134 -0.2633
 3167TIP3    H130916   0.224   4.292  13.612  0.7785 -0.2103  0.2466
 3167TIP3    H230917   0.340   4.387  13.595 -0.0470  0.6708 -0.6683
 3168TIP3   OH230918   6.291   4.458  11.127  0.5020 -0.5262 -0.2553
 3168TIP3    H130919   6.302   4.524  11.196  4.4778  0.0195 -1.1594
 3168TIP3    H230920   6.324   4.377  11.166 -1.3536 -1.3034 -0.1951
 3169TIP3   OH230921   0.283   3.586   5.562 -0.6391  0.2914  0.1381
 3169TIP3    H130922   0.278   3.508   5.506  1.4948  0.1577  0.0484
 3169TIP3    H230923   0.195   3.624   5.558 -1.8683 -2.2775  0.4722
 3170TIP3   OH230924   0.349   2.271   3.910 -0.0404 -0.0971  0.3645
 3170TIP3    H130925   0.350   2.176   3.902  0.6176 -0.2107  1.5340
 3170TIP3    H230926   0.266   2.298   3.872 -1.7060 -1.4337  2.7691
 3171TIP3   OH230927   2.874   6.397   0.963  0.0490 -0.0337 -0.3275
 3171TIP3    H130928   2.805   6.379   0.899  0.6043  0.1793 -1.0054
 3171TIP3    H230929   2.853   6.341   1.038  0.6389 -2.0777 -1.5964
 3172TIP3   OH230930   2.387   2.400  14.569 -0.2417  0.2730  0.2411
 3172TIP3    H130931   2.362   2.309  14.549 -1.5396  0.9215 -1.2662
 3172TIP3    H230932   2.303   2.444  14.585  0.1303  1.8377 -1.8586
 3173TIP3   OH230933   0.480   3.202  15.737 -0.4496  0.7275  0.4228
 3173TIP3    H130934   0.547   3.239  15.794  0.0843 -0.9015  0.8920
 3173TIP3    H230935   0.497   3.242  15.652  0.4986  1.0849  0.7667
 3174TIP3   OH230936   5.287   1.372   4.917 -0.7319  0.4883 -0.5204
 3174TIP3    H130937   5.273   1.458   4.957  0.3144  0.0713  0.8287
 3174TIP3    H230938   5.382   1.360   4.920 -0.8911 -0.8565 -0.3838
 3175TIP3   OH230939   6.341   0.561   2.363  0.5167  0.2186 -0.9032
 3175TIP3    H130940   6.246   0.557   2.349  0.7398 -2.7822 -2.4256
 3175TIP3    H230941   6.378   0.557   2.275  2.0781  0.4723 -0.2863
 3176TIP3   OH230942   6.669   5.671  13.228  0.7627 -0.5246 -0.6574
 3176TIP3    H130943   6.644   5.763  13.219 -0.1833 -0.9475 -3.1627
 3176TIP3    H230944   6.609   5.637  13.294  1.9651  0.8805  1.2606
 3177TIP3   OH230945   3.432   0.581  16.830 -0.0510 -0.1520  0.5334
 3177TIP3    H130946   3.369   0.642  16.791  1.6404  1.2910 -0.0742
 3177TIP3    H230947   3.450   0.517  16.761 -1.9588 -1.5213  1.2282
 3178TIP3   OH230948   2.754   1.763  10.801 -0.0820 -0.4637  0.0913
 3178TIP3    H130949   2.688   1.819  10.759 -1.5272 -2.3719 -0.3205
 3178TIP3    H230950   2.776   1.810  10.882 -0.7471  1.0102 -0.5442
 3179TIP3   OH230951   1.543   1.116  12.625 -0.6720 -0.0726  0.2205
 3179TIP3    H130952   1.617   1.162  12.665  0.6183 -0.5034 -1.5428
 3179TIP3    H230953   1.556   1.024  12.651 -1.2548  0.0091  0.8330
 3180TIP3   OH230954   4.769   4.498  15.463 -0.0878 -0.2523 -0.8262
 3180TIP3    H130955   4.829   4.423  15.461 -0.5642 -0.6583 -0.1223
 3180TIP3    H230956   4.827   4.574  15.462  0.4440 -0.6382 -0.1633
 3181TIP3   OH230957   4.096   5.042  14.044  0.1306 -0.5256  0.4367
 3181TIP3    H130958   4.061   5.131  14.053  2.2958  0.4269 -0.0471
 3181TIP3    H230959   4.040   5.001  13.978  0.5381  1.3028 -1.1266
 3182TIP3   OH230960   1.730   3.065   0.317  0.2346 -0.2603 -0.0204
 3182TIP3    H130961   1.767   3.146   0.281 -0.3571 -0.9302 -2.3321
 3182TIP3    H230962   1.780   2.996   0.274 -0.8926 -1.1404  0.0625
 3183TIP3   OH230963   6.320   1.885   6.495  0.1666  0.0407 -0.5818
 3183TIP3    H130964   6.335   1.809   6.550  1.6095  0.0495 -0.9205
 3183TIP3    H230965   6.336   1.960   6.553 -4.8224  0.3535  0.8546
 3184TIP3   OH230966   0.074   1.122  12.804 -0.4278  0.5427 -0.3106
 3184TIP3    H130967   0.068   1.125  12.709 -0.9464  2.6299 -0.2665
 3184TIP3    H230968   0.069   1.029  12.826  1.0014 -0.0857 -2.3727
 3185TIP3   OH230969   0.111   0.355   4.345  0.3332 -0.2063  0.1696
 3185TIP3    H130970   0.025   0.378   4.379  0.0406 -0.3919 -0.4260
 3185TIP3    H230971   0.094   0.288   4.278  1.1327 -2.1658  1.7984
 3186TIP3   OH230972   2.254   1.366  12.732 -0.1511  0.4322  0.2350
 3186TIP3    H130973   2.266   1.278  12.698 -2.2874  0.2846 -0.2541
 3186TIP3    H230974   2.271   1.423  12.657  0.0666  0.3758  0.2409
 3187TIP3   OH230975   4.495   6.200   1.363 -0.0530  0.2499 -0.3800
 3187TIP3    H130976   4.506   6.136   1.432  1.8760  0.0999 -0.7742
 3187TIP3    H230977   4.401   6.215   1.359 -0.3911 -1.3012  0.8326
 3188TIP3   OH230978   1.217   3.415   0.150 -0.2082 -0.5897 -0.4852
 3188TIP3    H130979   1.214   3.400   0.245 -2.8949 -0.1507 -0.4126
 3188TIP3    H230980   1.213   3.327   0.112  1.7947 -0.8207 -0.2444
 3189TIP3   OH230981   5.572   3.102  13.015  0.7034  0.0817 -0.1418
 3189TIP3    H130982   5.488   3.123  12.974  0.6010  0.0020  0.0275
 3189TIP3    H230983   5.563   3.130  13.106  0.4506 -0.9816  0.1765
 3190TIP3   OH230984   1.104   4.558   1.935  0.0492  0.3062  0.4531
 3190TIP3    H130985   1.023   4.556   1.884  0.1714  0.9454  0.2294
 3190TIP3    H230986   1.084   4.615   2.009  0.3466  0.5955  0.3111
 3191TIP3   OH230987   4.316   6.209   3.835 -0.1723  0.5730  0.0953
 3191TIP3    H130988   4.397   6.159   3.839 -0.9762 -0.7512  3.7624
 3191TIP3    H230989   4.340   6.294   3.873 -0.2385  0.5746  0.1327
 3192TIP3   OH230990   4.962   2.264  14.222 -0.2914 -0.0741  0.2798
 3192TIP3    H130991   5.032   2.264  14.287 -1.4005 -1.2988  1.5292
 3192TIP3    H230992   5.004   2.294  14.141  1.5856 -0.4716  1.0685
 3193TIP3   OH230993   2.208   1.461  13.572  0.3966 -0.4172 -0.1724
 3193TIP3    H130994   2.166   1.376  13.584 -0.8855  0.3950  1.7060
 3193TIP3    H230995   2.265   1.470  13.649  0.7557  0.2839 -0.5158
 3194TIP3   OH230996   1.736   2.868  15.586  0.2967  0.0129 -0.1787
 3194TIP3    H130997   1.770   2.895  15.500  0.1083 -0.8433 -0.5356
 3194TIP3    H230998   1.800   2.804  15.618 -1.2346 -2.1878 -1.1883
 3195TIP3   OH230999   1.575   1.480  13.733 -0.1595 -0.2730 -0.4394
 3195TIP3    H131000   1.622   1.490  13.816  0.5956  1.0739 -0.9909
 3195TIP3    H231001   1.638   1.436  13.676  0.4246  1.3718 -1.1257
 3196TIP3   OH231002   6.541   2.383  12.243  0.0576 -0.5613  0.1812
 3196TIP3    H131003   6.453   2.415  12.222  0.1833  0.6092  1.3193
 3196TIP3    H231004   6.547   2.298  12.199 -1.9263 -1.0239  0.7105
 3197TIP3   OH231005   0.401   6.167  14.700  0.1333 -0.2103  0.4536
 3197TIP3    H131006   0.382   6.197  14.789 -1.9282  0.2504 -0.1004
 3197TIP3    H231007   0.397   6.072  14.705 -0.4875 -0.1704  0.7569
 3198TIP3   OH231008   2.190   1.114   2.259  0.0560 -0.5785  0.2578
 3198TIP3    H131009   2.124   1.045   2.263  0.2110 -0.9270 -2.0752
 3198TIP3    H231010   2.256   1.081   2.198  1.3763  0.6308  0.9638
 3199TIP3   OH231011   4.255   0.050  17.116  0.2198 -0.0134 -0.4954
 3199TIP3    H131012   4.294  -0.020  17.169 -1.4499  0.0436  0.8612
 3199TIP3    H231013   4.174   0.012  17.081  0.9940  0.1349 -2.6456
 3200TIP3   OH231014   5.118   1.290  14.255  0.1019  1.1114 -0.5010
 3200TIP3    H131015   5.127   1.257  14.166  1.3472 -1.5154  0.4766
 3200TIP3    H231016   5.187   1.356  14.264  0.9475  0.3340 -1.0880
 3201TIP3   OH231017   0.736   1.847  13.280 -0.2049  0.2651  0.1076
 3201TIP3    H131018   0.740   1.753  13.297  1.7407  0.4245  0.7998
 3201TIP3    H231019   0.678   1.881  13.348 -1.0825 -0.4305 -0.2634
 3202TIP3   OH231020   3.195   3.035   1.260 -0.3020  0.4048 -0.1740
 3202TIP3    H131021   3.166   3.016   1.170  0.2226 -1.8354  0.0610
 3202TIP3    H231022   3.256   2.964   1.280  0.8306  1.7543  1.4134
 3203TIP3   OH231023   0.832   3.397   3.766 -0.5773 -0.0937  0.2346
 3203TIP3    H131024   0.918   3.395   3.808 -0.1023 -0.2356 -0.7340
 3203TIP3    H231025   0.847   3.434   3.680 -1.4042 -0.5755 -0.1365
 3204TIP3   OH231026   3.672   5.884  12.914  0.5352  0.1627 -0.6244
 3204TIP3    H131027   3.588   5.890  12.959  0.1192 -1.0210 -1.1943
 3204TIP3    H231028   3.684   5.970  12.875 -0.4350  0.3404 -0.5645
 3205TIP3   OH231029   2.199   6.431  14.302 -0.6316 -0.3945 -0.3990
 3205TIP3    H131030   2.169   6.445  14.392 -0.3619 -0.2598 -0.3318
 3205TIP3    H231031   2.185   6.515  14.259 -3.1958 -1.1415 -1.1883
 3206TIP3   OH231032   0.842   0.393   0.021  0.3498  0.2600  0.0691
 3206TIP3    H131033   0.875   0.304   0.006  0.3144  0.4087 -0.9784
 3206TIP3    H231034   0.918   0.441   0.054  0.8182  0.2401 -0.9345
 3207TIP3   OH231035   3.999   5.599  11.607 -0.0863  0.0734  0.1022
 3207TIP3    H131036   3.970   5.665  11.669 -1.4631  0.3753 -0.8111
 3207TIP3    H231037   3.926   5.590  11.546  0.7471 -1.0758 -0.7726
 3208TIP3   OH231038   2.737   0.132  17.002 -0.2025 -0.1349  0.0157
 3208TIP3    H131039   2.719   0.047  16.963  0.7565  0.1475 -1.0922
 3208TIP3    H231040   2.698   0.195  16.942 -1.1285  0.2203  0.9591
 3209TIP3   OH231041   6.479   0.597   1.293 -0.2444  0.0143 -0.2057
 3209TIP3    H131042   6.552   0.590   1.232  0.5659 -0.0835  0.7407
 3209TIP3    H231043   6.478   0.690   1.319 -0.7730  0.1196 -0.5837
 3210TIP3   OH231044   1.318   0.101  16.231 -0.0453  0.2183 -0.1870
 3210TIP3    H131045   1.269   0.179  16.259  0.8029  0.6317  0.1844
 3210TIP3    H231046   1.253   0.030  16.234 -0.4785  0.6249  0.9399
 3211TIP3   OH231047   1.128   5.951  11.737  1.3999  0.8268 -0.5959
 3211TIP3    H131048   1.032   5.949  11.731  1.1188 -0.7984  2.4717
 3211TIP3    H231049   1.157   5.902  11.660 -0.4341 -1.2457 -0.0856
 3212TIP3   OH231050   2.755   5.837   6.002 -0.7451  0.1138  0.3829
 3212TIP3    H131051   2.784   5.901   5.936  1.1328 -0.3947  0.6473
 3212TIP3    H231052   2.739   5.890   6.080  0.9793  0.2928  0.6545
 3213TIP3   OH231053   4.116   6.324   1.273  0.2783  0.0124  0.5585
 3213TIP3    H131054   4.103   6.305   1.180 -0.2605 -0.9095  0.8152
 3213TIP3    H231055   4.075   6.251   1.319  1.1470  0.1009  1.5161
 3214TIP3   OH231056   5.227   4.346  13.303  0.2609  0.6727  0.1117
 3214TIP3    H131057   5.188   4.417  13.253  1.6869 -0.3704 -2.6987
 3214TIP3    H231058   5.277   4.295  13.239  0.8647 -1.7883  2.3219
 3215TIP3   OH231059   3.200   2.252   2.277  0.9629  0.2426  0.0608
 3215TIP3    H131060   3.248   2.227   2.356  1.9203 -1.1080 -0.8973
 3215TIP3    H231061   3.114   2.211   2.287  0.1894  2.0608  1.4452
 3216TIP3   OH231062   2.721   4.655  13.065  0.0089  0.1917 -0.9949
 3216TIP3    H131063   2.783   4.706  13.013  1.9820 -1.3636 -0.2730
 3216TIP3    H231064   2.692   4.585  13.006  2.2430 -1.5698 -0.1456
 3217TIP3   OH231065   1.765   6.031  15.328  0.1977  0.5876  0.1479
 3217TIP3    H131066   1.707   6.004  15.400  2.0411 -1.5471  0.9676
 3217TIP3    H231067   1.837   6.075  15.372  0.6556  0.5246 -0.5403
 3218TIP3   OH231068   2.987   3.910   1.051  0.3070 -0.0489  0.0400
 3218TIP3    H131069   2.952   3.858   1.123  1.9072 -2.2860 -0.6968
 3218TIP3    H231070   3.028   3.986   1.093 -0.0292 -0.5752  1.3495
 3219TIP3   OH231071   5.773   4.788   5.741 -0.2897 -0.3238 -0.4682
 3219TIP3    H131072   5.757   4.699   5.773  1.0049 -0.5687 -0.4595
 3219TIP3    H231073   5.856   4.782   5.694  0.3055  1.0926  0.3456
 3220TIP3   OH231074   4.649   5.777  11.168  0.0499 -0.2663  0.1845
 3220TIP3    H131075   4.582   5.786  11.100 -0.5671  0.4902  0.8817
 3220TIP3    H231076   4.628   5.845  11.232  0.9633 -0.5987  0.8546
 3221TIP3   OH231077   0.926   1.344   6.386 -0.0868 -0.4437 -0.3536
 3221TIP3    H131078   0.892   1.328   6.298  0.5720  1.0838 -0.9373
 3221TIP3    H231079   0.916   1.261   6.432 -1.3224 -1.0116 -1.5717
 3222TIP3   OH231080   1.425   1.279  14.696  0.2723  0.3065 -0.1759
 3222TIP3    H131081   1.502   1.238  14.735  1.1128  0.5224 -1.5193
 3222TIP3    H231082   1.353   1.220  14.717  0.8630 -0.0967  0.7921
 3223TIP3   OH231083   1.583   3.752  13.612 -0.2228  0.4094  0.0142
 3223TIP3    H131084   1.509   3.692  13.599  0.3072 -0.4111  0.6891
 3223TIP3    H231085   1.590   3.761  13.707  2.1303 -1.5973  0.1131
 3224TIP3   OH231086   6.683   2.638  11.666 -0.1274  0.0522  0.3221
 3224TIP3    H131087   6.638   2.722  11.656 -0.3460 -0.2077 -1.0881
 3224TIP3    H231088   6.626   2.575  11.621  0.5689 -0.6641  0.4233
 3225TIP3   OH231089   4.022   6.575  16.586 -0.4246  0.3405 -0.5877
 3225TIP3    H131090   4.052   6.648  16.641  0.0159  0.9363 -1.5855
 3225TIP3    H231091   4.103   6.539  16.548 -0.7046 -0.2055 -0.6707
 3226TIP3   OH231092   5.732   5.296   0.136 -0.1550  0.0443 -0.1881
 3226TIP3    H131093   5.727   5.391   0.149 -0.6251 -0.2064  1.7025
 3226TIP3    H231094   5.670   5.279   0.065 -0.5826  1.0785 -0.0885
 3227TIP3   OH231095   1.521   2.123   2.748 -0.4807  0.0717 -0.3143
 3227TIP3    H131096   1.558   2.054   2.803 -0.6296 -0.0535 -0.3697
 3227TIP3    H231097   1.512   2.082   2.662 -0.2899  0.2528 -0.4204
 3228TIP3   OH231098   5.752   1.628   0.545  0.3127 -0.5207 -0.2390
 3228TIP3    H131099   5.730   1.664   0.459 -1.5667  0.2489  0.4958
 3228TIP3    H231100   5.800   1.698   0.590  0.9435 -0.7732 -0.5175
 3229TIP3   OH231101   3.058   3.117  14.533  0.1480  0.2527  0.2698
 3229TIP3    H131102   3.013   3.038  14.504 -0.3715 -0.2287  2.2856
 3229TIP3    H231103   3.018   3.139  14.617 -1.2058  3.8722 -1.1218
 3230TIP3   OH231104   3.635   4.439   4.189  0.4049  0.0097  0.1705
 3230TIP3    H131105   3.543   4.462   4.197  0.7749  1.2660  1.2273
 3230TIP3    H231106   3.648   4.420   4.096 -0.8963 -0.1642  0.0105
 3231TIP3   OH231107   1.597   2.430   4.228 -0.5643 -0.0374 -0.1266
 3231TIP3    H131108   1.540   2.417   4.152  0.4997  1.5626 -1.2832
 3231TIP3    H231109   1.537   2.438   4.302 -1.5644 -3.3166 -0.4416
 3232TIP3   OH231110   1.817   3.140  11.790  0.7416  0.0992  0.3229
 3232TIP3    H131111   1.751   3.085  11.747 -0.1433  1.5212 -0.1929
 3232TIP3    H231112   1.838   3.093  11.871  0.4743 -1.2924 -0.3783
 3233TIP3   OH231113   4.672   2.762  15.692 -0.2223 -0.3389 -0.0755
 3233TIP3    H131114   4.622   2.712  15.756  0.4587 -1.1121 -0.1325
 3233TIP3    H231115   4.743   2.703  15.666  1.2082  1.0341  0.6048
 3234TIP3   OH231116   5.334   2.261  13.482  0.1645 -0.0703 -0.9332
 3234TIP3    H131117   5.373   2.341  13.516  0.2511 -1.8207  3.7429
 3234TIP3    H231118   5.271   2.291  13.416 -0.7959  3.9975  1.4895
 3235TIP3   OH231119   4.712   1.019   3.368  0.4060 -0.3615  0.3958
 3235TIP3    H131120   4.658   1.087   3.329  0.8865  1.4877  2.6898
 3235TIP3    H231121   4.697   0.942   3.314  0.2606  1.6602 -2.7100
 3236TIP3   OH231122   3.141   6.772  11.735 -0.0464 -0.7744 -0.3215
 3236TIP3    H131123   3.120   6.850  11.683  2.4114  0.0632 -0.1681
 3236TIP3    H231124   3.191   6.717  11.675  1.5908 -0.4362  0.6632
 3237TIP3   OH231125   3.024   3.498  12.268  0.1401 -0.4673 -0.3387
 3237TIP3    H131126   2.963   3.436  12.229  0.2110 -1.6865  1.3392
 3237TIP3    H231127   3.042   3.562  12.199 -1.1734 -1.4167 -1.6200
 3238TIP3   OH231128   6.626   3.727   2.463  0.0635 -0.4698  0.3856
 3238TIP3    H131129   6.604   3.726   2.556 -2.4813 -1.4572 -0.1370
 3238TIP3    H231130   6.566   3.792   2.425 -2.0220 -3.0461 -1.0814
 3239TIP3   OH231131   2.957   3.505   5.338  0.2324  0.0844  0.2268
 3239TIP3    H131132   2.898   3.571   5.301  0.5578 -0.1439 -0.7084
 3239TIP3    H231133   2.970   3.534   5.429 -1.4624  0.0283  0.5204
 3240TIP3   OH231134   5.449   4.857   0.281 -0.0842  0.0304 -0.1136
 3240TIP3    H131135   5.366   4.903   0.295 -0.2647 -0.4602  0.4853
 3240TIP3    H231136   5.433   4.801   0.205 -0.8346 -1.2405  0.9345
 3241TIP3   OH231137   2.251   0.172   0.459  0.0850 -0.2185 -0.1305
 3241TIP3    H131138   2.182   0.199   0.399 -1.3238 -1.6020  0.8051
 3241TIP3    H231139   2.277   0.085   0.428  1.6925  0.4078 -0.6717
 3242TIP3   OH231140   5.578   0.968   4.379  0.7883 -0.1414  0.0785
 3242TIP3    H131141   5.584   0.985   4.285  0.9591  0.8059  0.2608
 3242TIP3    H231142   5.488   0.935   4.391  1.2036 -1.6373 -0.6099
 3243TIP3   OH231143   4.361   0.549  17.103 -0.4216 -0.2590 -0.0823
 3243TIP3    H131144   4.274   0.525  17.135 -1.2808 -1.9708 -3.3135
 3243TIP3    H231145   4.345   0.626  17.048 -0.7208 -2.4874 -3.4660
 3244TIP3   OH231146   5.311   0.902   4.767 -0.1936  0.6504 -0.0112
 3244TIP3    H131147   5.345   0.961   4.834  1.3135  0.2552 -0.3828
 3244TIP3    H231148   5.333   0.814   4.798 -3.6054  0.0625  1.2106
 3245TIP3   OH231149   0.559   3.356   1.918 -0.1449  0.6698 -0.2089
 3245TIP3    H131150   0.648   3.320   1.926  0.0101  1.3737  1.6945
 3245TIP3    H231151   0.570   3.450   1.931 -1.2482  0.6846  0.7459
 3246TIP3   OH231152   0.805   1.821  16.107 -0.0042 -0.3991  1.0089
 3246TIP3    H131153   0.760   1.905  16.103 -0.9910 -0.9595 -0.9415
 3246TIP3    H231154   0.843   1.810  16.019  1.2930 -1.3773  1.6524
 3247TIP3   OH231155   4.076   2.777  10.558  0.0091  0.4116 -0.6877
 3247TIP3    H131156   4.037   2.846  10.503 -1.9142  0.0030  0.1061
 3247TIP3    H231157   4.031   2.697  10.532  0.4937 -0.1389  0.1223
 3248TIP3   OH231158   1.790   3.252   1.788 -0.0016 -1.1485 -0.5509
 3248TIP3    H131159   1.753   3.307   1.857 -1.7945 -1.1064 -1.5092
 3248TIP3    H231160   1.716   3.229   1.733  1.0375 -2.9549 -1.2730
 3249TIP3   OH231161   6.214   5.983   1.073  0.4931  0.2599  0.3123
 3249TIP3    H131162   6.261   6.025   1.001 -0.7182 -1.6035 -1.6778
 3249TIP3    H231163   6.121   5.997   1.052  0.1116 -1.0595  1.0461
 3250TIP3   OH231164   4.965   5.119  11.597 -0.4243 -0.0331 -0.2085
 3250TIP3    H131165   4.981   5.026  11.582 -2.0756 -0.3124 -0.4153
 3250TIP3    H231166   5.034   5.146  11.659 -0.7106 -1.7025  0.8916
 3251TIP3   OH231167   6.650   2.967   0.696  0.1574 -0.1209  0.3953
 3251TIP3    H131168   6.576   2.955   0.755  1.0097 -0.5584  1.4163
 3251TIP3    H231169   6.632   2.908   0.622  0.3358 -1.6030  1.4855
 3252TIP3   OH231170   5.806   5.468  12.293  0.5845 -0.6900 -0.3127
 3252TIP3    H131171   5.876   5.407  12.313 -0.6051 -1.9356  0.1617
 3252TIP3    H231172   5.758   5.428  12.221  0.2872  0.1030 -0.5728
 3253TIP3   OH231173   0.019   2.400   2.978  0.2964  0.7708 -0.4883
 3253TIP3    H131174   0.106   2.422   2.943  1.0472  0.0823  0.8919
 3253TIP3    H231175   0.018   2.439   3.065 -0.5731  0.2814 -0.2781
 3254TIP3   OH231176   5.290   3.708  14.781 -0.4274  0.4458 -0.0756
 3254TIP3    H131177   5.206   3.726  14.822  0.0893  1.3304  0.6441
 3254TIP3    H231178   5.270   3.702  14.687 -1.2889  0.6637  0.0861
 3255TIP3   OH231179   4.189   3.955   6.009 -0.3347 -0.1527  0.0056
 3255TIP3    H131180   4.141   4.021   6.060  0.2639  1.3242 -1.2544
 3255TIP3    H231181   4.124   3.888   5.989 -1.6197  1.2502 -0.7024
 3256TIP3   OH231182   1.719   3.909  11.504 -0.1041  0.0471  0.2056
 3256TIP3    H131183   1.656   3.913  11.577 -0.8153 -1.8828 -0.2543
 3256TIP3    H231184   1.786   3.848  11.534 -0.3608 -0.7009 -0.7197
 3257TIP3   OH231185   2.927   5.353   0.696 -0.5930 -0.3168 -0.0517
 3257TIP3    H131186   2.855   5.396   0.650 -0.4678  0.8311  0.7885
 3257TIP3    H231187   2.910   5.260   0.685 -1.0021 -0.0912 -1.7347
 3258TIP3   OH231188   5.789   3.571  12.041  0.3642  0.0414 -0.0235
 3258TIP3    H131189   5.879   3.598  12.024  0.6253 -0.1259  1.0124
 3258TIP3    H231190   5.749   3.645  12.085 -0.4182  0.6189 -1.6088
 3259TIP3   OH231191   6.405   2.272  16.254  0.5818  0.2349  0.4534
 3259TIP3    H131192   6.424   2.236  16.340  2.0301  0.9237  0.4470
 3259TIP3    H231193   6.405   2.367  16.267  0.3096  0.3337 -0.2179
 3260TIP3   OH231194   5.667   1.142  11.144  0.2461 -0.1218 -0.6080
 3260TIP3    H131195   5.683   1.169  11.053  0.6802 -0.2585 -0.5778
 3260TIP3    H231196   5.715   1.060  11.153 -0.5950 -0.6139 -0.5285
 3261TIP3   OH231197   5.250   6.438  14.192 -0.7115  0.7048 -0.1793
 3261TIP3    H131198   5.221   6.410  14.105 -2.1484  0.6208  0.2996
 3261TIP3    H231199   5.298   6.519  14.176  3.0314 -1.5255 -1.5369
 3262TIP3   OH231200   1.515   4.055   1.320  0.1699 -0.1102 -0.4108
 3262TIP3    H131201   1.556   4.061   1.407  0.1986 -0.7471 -0.3798
 3262TIP3    H231202   1.463   3.975   1.323  1.2024 -0.8463 -1.4201
 3263TIP3   OH231203   5.903   0.255  14.168  0.2932  0.1317  0.0346
 3263TIP3    H131204   5.892   0.229  14.259  1.1959 -0.4839 -0.0162
 3263TIP3    H231205   5.835   0.207  14.121  0.0868  0.1336  0.3284
 3264TIP3   OH231206   6.275   1.017   0.741  0.0319  0.5572 -0.0403
 3264TIP3    H131207   6.258   0.934   0.696 -1.2386  1.8494 -2.1264
 3264TIP3    H231208   6.192   1.039   0.783  0.0651  1.1814 -0.2767
 3265TIP3   OH231209   6.548   6.189  13.778 -0.0760  0.2138  0.2764
 3265TIP3    H131210   6.560   6.176  13.684  0.7474  0.2016  0.3794
 3265TIP3    H231211   6.484   6.122  13.804 -1.0385  0.8310 -0.4380
 3266TIP3   OH231212   1.461   2.881  16.750 -0.2970 -0.3370  0.1562
 3266TIP3    H131213   1.465   2.861  16.656 -1.5533  0.8721 -0.1930
 3266TIP3    H231214   1.552   2.900  16.774  0.4466 -2.9659 -0.2145
 3267TIP3   OH231215   6.179   0.085  14.777  0.9618 -0.2400  0.2155
 3267TIP3    H131216   6.101   0.139  14.769  1.7555  1.1799  1.5117
 3267TIP3    H231217   6.150   0.008  14.827  0.3788  0.2744  0.6878
 3268TIP3   OH231218   5.269   2.531   4.297  0.1993  0.2883 -0.4519
 3268TIP3    H131219   5.262   2.562   4.388  1.1886 -0.7304 -0.0025
 3268TIP3    H231220   5.180   2.501   4.276  0.0500  0.1293  0.3534
 3269TIP3   OH231221   0.996   3.768   3.616  0.3081  0.0245 -0.2080
 3269TIP3    H131222   1.060   3.784   3.686  2.7948 -0.9699 -2.1187
 3269TIP3    H231223   0.994   3.849   3.566  1.0371 -0.3535 -0.8625
 3270TIP3   OH231224   1.364   0.666   0.601  0.3128  0.3522 -0.1079
 3270TIP3    H131225   1.351   0.577   0.568  0.1299  0.3016  0.0918
 3270TIP3    H231226   1.289   0.715   0.567 -2.2153 -0.6202  3.4692
 3271TIP3   OH231227   3.775   3.077   1.531  0.1733 -0.2293  0.2034
 3271TIP3    H131228   3.734   3.026   1.461  1.9095 -2.1817  0.5125
 3271TIP3    H231229   3.806   3.156   1.487  1.3960 -1.4969 -1.3344
 3272TIP3   OH231230   3.166   6.231   5.012 -0.5015  0.2351 -0.2122
 3272TIP3    H131231   3.214   6.189   4.940 -1.1624  0.1304 -0.6050
 3272TIP3    H231232   3.076   6.200   5.001 -1.2034  2.3763 -1.0074
 3273TIP3   OH231233   3.847   5.478   0.894  0.2667  0.4563  0.3360
 3273TIP3    H131234   3.917   5.413   0.902  0.7400  1.0951  1.7985
 3273TIP3    H231235   3.766   5.429   0.911  0.3564 -0.2320 -1.0980
 3274TIP3   OH231236   0.031   4.698  14.943  0.1203 -0.1667  0.1179
 3274TIP3    H131237   0.126   4.711  14.937  0.0887 -0.2121 -0.7114
 3274TIP3    H231238   0.006   4.671  14.854 -0.4420 -1.6650  0.7043
 3275TIP3   OH231239   1.542   2.603  14.483  0.0795 -0.0624  0.0383
 3275TIP3    H131240   1.569   2.664  14.414 -2.1745  1.2413  0.2030
 3275TIP3    H231241   1.451   2.626  14.501  0.2481 -1.1197  2.6800
 3276TIP3   OH231242   0.764   1.883   0.649  0.5922 -0.9144  0.4548
 3276TIP3    H131243   0.678   1.901   0.611  0.9294  0.1600  0.1614
 3276TIP3    H231244   0.762   1.790   0.671 -0.5405 -0.9624  0.1908
 3277TIP3   OH231245   2.248   2.309   6.646  0.2480 -0.0618  0.3224
 3277TIP3    H131246   2.177   2.352   6.694  0.0469 -1.1766  1.0678
 3277TIP3    H231247   2.325   2.323   6.700  0.9605  2.3903 -1.1848
 3278TIP3   OH231248   5.326   4.041  16.655  0.3385  0.1348  0.0708
 3278TIP3    H131249   5.408   3.993  16.641  0.2296  0.0305 -0.2061
 3278TIP3    H231250   5.259   3.988  16.613  0.2350  0.5874 -0.3425
 3279TIP3   OH231251   5.151   2.919   4.294  0.1563  0.1883 -0.4580
 3279TIP3    H131252   5.240   2.887   4.283 -0.4600 -1.4602 -0.9901
 3279TIP3    H231253   5.127   2.954   4.208 -0.0307 -0.2808 -0.6025
 3280TIP3   OH231254   4.775   0.858   1.713  0.0695 -0.4551  0.4658
 3280TIP3    H131255   4.778   0.946   1.752 -2.1835 -0.0623 -0.0768
 3280TIP3    H231256   4.820   0.867   1.629 -0.0969  0.1828  0.4406
 3281TIP3   OH231257   3.532   5.463  11.556  0.3438 -0.2035 -0.5346
 3281TIP3    H131258   3.493   5.539  11.600 -2.3358 -0.5386 -2.1191
 3281TIP3    H231259   3.583   5.500  11.484 -0.6894  0.1645 -1.1031
 3282TIP3   OH231260   4.027   0.424  15.362  0.4686 -0.3710  0.4650
 3282TIP3    H131261   3.986   0.346  15.324 -0.5063  0.8557 -1.1177
 3282TIP3    H231262   4.077   0.462  15.289  1.2268  0.3123  1.3143
 3283TIP3   OH231263   3.109   1.923  13.790  0.1426 -0.6719  0.2763
 3283TIP3    H131264   3.193   1.968  13.794 -1.7979  3.5985 -1.1406
 3283TIP3    H231265   3.056   1.976  13.731 -3.5812 -3.1487  1.0545
 3284TIP3   OH231266   0.740   0.776  11.729  0.5378 -0.0071 -0.3937
 3284TIP3    H131267   0.828   0.798  11.699  0.1911  1.3139 -0.4975
 3284TIP3    H231268   0.723   0.839  11.799  0.4214 -1.5199  0.9994
 3285TIP3   OH231269   0.089   2.505  12.407  0.0698 -0.0337  0.1089
 3285TIP3    H131270   0.064   2.456  12.486 -0.8573  1.9843  1.1349
 3285TIP3    H231271   0.171   2.548  12.431 -0.5144  1.0527  0.2142
 3286TIP3   OH231272   6.012   1.889  11.947 -0.4487  0.3575  0.2511
 3286TIP3    H131273   5.999   1.916  11.856  2.2251  1.4244  0.1020
 3286TIP3    H231274   5.975   1.801  11.951  0.4306 -0.2100 -2.2126
 3287TIP3   OH231275   4.553   2.798  16.004 -0.7037  0.2284  0.6420
 3287TIP3    H131276   4.495   2.874  15.994 -1.2059 -0.2503 -0.1554
 3287TIP3    H231277   4.626   2.831  16.057 -0.4401  1.5436 -0.4737
 3288TIP3   OH231278   2.883   2.878  11.801 -0.6431 -0.2435  0.7901
 3288TIP3    H131279   2.797   2.841  11.784 -0.7609  0.1213  0.6011
 3288TIP3    H231280   2.866   2.967  11.832 -0.3778 -0.4703  1.6227
 3289TIP3   OH231281   5.927   6.118   2.697  0.1844  0.3497 -0.1036
 3289TIP3    H131282   5.879   6.200   2.682 -1.6030 -0.7289 -0.4926
 3289TIP3    H231283   5.949   6.086   2.609  0.2064  0.0229  0.0192
 3290TIP3   OH231284   6.300   1.589  13.945 -0.2820  0.0675 -0.1664
 3290TIP3    H131285   6.211   1.582  13.910 -0.9604  0.6236  1.4025
 3290TIP3    H231286   6.334   1.499  13.940 -0.6043 -0.0113 -1.5270
 3291TIP3   OH231287   3.922   4.619  17.153  0.2408  0.0281 -0.0339
 3291TIP3    H131288   3.921   4.660  17.240 -0.2742  0.3778 -0.1994
 3291TIP3    H231289   3.975   4.541  17.164 -0.3298 -0.2619  0.7609
 3292TIP3   OH231290   1.456   6.329   4.763  0.1479 -0.5761  0.0290
 3292TIP3    H131291   1.490   6.262   4.822 -1.1184 -0.9987  0.3040
 3292TIP3    H231292   1.366   6.343   4.791 -0.0038  0.3188 -0.8463
 3293TIP3   OH231293   2.625   4.711   1.550 -0.5936 -0.2123 -0.5542
 3293TIP3    H131294   2.719   4.729   1.554 -0.2925 -1.3627 -1.7158
 3293TIP3    H231295   2.609   4.688   1.458 -1.7703 -1.2345 -0.1209
 3294TIP3   OH231296   4.521   1.509  13.371  0.1092  0.1101 -0.3463
 3294TIP3    H131297   4.457   1.572  13.403  1.1636  1.9776 -1.7378
 3294TIP3    H231298   4.571   1.557  13.305  2.3723 -1.5508  0.0587
 3295TIP3   OH231299   3.881   6.242  11.296 -0.3521 -0.0651  0.1314
 3295TIP3    H131300   3.840   6.315  11.342 -1.5978  0.9160 -2.3476
 3295TIP3    H231301   3.911   6.280  11.213  2.8940 -1.4537  0.5166
 3296TIP3   OH231302   5.037   6.580   1.420 -0.1890 -0.6454 -0.0605
 3296TIP3    H131303   4.962   6.528   1.451 -0.0172 -2.0100 -1.8474
 3296TIP3    H231304   5.095   6.518   1.378  2.5372  0.2020  2.0939
 3297TIP3   OH231305   5.051   2.205  11.047 -0.2039  0.0043  0.0525
 3297TIP3    H131306   5.096   2.126  11.016  2.4780  1.0230  1.0559
 3297TIP3    H231307   5.013   2.243  10.968 -0.2401 -1.4778 -0.6837
 3298TIP3   OH231308   1.689   5.022   0.329 -0.0597  0.0390  0.5199
 3298TIP3    H131309   1.609   5.071   0.310  0.6295  1.5937  1.4779
 3298TIP3    H231310   1.663   4.958   0.396 -1.0312 -1.1938 -0.9602
 3299TIP3   OH231311   4.363   3.333   5.471 -0.1705 -0.1139 -0.3791
 3299TIP3    H131312   4.345   3.241   5.491 -0.8565  0.1075  0.0553
 3299TIP3    H231313   4.429   3.360   5.535 -1.9479  0.4371  1.3437
 3300TIP3   OH231314   2.904   5.137   2.042  0.2065 -0.2095  0.2021
 3300TIP3    H131315   2.879   5.187   1.964 -1.2250  0.2603  0.9202
 3300TIP3    H231316   2.911   5.047   2.012  0.3668  0.0635 -0.6095
 3301TIP3   OH231317   4.891   1.926   1.021  0.0455 -0.7352  0.3052
 3301TIP3    H131318   4.859   2.009   0.986  0.4340 -0.4128  0.7032
 3301TIP3    H231319   4.875   1.932   1.115 -1.1117 -1.6502  0.1779
 3302TIP3   OH231320   1.745   1.795   1.166 -0.2333  0.3888  0.3721
 3302TIP3    H131321   1.691   1.744   1.226 -0.8824  1.6873  0.9164
 3302TIP3    H231322   1.719   1.763   1.079 -1.2264  0.3458  0.6665
 3303TIP3   OH231323   4.404   3.810   4.416  0.0626 -0.3955  0.2075
 3303TIP3    H131324   4.468   3.739   4.413  0.7434  0.2276 -1.4490
 3303TIP3    H231325   4.323   3.771   4.381  0.2326 -0.5363 -0.0270
 3304TIP3   OH231326   2.226   3.190   1.903 -0.4296 -0.1949 -0.0369
 3304TIP3    H131327   2.250   3.099   1.922 -1.1606 -0.3376  0.1989
 3304TIP3    H231328   2.132   3.194   1.917 -0.2007  0.9706  1.4837
 3305TIP3   OH231329   0.362   4.324  11.805 -0.1410  0.6049  0.0055
 3305TIP3    H131330   0.380   4.395  11.743  0.7038  1.6045  1.3432
 3305TIP3    H231331   0.364   4.366  11.891  1.0967 -1.1497  0.8920
 3306TIP3   OH231332   3.769   5.653  15.203 -0.3728  0.0196  0.5559
 3306TIP3    H131333   3.700   5.680  15.143 -0.7894 -0.3656  0.8578
 3306TIP3    H231334   3.758   5.711  15.279  0.1422  0.4943  0.2809
 3307TIP3   OH231335   4.266   5.915   3.534 -0.2515 -0.3773  0.0130
 3307TIP3    H131336   4.317   5.976   3.480 -0.8661  0.3187  0.2083
 3307TIP3    H231337   4.331   5.859   3.575  0.4909  1.3671  1.3495
 3308TIP3   OH231338   3.543   1.058   2.368  0.9483 -0.1088  0.0882
 3308TIP3    H131339   3.612   1.064   2.302  0.1270  0.9892 -0.7207
 3308TIP3    H231340   3.587   1.075   2.451  2.3355 -3.2977  0.1245
 3309TIP3   OH231341   5.130   3.151   1.278 -0.5317 -0.5436  0.5631
 3309TIP3    H131342   5.180   3.117   1.204 -0.0985 -1.2329  1.1489
 3309TIP3    H231343   5.044   3.110   1.269 -1.5596  1.8050 -1.2901
 3310TIP3   OH231344   4.550   0.011   3.111  0.2681  0.2239 -0.0061
 3310TIP3    H131345   4.464   0.020   3.070  0.8546  1.6483 -0.9828
 3310TIP3    H231346   4.565  -0.084   3.115 -0.3422 -0.0010 -2.0018
 3311TIP3   OH231347   2.913   2.459   4.551 -0.1205  0.1292 -0.0071
 3311TIP3    H131348   2.906   2.548   4.515  1.1553  0.9213  1.5960
 3311TIP3    H231349   2.852   2.407   4.498  0.0078  1.6828 -1.7926
 3312TIP3   OH231350   5.272   2.458   3.313  0.4747  0.1575 -0.4567
 3312TIP3    H131351   5.181   2.463   3.341  1.1307 -1.2722  2.3488
 3312TIP3    H231352   5.294   2.547   3.286 -1.6768  0.5544 -1.0588
 3313TIP3   OH231353   0.561   2.720   0.679 -0.0413  0.1330 -0.2312
 3313TIP3    H131354   0.644   2.676   0.700  0.4512  0.7092 -0.9256
 3313TIP3    H231355   0.494   2.654   0.699  0.5083 -0.0531  1.1548
 3314TIP3   OH231356   3.372   5.146  16.893 -0.3182 -0.2844 -0.4812
 3314TIP3    H131357   3.452   5.130  16.943  0.7188 -1.2292 -2.3587
 3314TIP3    H231358   3.360   5.067  16.840 -1.2251  0.7575 -1.9062
 3315TIP3   OH231359   0.285   1.512  17.144  0.2384  0.3493  0.4467
 3315TIP3    H131360   0.267   1.441  17.082  0.6824 -0.1955  0.9313
 3315TIP3    H231361   0.380   1.519  17.146  0.1956  2.0772 -0.8268
 3316TIP3   OH231362   2.763   3.171   4.350 -0.1839  0.1797  0.4767
 3316TIP3    H131363   2.754   3.245   4.290  1.0146  0.3878  0.5256
 3316TIP3    H231364   2.850   3.182   4.390 -0.0792 -1.1072  0.6687
 3317TIP3   OH231365   6.771   5.237  12.868  0.1901  0.2754 -0.5599
 3317TIP3    H131366   6.823   5.259  12.946  0.9335  1.3009 -1.3279
 3317TIP3    H231367   6.740   5.148  12.885 -0.0531  0.6454  1.1104
 3318TIP3   OH231368   3.985   4.412  16.282 -0.6489  0.3167  0.1607
 3318TIP3    H131369   3.912   4.359  16.249  1.1516 -2.0966 -0.2968
 3318TIP3    H231370   4.016   4.364  16.359  1.6940  0.0722 -0.8537
 3319TIP3   OH231371   0.234   4.183  14.551 -0.1297 -0.4668 -0.2345
 3319TIP3    H131372   0.326   4.202  14.530 -0.3723  1.0452 -0.0502
 3319TIP3    H231373   0.236   4.096  14.591  1.2766 -0.3085  0.1050
 3320TIP3   OH231374   6.569   6.494  10.997  0.3118  0.5792 -0.2618
 3320TIP3    H131375   6.522   6.470  10.918 -2.3346  1.7122  0.8597
 3320TIP3    H231376   6.611   6.577  10.976 -1.3746  1.4927 -0.1748
 3321TIP3   OH231377   2.077   1.072   1.045 -0.3129  0.2744  0.4328
 3321TIP3    H131378   2.085   1.002   0.980 -1.5317  0.2525  0.2804
 3321TIP3    H231379   2.089   1.027   1.129  1.3539  0.3164  0.2535
 3322TIP3   OH231380   5.727   0.803  10.924  0.0807  0.0449 -0.1632
 3322TIP3    H131381   5.809   0.763  10.894  0.6182  0.8088  0.2530
 3322TIP3    H231382   5.704   0.864  10.855 -0.0831 -0.0880 -0.2268
 3323TIP3   OH231383   0.943   3.286   4.956  0.3923  0.8626  0.1641
 3323TIP3    H131384   0.874   3.302   5.020 -0.5533 -1.8310 -0.0470
 3323TIP3    H231385   0.901   3.231   4.889  2.4332  0.1091 -0.5738
 3324TIP3   OH231386   4.543   4.657   1.273 -0.7633 -0.0476 -0.3034
 3324TIP3    H131387   4.510   4.622   1.355  0.7372  0.4006  0.5160
 3324TIP3    H231388   4.477   4.722   1.246 -2.4960 -1.8661 -0.7533
 3325TIP3   OH231389   3.700   2.334   0.797 -0.0625  0.0575  0.1279
 3325TIP3    H131390   3.788   2.330   0.760  0.0973  2.1385  0.1732
 3325TIP3    H231391   3.710   2.299   0.886  0.3731 -1.1443 -0.3672
 3326TIP3   OH231392   6.395   2.575   5.248 -0.1405 -0.1440  0.2693
 3326TIP3    H131393   6.365   2.515   5.179 -1.0625 -3.0144  2.9722
 3326TIP3    H231394   6.472   2.532   5.285  1.0331  1.9182  0.4023
 3327TIP3   OH231395   4.925   3.595  10.609  0.2739 -0.4934  0.5761
 3327TIP3    H131396   4.964   3.565  10.691 -1.3669  3.7392  3.2111
 3327TIP3    H231397   4.835   3.564  10.611  0.7876 -2.3058 -0.9137
 3328TIP3   OH231398   0.477   3.310  12.073  0.1762  0.4757 -0.5170
 3328TIP3    H131399   0.474   3.215  12.087 -1.0412  0.6387  0.4849
 3328TIP3    H231400   0.451   3.320  11.981  2.1583 -0.2326 -1.2211
 3329TIP3   OH231401   2.999   4.089  12.475  0.1060  0.1949  0.1042
 3329TIP3    H131402   3.046   4.046  12.404 -1.6936 -0.4154 -0.7901
 3329TIP3    H231403   2.910   4.099  12.442 -1.1162 -1.1700  2.6965
 3330TIP3   OH231404   4.199   1.634   2.821 -0.0443  0.0062  0.4582
 3330TIP3    H131405   4.267   1.585   2.867 -0.2767 -0.5515  0.2295
 3330TIP3    H231406   4.154   1.683   2.889  1.9944  2.1806  0.3576
 3331TIP3   OH231407   5.311   1.686  12.953  0.5840 -0.2890  0.4614
 3331TIP3    H131408   5.221   1.655  12.944 -0.0743  1.7124 -0.2722
 3331TIP3    H231409   5.354   1.617  13.004 -1.4495 -1.0945  1.2260
 3332TIP3   OH231410   5.650   3.979  15.673  0.1822 -0.2460  0.9035
 3332TIP3    H131411   5.598   4.053  15.707  0.6434  1.8875 -2.5725
 3332TIP3    H231412   5.733   4.019  15.646  0.5231 -2.0750 -0.9438
 3333TIP3   OH231413   6.150   1.066   5.042  0.3798  0.2261  0.1805
 3333TIP3    H131414   6.105   0.988   5.012 -0.5188  0.4019  0.9887
 3333TIP3    H231415   6.095   1.139   5.011  0.6418  0.4869  0.3240
 3334TIP3   OH231416   4.262   3.575   2.259 -0.9276 -0.2347 -0.1485
 3334TIP3    H131417   4.261   3.669   2.241  0.3798 -0.0236  0.7702
 3334TIP3    H231418   4.264   3.534   2.173 -0.9662  0.5849 -0.5485
 3335TIP3   OH231419   6.130   3.963  11.347  0.0309 -0.0925 -0.4780
 3335TIP3    H131420   6.169   4.017  11.416 -0.1645 -1.0704  0.4294
 3335TIP3    H231421   6.047   3.933  11.385  1.1366 -2.8304 -0.0345
 3336TIP3   OH231422   2.726   0.960   2.566 -0.4423  0.4219 -0.0542
 3336TIP3    H131423   2.763   1.003   2.642  1.2203  0.9568 -1.1181
 3336TIP3    H231424   2.786   0.980   2.495 -1.8352 -0.2122 -1.4862
 3337TIP3   OH231425   4.315   2.491   1.135  0.1554  0.0936 -0.0525
 3337TIP3    H131426   4.284   2.567   1.184  1.2153  0.2988  0.3165
 3337TIP3    H231427   4.279   2.503   1.047 -1.6563 -0.2061  0.5982
 3338TIP3   OH231428   5.680   6.157   5.961  1.3093 -0.2004 -0.0740
 3338TIP3    H131429   5.620   6.148   5.888 -0.9535 -0.2940  1.6872
 3338TIP3    H231430   5.694   6.251   5.971 -1.6323  0.1615  1.7343
 3339TIP3   OH231431   5.828   2.730  14.614 -0.1768  0.2239  0.1234
 3339TIP3    H131432   5.777   2.686  14.682  0.1483  0.4492  0.5218
 3339TIP3    H231433   5.857   2.812  14.655  0.6257  0.0287 -0.0349
 3340TIP3   OH231434   4.740   3.391  15.542  0.2500 -0.1741  0.0126
 3340TIP3    H131435   4.830   3.407  15.515  0.2435 -0.4522 -0.1777
 3340TIP3    H231436   4.735   3.297  15.556 -0.4512 -0.4282 -1.6881
 3341TIP3   OH231437   5.299   1.154   4.326  0.3196  0.0047 -0.0855
 3341TIP3    H131438   5.328   1.181   4.239  0.7595 -0.5925 -0.1308
 3341TIP3    H231439   5.217   1.201   4.340  0.5956  0.6310 -0.5389
 3342TIP3   OH231440   0.822   3.527  15.420 -0.5421  0.3193  0.1300
 3342TIP3    H131441   0.817   3.605  15.365  2.3695  0.8525  0.4168
 3342TIP3    H231442   0.844   3.456  15.359 -0.8452  0.2055  0.1542
 3343TIP3   OH231443   4.891   0.180  15.515 -0.1575  0.6530 -0.0868
 3343TIP3    H131444   4.808   0.188  15.467 -0.7840  2.9466  1.2300
 3343TIP3    H231445   4.949   0.245  15.474  1.2419 -1.2587 -1.3161
 3344TIP3   OH231446   1.555   2.228   3.238 -0.4593 -0.2964  0.1800
 3344TIP3    H131447   1.629   2.212   3.178  1.6723  0.0127  2.5395
 3344TIP3    H231448   1.520   2.141   3.255 -0.4142 -0.4986 -0.6673
 3345TIP3   OH231449   1.289   2.450   5.103 -0.0687  0.4467 -0.8442
 3345TIP3    H131450   1.236   2.370   5.099 -0.8553  0.9035  0.1245
 3345TIP3    H231451   1.378   2.419   5.120 -0.4110 -0.2152 -0.1938
 3346TIP3   OH231452   1.959   5.400   0.732  0.0132 -0.2586  0.6912
 3346TIP3    H131453   1.952   5.308   0.704 -1.2679 -0.1726  0.6507
 3346TIP3    H231454   1.981   5.396   0.825 -0.6616 -0.6300  0.8429
 3347TIP3   OH231455   6.241   0.028   3.217  0.0670  0.6783  0.4168
 3347TIP3    H131456   6.235  -0.067   3.226  0.9048  0.7026  1.2720
 3347TIP3    H231457   6.334   0.046   3.212 -0.0979  1.4264 -0.1958
 3348TIP3   OH231458   3.055   3.612   2.637  0.0000 -0.2308 -0.1356
 3348TIP3    H131459   3.117   3.541   2.624  0.4048  0.0896  0.0186
 3348TIP3    H231460   3.022   3.600   2.725  1.3347  0.7296  0.5375
 3349TIP3   OH231461   2.988   3.501   2.883 -0.3400  0.0529 -0.0147
 3349TIP3    H131462   3.073   3.462   2.902 -0.1467  1.1489  1.5266
 3349TIP3    H231463   2.933   3.428   2.856  0.8852 -0.7724 -0.3432
 3350TIP3   OH231464   2.938   0.346  11.825  0.4220 -0.4778 -0.3283
 3350TIP3    H131465   2.957   0.419  11.884 -1.0148  1.2350 -1.8577
 3350TIP3    H231466   3.013   0.343  11.765  1.6076 -1.8534  1.1279
 3351TIP3   OH231467   1.703   4.084   2.267  0.3513 -0.7905 -0.1901
 3351TIP3    H131468   1.691   4.043   2.181 -1.5481  0.2945 -0.4923
 3351TIP3    H231469   1.796   4.071   2.287  1.4418  0.8970 -3.4478
 3352TIP3   OH231470   3.711   0.584  11.372  0.2827  0.4216 -0.0838
 3352TIP3    H131471   3.789   0.555  11.419 -0.1976  1.3192  1.3248
 3352TIP3    H231472   3.638   0.543  11.419 -0.1289 -0.2312 -1.2518
 3353TIP3   OH231473   6.339   1.996  13.252 -0.3415 -0.1565 -0.1914
 3353TIP3    H131474   6.336   1.955  13.165 -2.8771  0.5190 -0.4992
 3353TIP3    H231475   6.371   2.085  13.235 -3.8375  1.0731 -1.0371
 3354TIP3   OH231476   1.214   2.498   5.570 -0.2434  0.0875 -0.0130
 3354TIP3    H131477   1.186   2.504   5.479  0.2180  2.7582 -0.0420
 3354TIP3    H231478   1.148   2.548   5.618  1.1951  1.3786  0.6845
 3355TIP3   OH231479   2.928   5.293  17.067  0.0704  0.2046 -0.0632
 3355TIP3    H131480   2.993   5.223  17.071  0.0904  0.2804  1.1592
 3355TIP3    H231481   2.979   5.371  17.045 -0.0965 -0.3030 -2.6101
 3356TIP3   OH231482   1.316   0.480   6.343  0.3388  0.2040 -0.1148
 3356TIP3    H131483   1.277   0.556   6.387  1.2410  0.4763  0.2289
 3356TIP3    H231484   1.362   0.517   6.268  1.6268  0.1232  0.6153
 3357TIP3   OH231485   4.968   0.866   0.999  0.0025  0.1174 -0.1243
 3357TIP3    H131486   5.046   0.881   1.053  0.7087 -1.6937 -0.5483
 3357TIP3    H231487   4.939   0.778   1.023 -1.3425  0.3775 -0.6871
 3358TIP3   OH231488   3.527   3.604  12.281  0.2606 -0.1063  0.4428
 3358TIP3    H131489   3.599   3.557  12.323  1.4046  0.7173 -0.5272
 3358TIP3    H231490   3.537   3.585  12.188 -1.2552 -0.5865  0.3489
 3359TIP3   OH231491   0.623   5.484   3.440 -0.4184 -0.3097 -0.1807
 3359TIP3    H131492   0.584   5.439   3.365  0.2704  0.8809 -1.3096
 3359TIP3    H231493   0.599   5.576   3.428  2.7310  0.5367 -1.0271
 3360TIP3   OH231494   1.791   3.477   4.382  0.4535  0.0464  0.3365
 3360TIP3    H131495   1.776   3.486   4.476  2.5944 -2.0639  0.9858
 3360TIP3    H231496   1.709   3.443   4.347 -0.0387 -0.0904  1.5955
 3361TIP3   OH231497   4.036   2.058   4.652  0.1876  0.0885  0.1807
 3361TIP3    H131498   3.975   1.988   4.632  1.2286 -0.5460 -0.8898
 3361TIP3    H231499   4.075   2.034   4.736  1.0531 -0.9957 -0.5163
 3362TIP3   OH231500   2.928   1.270   6.226 -0.5147  0.0446 -0.0859
 3362TIP3    H131501   2.965   1.192   6.266 -0.8968 -0.7204 -1.1869
 3362TIP3    H231502   2.965   1.343   6.276 -0.8858 -0.8557  1.5745
 3363TIP3   OH231503   4.906   3.753   0.729 -0.3345  0.2651 -0.0742
 3363TIP3    H131504   4.922   3.751   0.823  0.7583  1.4542 -0.2057
 3363TIP3    H231505   4.939   3.668   0.698 -0.3565  0.0168  0.5681
 3364TIP3   OH231506   0.622   5.293   3.919 -0.3030 -0.2063  0.8089
 3364TIP3    H131507   0.546   5.238   3.900  0.4671 -0.3947 -2.4892
 3364TIP3    H231508   0.696   5.233   3.917  0.3446  0.5746 -0.8193
 3365TIP3   OH231509   5.370   5.893   0.002 -0.0824  0.0173 -0.2741
 3365TIP3    H131510   5.335   5.967  -0.047  0.4266  1.4410  1.4224
 3365TIP3    H231511   5.296   5.861   0.053  0.1782  0.7041  0.5554
 3366TIP3   OH231512   3.616   6.773   3.344  0.5636  0.0019  0.3146
 3366TIP3    H131513   3.577   6.763   3.257  2.7122 -0.4325 -0.6807
 3366TIP3    H231514   3.619   6.685   3.380 -0.6579  0.2289  1.0241
 3367TIP3   OH231515   2.945   4.215  14.566  0.0164 -0.2518 -0.0480
 3367TIP3    H131516   3.012   4.239  14.630  0.2565  0.0753 -0.4169
 3367TIP3    H231517   2.942   4.289  14.506 -0.5590 -0.3407 -0.1314
 3368TIP3   OH231518   4.467   3.761  11.804 -0.8903  0.0491  0.3522
 3368TIP3    H131519   4.395   3.740  11.863 -0.8358  0.2172  0.4783
 3368TIP3    H231520   4.471   3.687  11.744 -1.1720  0.0418  0.3400
 3369TIP3   OH231521   1.124   4.464  12.998  0.0197 -0.1258 -0.3285
 3369TIP3    H131522   1.173   4.510  13.067 -1.3309 -1.2073  1.4665
 3369TIP3    H231523   1.041   4.511  12.993 -0.1600 -0.4846 -0.7222
 3370TIP3   OH231524   2.405   2.053  16.049  0.1972 -0.9896 -0.1326
 3370TIP3    H131525   2.411   2.100  15.965 -1.4559  2.3648  1.4215
 3370TIP3    H231526   2.496   2.040  16.075  0.7387 -0.1315 -1.4749
 3371TIP3   OH231527   4.606   5.414   0.157  0.7828  0.0522 -0.3978
 3371TIP3    H131528   4.522   5.412   0.203  0.5754  0.0618 -0.7719
 3371TIP3    H231529   4.591   5.364   0.077  1.1663 -0.0394 -0.4172
 3372TIP3   OH231530   4.153   4.059  14.447 -0.2707 -0.3287  0.0435
 3372TIP3    H131531   4.086   4.127  14.449 -0.5473 -0.6025  0.3611
 3372TIP3    H231532   4.236   4.107  14.452 -0.4802 -0.0403  1.1985
 3373TIP3   OH231533   6.006   0.479  16.669 -0.5028  0.3980 -0.2937
 3373TIP3    H131534   5.945   0.435  16.729  0.0777 -0.5859 -0.3913
 3373TIP3    H231535   6.084   0.424  16.671 -0.5363  0.2282 -2.0981
 3374TIP3   OH231536   1.820   1.372  11.901  0.6307  0.2232 -0.2205
 3374TIP3    H131537   1.842   1.454  11.858  1.6486 -0.4312 -1.0183
 3374TIP3    H231538   1.789   1.397  11.987  1.0258  1.4359 -0.4136
 3375TIP3   OH231539   0.084   6.579   4.849  0.3166 -0.0075 -0.1364
 3375TIP3    H131540   0.157   6.565   4.910 -0.9035  0.0458  1.3878
 3375TIP3    H231541   0.040   6.495   4.844  0.0218  0.1612 -0.4347
 3376TIP3   OH231542   4.722   6.320   3.540  0.2527  0.4271 -0.0657
 3376TIP3    H131543   4.766   6.308   3.624  0.1736  1.3180  0.1099
 3376TIP3    H231544   4.630   6.332   3.562  0.5594  3.3933 -0.0113
 3377TIP3   OH231545   4.221   6.334  13.093  0.4683  0.7294 -0.1578
 3377TIP3    H131546   4.212   6.284  13.174 -1.5992 -0.0336 -0.7759
 3377TIP3    H231547   4.231   6.424  13.121 -0.6829  0.5303  0.9738
 3378TIP3   OH231548   0.052   2.351   1.258 -0.2998  0.0861 -0.6465
 3378TIP3    H131549   0.041   2.347   1.163  0.0338  0.2024 -0.6922
 3378TIP3    H231550   0.140   2.388   1.270 -0.6016  0.6838 -0.2854
 3379TIP3   OH231551   0.848   4.047  14.871 -0.5200 -0.6120 -0.1905
 3379TIP3    H131552   0.762   4.082  14.894  0.1239  0.6690  0.3483
 3379TIP3    H231553   0.866   3.980  14.937 -0.4945  0.1270  0.5693
 3380TIP3   OH231554   2.633   6.085  11.538 -0.0648  0.0335 -0.0451
 3380TIP3    H131555   2.583   6.081  11.619 -0.0818  1.4165  0.0457
 3380TIP3    H231556   2.652   6.178  11.526  1.2606 -0.3034 -0.8289
 3381TIP3   OH231557   2.499   2.327   1.905  0.8164 -0.6902 -0.0155
 3381TIP3    H131558   2.413   2.365   1.925  1.8916  0.2303  3.3793
 3381TIP3    H231559   2.498   2.242   1.949  1.5759 -0.7882 -0.1856
 3382TIP3   OH231560   0.570   5.961   3.452  0.7766  0.3122 -0.5159
 3382TIP3    H131561   0.652   5.984   3.407  0.4039  0.6906 -1.0157
 3382TIP3    H231562   0.596   5.942   3.542  1.5991 -0.8779 -0.9831
 3383TIP3   OH231563   6.544   1.059  16.643  0.3361  0.0436 -0.5637
 3383TIP3    H131564   6.492   0.979  16.631 -1.6479  0.9148  1.3957
 3383TIP3    H231565   6.624   1.030  16.686  0.4277 -1.0682 -1.4400
 3384TIP3   OH231566   0.200   1.649   4.138 -0.0341 -0.3837 -0.3565
 3384TIP3    H131567   0.106   1.646   4.155 -0.1945 -0.1573 -1.1567
 3384TIP3    H231568   0.239   1.597   4.208 -0.6715  0.3059  0.5422
 3385TIP3   OH231569   4.218   6.489  13.873  0.4886  0.1976  0.7485
 3385TIP3    H131570   4.167   6.531  13.942  0.2708  0.8786  0.1972
 3385TIP3    H231571   4.264   6.562  13.830 -0.0848 -0.0801 -0.3860
 3386TIP3   OH231572   3.704   2.872   1.323 -0.1064 -0.5546 -0.5808
 3386TIP3    H131573   3.630   2.811   1.316 -0.6792 -0.2709  2.0450
 3386TIP3    H231574   3.760   2.849   1.249 -1.8335 -2.1145 -1.5152
 3387TIP3   OH231575   6.130   6.094  16.048 -0.3858  0.0603 -0.3754
 3387TIP3    H131576   6.217   6.103  16.085 -0.5762  0.9779 -0.1165
 3387TIP3    H231577   6.137   6.022  15.985  0.1126 -1.0436  0.9043
 3388TIP3   OH231578   4.918   6.214   6.137  0.6913 -0.0703  0.1061
 3388TIP3    H131579   4.966   6.280   6.188 -1.5038  0.2597  1.8978
 3388TIP3    H231580   4.827   6.243   6.141  0.0472 -1.7379 -1.4630
 3389TIP3   OH231581   4.259   6.409   1.874 -0.4003 -0.0751 -0.4216
 3389TIP3    H131582   4.242   6.383   1.783  1.0773 -1.2288 -0.3862
 3389TIP3    H231583   4.301   6.333   1.914 -1.5349  0.1952  1.4181
 3390TIP3   OH231584   0.167   4.289  16.830  0.6528  0.1321  0.1317
 3390TIP3    H131585   0.161   4.362  16.892 -0.8040  1.3230 -1.3309
 3390TIP3    H231586   0.254   4.297  16.791  0.4356  1.2359 -0.1506
 3391TIP3   OH231587   2.348   5.427  16.895  0.5194  0.0019 -0.0027
 3391TIP3    H131588   2.303   5.477  16.963 -0.9076 -0.8952 -0.2525
 3391TIP3    H231589   2.382   5.493  16.835  0.3638  0.7360  0.6984
 3392TIP3   OH231590   4.995   0.458  11.377  0.4055 -0.0673  0.2331
 3392TIP3    H131591   4.956   0.373  11.396  1.3517 -0.3435  1.0091
 3392TIP3    H231592   5.049   0.478  11.453 -1.0662  2.0206  0.8315
 3393TIP3   OH231593   1.459   6.242   0.476 -0.1928 -0.0717 -0.6176
 3393TIP3    H131594   1.367   6.263   0.461 -0.1413 -0.1362 -1.0414
 3393TIP3    H231595   1.470   6.247   0.571 -0.3724  0.9856 -0.6455
 3394TIP3   OH231596   5.571   0.011   4.331  0.3677  0.1780  0.5223
 3394TIP3    H131597   5.548  -0.079   4.355  0.1419  0.0409 -0.1774
 3394TIP3    H231598   5.666   0.012   4.330  0.4158  0.4415  2.3116
 3395TIP3   OH231599   6.147   4.472  11.765  0.4721 -0.2715 -0.2079
 3395TIP3    H131600   6.142   4.493  11.858  0.8969 -2.4223  0.3544
 3395TIP3    H231601   6.215   4.406  11.759  0.8757  0.2597 -2.1641
 3396TIP3   OH231602   0.663   0.339   0.857  0.2023  0.5393  0.0975
 3396TIP3    H131603   0.598   0.408   0.862 -0.1310  0.2256  0.1384
 3396TIP3    H231604   0.631   0.272   0.918 -0.1214 -0.1835 -0.8594
 3397TIP3   OH231605   4.238   1.989  13.800 -0.2221  0.3832 -0.8294
 3397TIP3    H131606   4.158   1.942  13.821 -1.3670  1.6607 -2.1346
 3397TIP3    H231607   4.229   2.073  13.846  1.8155 -0.5639  1.5267
 3398TIP3   OH231608   1.396   4.159   0.830 -0.2387  0.2239  0.6505
 3398TIP3    H131609   1.310   4.201   0.827  1.2839  3.6330  0.5300
 3398TIP3    H231610   1.388   4.094   0.900 -2.3388  1.8702  2.0705
 3399TIP3   OH231611   3.160   0.177  11.446  0.4035 -0.8063  0.5672
 3399TIP3    H131612   3.219   0.101  11.454  0.6037 -0.8172 -0.8266
 3399TIP3    H231613   3.142   0.184  11.353  1.6199  1.7925  0.4330
 3400TIP3   OH231614   4.657   6.391  15.975  0.3056  0.2207  0.5028
 3400TIP3    H131615   4.672   6.483  15.953  2.6943 -0.2713 -0.2412
 3400TIP3    H231616   4.667   6.387  16.070  0.0911  0.7403  0.5510
 3401TIP3   OH231617   2.673   0.163  13.488  0.0866  0.1667  0.0128
 3401TIP3    H131618   2.589   0.178  13.531 -1.2041  1.4795 -2.7148
 3401TIP3    H231619   2.689   0.070  13.498 -2.1324 -0.2757 -0.0708
 3402TIP3   OH231620   5.014   2.647  12.205  0.3673 -0.0424 -0.0512
 3402TIP3    H131621   4.975   2.733  12.191 -0.8444 -0.2569  1.6837
 3402TIP3    H231622   4.951   2.586  12.167  0.1292 -0.2594  0.6714
 3403TIP3   OH231623   3.618   1.389   3.505 -0.1491 -0.3214  0.7217
 3403TIP3    H131624   3.534   1.434   3.500  0.2124  0.2932 -0.0741
 3403TIP3    H231625   3.634   1.356   3.417  0.6965  0.0566  0.7171
 3404TIP3   OH231626   5.393   3.053   3.629 -0.1854 -0.0022 -0.0731
 3404TIP3    H131627   5.451   2.996   3.679  0.6739 -0.5817 -1.6764
 3404TIP3    H231628   5.331   3.087   3.694  1.5008  0.0798  1.5680
 3405TIP3   OH231629   3.059   2.451  12.096  0.6731 -0.5388  0.8324
 3405TIP3    H131630   3.153   2.461  12.113  1.4986 -1.0078 -2.6446
 3405TIP3    H231631   3.031   2.536  12.063  1.0782 -1.5264 -2.4204
 3406TIP3   OH231632   6.345   1.408   5.663  0.4515  0.2276 -0.3817
 3406TIP3    H131633   6.282   1.341   5.687  1.6273 -0.6621  0.3133
 3406TIP3    H231634   6.430   1.364   5.664  1.2390  1.6608 -0.1229
 3407TIP3   OH231635   1.442   4.088   3.108 -0.2109  0.4437  0.2404
 3407TIP3    H131636   1.379   4.157   3.129 -1.1953 -0.7748  1.4798
 3407TIP3    H231637   1.406   4.009   3.149  1.7466 -0.4512  0.3411
 3408TIP3   OH231638   6.207   2.619  14.609  0.1236  0.2268  0.0664
 3408TIP3    H131639   6.169   2.677  14.675 -0.5571 -1.5566  1.3310
 3408TIP3    H231640   6.196   2.531  14.645  0.0214 -0.8150 -2.3034
 3409TIP3   OH231641   5.933   5.106   3.008  0.3995 -0.4024  0.4875
 3409TIP3    H131642   5.951   5.199   3.024 -1.3530  0.0627 -0.0039
 3409TIP3    H231643   5.991   5.082   2.936  0.9894  0.2489  0.7306
 3410TIP3   OH231644   5.997   3.205  13.709  0.0781 -1.0756 -0.1314
 3410TIP3    H131645   5.911   3.238  13.681  0.9428  1.5133  0.0480
 3410TIP3    H231646   6.047   3.197  13.628  0.5440  0.2500 -0.0070
 3411TIP3   OH231647   1.726   5.467  16.935 -0.0721 -0.4077  0.2309
 3411TIP3    H131648   1.805   5.502  16.894  0.2398  0.0228  1.1545
 3411TIP3    H231649   1.656   5.525  16.906 -0.4604 -1.9920 -2.2614
 3412TIP3   OH231650   2.634   4.212  14.683 -0.0160 -0.1537  0.0626
 3412TIP3    H131651   2.704   4.200  14.747 -0.6704 -0.6339  0.7187
 3412TIP3    H231652   2.589   4.128  14.681 -0.3872  0.0540 -0.5710
 3413TIP3   OH231653   2.674   4.885   5.895 -0.4313 -0.2339 -0.0811
 3413TIP3    H131654   2.644   4.794   5.887 -0.4690 -0.4083  1.6616
 3413TIP3    H231655   2.593   4.937   5.895 -0.4357 -0.2380 -0.5878
 3414TIP3   OH231656   1.226   0.851   3.733 -0.3217 -0.2510  0.0640
 3414TIP3    H131657   1.142   0.819   3.699  0.1830 -1.1171 -0.3945
 3414TIP3    H231658   1.247   0.926   3.677 -1.3760  0.7541  0.9672
 3415TIP3   OH231659   5.017   3.176   4.126 -0.7881 -0.1607  0.4960
 3415TIP3    H131660   4.937   3.220   4.098 -0.4157  0.2198  0.0086
 3415TIP3    H231661   5.014   3.091   4.082 -0.0165  0.5822 -1.0737
 3416TIP3   OH231662   5.032   4.443  15.794 -0.2753 -1.0824  0.0741
 3416TIP3    H131663   5.046   4.503  15.720  0.6836 -1.0613  0.2494
 3416TIP3    H231664   4.954   4.477  15.838 -0.2972 -0.5227 -0.3739
 3417TIP3   OH231665   1.852   0.332   3.789 -0.3122  0.0300  0.0741
 3417TIP3    H131666   1.867   0.406   3.848 -1.2601  0.3778 -0.1019
 3417TIP3    H231667   1.757   0.323   3.785 -0.2998  0.3251 -1.7742
 3418TIP3   OH231668   1.769   1.078   4.286  0.3881 -0.9115  0.1762
 3418TIP3    H131669   1.767   1.173   4.290 -0.3709 -0.9303  0.2958
 3418TIP3    H231670   1.831   1.052   4.355  2.2849 -0.4380 -1.2413
 3419TIP3   OH231671   1.713   5.717  16.504  0.0795 -0.4558 -0.1282
 3419TIP3    H131672   1.792   5.705  16.452 -0.3856  1.8416 -1.5518
 3419TIP3    H231673   1.675   5.798  16.470 -2.4851 -1.0795  1.0339
 3420TIP3   OH231674   1.430   1.481  12.658  0.3108  0.0800 -0.2511
 3420TIP3    H131675   1.445   1.403  12.605  2.1391  1.3062 -1.6783
 3420TIP3    H231676   1.337   1.500  12.647 -0.0472 -1.5328 -0.3240
 3421TIP3   OH231677   1.801   2.983   5.929 -0.3452 -0.0607  0.8094
 3421TIP3    H131678   1.726   3.007   5.984 -0.1071  2.0257  0.2886
 3421TIP3    H231679   1.791   2.889   5.915 -3.3392  0.2959  0.0325
 3422TIP3   OH231680   6.228   4.308   1.732  0.6604  0.3028 -0.6467
 3422TIP3    H131681   6.285   4.357   1.673 -2.6243  1.7905 -2.9130
 3422TIP3    H231682   6.184   4.376   1.784 -0.3300 -0.6163 -0.2413
 3423TIP3   OH231683   2.071   1.597   5.584 -0.3945  0.2293  0.9307
 3423TIP3    H131684   2.144   1.626   5.638 -0.9987 -2.3484  3.3807
 3423TIP3    H231685   1.996   1.597   5.643 -1.4229 -1.3851 -0.2824
 3424TIP3   OH231686   4.725   3.756  16.193  0.3142  0.4147 -0.4331
 3424TIP3    H131687   4.685   3.770  16.278  1.9419 -0.9762  0.6407
 3424TIP3    H231688   4.706   3.665  16.172  1.2582  0.2895 -0.7936
 3425TIP3   OH231689   2.585   2.908  15.216  0.2693 -0.1302 -1.0070
 3425TIP3    H131690   2.605   2.817  15.235 -0.5692 -0.1954 -0.3674
 3425TIP3    H231691   2.528   2.905  15.138  1.6963 -0.0187 -2.0974
 3426TIP3   OH231692   6.756   5.121  14.696 -0.2576  0.4370 -0.7827
 3426TIP3    H131693   6.700   5.045  14.712  0.6864 -0.3173 -0.9520
 3426TIP3    H231694   6.781   5.113  14.604  1.1905  0.0109 -0.3746
 3427TIP3   OH231695   6.013   4.125  12.371 -0.8710  0.0433 -0.0078
 3427TIP3    H131696   5.940   4.161  12.423 -1.8515  0.0443 -1.3326
 3427TIP3    H231697   6.062   4.071  12.433 -0.3296  2.2826  1.6279
 3428TIP3   OH231698   2.835   4.244   3.912 -0.1522 -0.2182  0.2336
 3428TIP3    H131699   2.930   4.240   3.922 -0.1294 -1.5165 -0.3089
 3428TIP3    H231700   2.821   4.304   3.839  0.2810 -0.3434  0.0454
 3429TIP3   OH231701   4.161   3.954   4.101  0.5652 -0.2322 -0.7416
 3429TIP3    H131702   4.110   3.892   4.153  2.4736 -1.6814 -0.4455
 3429TIP3    H231703   4.206   4.008   4.166  0.0235  0.5235 -0.9820
 3430TIP3   OH231704   2.717   5.776   4.363 -0.2444 -1.0371 -0.2614
 3430TIP3    H131705   2.638   5.748   4.408  0.0721 -0.1401  0.9184
 3430TIP3    H231706   2.780   5.706   4.379 -0.3833 -1.1032  0.0144
 3431TIP3   OH231707   0.511   1.845  16.077  0.1505  0.2838 -0.5341
 3431TIP3    H131708   0.574   1.836  16.148  0.7881  1.4342 -0.9332
 3431TIP3    H231709   0.433   1.798  16.108  0.8703 -0.3654  0.3428
 3432TIP3   OH231710   2.152   0.044  11.767 -0.1110 -0.2102 -0.0389
 3432TIP3    H131711   2.103   0.084  11.695  0.9595 -0.7386 -1.0923
 3432TIP3    H231712   2.149   0.109  11.837  1.9215  1.9987 -1.8242
 3433TIP3   OH231713   5.347   1.473  11.247 -0.2359  0.3890 -0.4611
 3433TIP3    H131714   5.357   1.383  11.214  1.5855  0.8544 -1.2766
 3433TIP3    H231715   5.370   1.528  11.173  2.8740  1.4823  1.1521
 3434TIP3   OH231716   1.050   3.598   2.558  0.2236 -0.2288  0.1561
 3434TIP3    H131717   1.097   3.600   2.642 -0.2233  0.4276  0.4006
 3434TIP3    H231718   1.119   3.581   2.493  0.7746  0.4900  0.5322
 3435TIP3   OH231719   3.515   3.556  15.085 -0.4115 -0.0508  0.5797
 3435TIP3    H131720   3.572   3.500  15.137  0.1853  1.1537  1.2621
 3435TIP3    H231721   3.573   3.599  15.022 -1.0761 -1.2425 -0.9305
 3436TIP3   OH231722   1.914   2.252   1.201  0.1929 -0.0731 -0.0180
 3436TIP3    H131723   1.845   2.287   1.258 -0.1951  0.8334 -1.0064
 3436TIP3    H231724   1.906   2.157   1.210 -2.0781 -0.0613 -1.0655
 3437TIP3   OH231725   4.983   4.888  11.022 -0.3109 -0.8107 -0.2490
 3437TIP3    H131726   5.013   4.879  10.931  0.0635 -1.2312 -0.0856
 3437TIP3    H231727   4.903   4.941  11.015  0.3259  0.1220 -0.7091
 3438TIP3   OH231728   1.379   0.411  12.326 -0.1520  0.2804 -0.1670
 3438TIP3    H131729   1.426   0.473  12.271 -1.3358  0.6972 -0.7416
 3438TIP3    H231730   1.446   0.375  12.384  0.5607  2.1761  0.2749
 3439TIP3   OH231731   0.370   1.667  11.085  0.2700 -0.6369  0.0341
 3439TIP3    H131732   0.298   1.671  11.148  0.4565 -0.3507  0.2333
 3439TIP3    H231733   0.328   1.645  11.002 -0.0721 -0.3091  0.1155
 3440TIP3   OH231734   4.270   1.057   4.067 -0.0374  0.3781  0.5322
 3440TIP3    H131735   4.199   1.024   4.012 -0.2439  0.1262  0.9430
 3440TIP3    H231736   4.228   1.080   4.150  0.5542 -0.9962  1.2437
 3441TIP3   OH231737   2.756   3.336  11.155 -0.2474 -0.0557 -0.3538
 3441TIP3    H131738   2.815   3.287  11.097  0.2866  0.3879 -0.1910
 3441TIP3    H231739   2.732   3.413  11.104 -0.1465  0.1009 -0.1661
 3442TIP3   OH231740   5.905   0.302  14.919  0.0320 -0.3061  0.1309
 3442TIP3    H131741   5.948   0.369  14.865  1.2643 -1.4191 -0.2903
 3442TIP3    H231742   5.816   0.336  14.930 -0.3465 -0.0876 -2.7466
 3443TIP3   OH231743   6.317   1.733  17.049 -0.5730 -0.2276  1.0592
 3443TIP3    H131744   6.377   1.664  17.078  0.5048  0.0408 -0.4018
 3443TIP3    H231745   6.341   1.810  17.102  0.9699  0.1018 -0.0590
 3444TIP3   OH231746   5.556   0.047  16.367 -0.2992  0.0450  0.3849
 3444TIP3    H131747   5.552   0.030  16.461 -0.5827  1.1052  0.5705
 3444TIP3    H231748   5.646   0.075  16.351 -0.3949  0.3843  0.4347
 3445TIP3   OH231749   2.374   0.317  11.604 -0.4559  0.5736 -0.2515
 3445TIP3    H131750   2.357   0.392  11.547 -0.0490  0.6377 -0.2944
 3445TIP3    H231751   2.373   0.353  11.693  1.4207  0.9824 -0.3486
 3446TIP3   OH231752   6.527   1.150   2.678  0.6384  0.1431  0.4980
 3446TIP3    H131753   6.611   1.146   2.632  0.3516  1.7491 -0.2251
 3446TIP3    H231754   6.509   1.060   2.703  0.8630 -0.7944 -2.4413
 3447TIP3   OH231755   0.085   0.568  16.670  0.2877  0.6696 -0.2368
 3447TIP3    H131756   0.081   0.477  16.700  0.5698  0.7277 -0.0212
 3447TIP3    H231757  -0.006   0.598  16.674  0.3361  0.7282  0.7309
 3448TIP3   OH231758   5.981   1.214   4.131  0.2234  0.1166 -0.3594
 3448TIP3    H131759   6.029   1.146   4.085 -0.8814 -0.8886 -0.0533
 3448TIP3    H231760   6.048   1.263   4.177  1.1127 -0.2596 -1.2204
 3449TIP3   OH231761   2.921   3.211   2.449 -0.5639 -0.0176  0.0496
 3449TIP3    H131762   3.002   3.255   2.426 -0.4637 -0.1387  0.1716
 3449TIP3    H231763   2.922   3.130   2.397 -1.1271  0.4993 -0.7920
 3450TIP3   OH231764   5.949   5.156  11.866  0.2723  0.2554 -0.3957
 3450TIP3    H131765   5.969   5.091  11.798 -0.7890 -0.4543 -0.0730
 3450TIP3    H231766   5.872   5.202  11.832  0.3552  0.5894 -0.1306
 3451TIP3   OH231767   3.820   1.451  15.606 -0.4583  0.0188  0.1824
 3451TIP3    H131768   3.862   1.532  15.635 -0.0130 -0.6448  1.4888
 3451TIP3    H231769   3.886   1.406  15.554  0.7342 -1.2328  2.5993
 3452TIP3   OH231770   1.181   2.504   0.432 -0.0998 -0.0529 -0.0254
 3452TIP3    H131771   1.135   2.493   0.349  1.0255 -1.2969 -0.5038
 3452TIP3    H231772   1.177   2.599   0.449 -1.2954  0.0798 -0.9143
 3453TIP3   OH231773   5.703   5.407  14.976  0.4493  1.4381 -0.2343
 3453TIP3    H131774   5.690   5.482  15.034 -1.2802  0.1651  1.1418
 3453TIP3    H231775   5.678   5.439  14.889  0.4056  2.6296  0.2053
 3454TIP3   OH231776   4.269   4.693  15.508 -0.1634 -0.1104 -0.7929
 3454TIP3    H131777   4.312   4.759  15.455  0.3822 -0.0646 -0.2985
 3454TIP3    H231778   4.232   4.741  15.582  0.1465 -0.3371 -0.4856
 3455TIP3   OH231779   1.740   5.640  16.200 -0.3953 -0.3754 -0.1046
 3455TIP3    H131780   1.674   5.693  16.245 -0.0606  0.3676 -0.4571
 3455TIP3    H231781   1.812   5.632  16.263 -0.2463  0.0111 -0.2202
 3456TIP3   OH231782   0.506   4.977   6.607  0.5666 -0.3730 -1.0971
 3456TIP3    H131783   0.467   4.903   6.562  0.6339 -0.8659 -0.3575
 3456TIP3    H231784   0.589   4.991   6.563  1.1129 -1.5222 -0.4705
 3457TIP3   OH231785   1.495   1.102   4.228  0.3340  0.8061  0.2197
 3457TIP3    H131786   1.590   1.100   4.237  0.3500 -2.2547  0.4924
 3457TIP3    H231787   1.480   1.114   4.135  1.1043 -0.5967 -0.1269
 3458TIP3   OH231788   6.317   1.529   1.018  0.8389  0.5760 -0.1510
 3458TIP3    H131789   6.316   1.462   0.949 -0.2651  0.6602 -0.2341
 3458TIP3    H231790   6.398   1.577   1.002  1.5664 -0.6234 -0.1939
 3459TIP3   OH231791   4.404   4.775   6.280  0.2788  0.1199  0.2435
 3459TIP3    H131792   4.362   4.689   6.279  0.6972 -0.1017  0.8392
 3459TIP3    H231793   4.390   4.810   6.193 -1.3454  0.1521  0.4953
 3460TIP3   OH231794   0.817   5.801  13.892  0.5755 -0.0145  0.5714
 3460TIP3    H131795   0.874   5.869  13.857  0.0318  0.3135  0.3185
 3460TIP3    H231796   0.830   5.804  13.986  1.8038 -0.6802  0.4541
 3461TIP3   OH231797   0.641   2.357  10.866  0.2013  0.0152 -0.5991
 3461TIP3    H131798   0.635   2.265  10.842  2.0592 -0.3660  0.1850
 3461TIP3    H231799   0.735   2.376  10.863 -0.0350  1.5412  0.4820
 3462TIP3   OH231800   0.810   5.714  10.845  0.0924 -0.4221 -0.2353
 3462TIP3    H131801   0.879   5.700  10.779 -0.3493 -1.8731 -0.4227
 3462TIP3    H231802   0.730   5.685  10.802 -0.4196 -0.0832  0.4833
 3463TIP3   OH231803   5.891   3.588  13.565  0.0555  0.8051 -0.1854
 3463TIP3    H131804   5.860   3.549  13.483  1.9441  1.2967 -1.1990
 3463TIP3    H231805   5.852   3.676  13.566  0.4740  1.0112 -0.8782
 3464TIP3   OH231806   1.597   6.121   2.331  0.2242 -0.0173 -0.2846
 3464TIP3    H131807   1.632   6.033   2.318  0.5309 -0.2595  1.7893
 3464TIP3    H231808   1.659   6.179   2.287  0.1884 -0.8106 -1.3952
 3465TIP3   OH231809   2.555   6.692  12.429  0.2455  0.0101  0.8147
 3465TIP3    H131810   2.623   6.664  12.489  0.2310 -0.8327  0.4476
 3465TIP3    H231811   2.556   6.627  12.359  0.0285  0.7735  0.0750
 3466TIP3   OH231812   4.623   4.644  15.749  0.2208  0.4710 -0.0516
 3466TIP3    H131813   4.559   4.696  15.797  1.4656  1.5173  0.5249
 3466TIP3    H231814   4.642   4.695  15.670  1.0809  0.6912  0.2793
 3467TIP3   OH231815   0.028   6.571   6.183  0.1567 -0.4207 -0.2826
 3467TIP3    H131816  -0.038   6.606   6.123  0.3211  1.8684  0.7410
 3467TIP3    H231817  -0.023   6.526   6.251 -0.3487  0.7640  0.1490
 3468TIP3   OH231818   2.997   6.658   0.911  0.5501  0.0955  0.6699
 3468TIP3    H131819   2.971   6.711   0.987  0.0050 -0.4862  0.8960
 3468TIP3    H231820   2.956   6.573   0.926  1.2484 -0.3311  0.2055
 3469TIP3   OH231821   3.274   6.422  13.689  0.4657  0.6774  0.1172
 3469TIP3    H131822   3.210   6.395  13.624  1.2025  0.2847 -0.4620
 3469TIP3    H231823   3.334   6.348  13.695  1.1012  1.2022  0.3377
 3470TIP3   OH231824   0.954   6.173  15.154 -0.0296  0.0036  0.0779
 3470TIP3    H131825   0.906   6.201  15.076 -0.8456 -0.0290  0.5670
 3470TIP3    H231826   0.952   6.249  15.212 -2.8853 -1.1842  1.7188
 3471TIP3   OH231827   2.797   5.826  16.648 -0.0187 -0.0194 -1.0309
 3471TIP3    H131828   2.861   5.895  16.631  0.9940 -1.0290 -1.3852
 3471TIP3    H231829   2.761   5.849  16.734  1.2373  0.2649 -0.5501
 3472TIP3   OH231830   5.522   0.555  16.635 -0.5693  0.4914 -0.0196
 3472TIP3    H131831   5.432   0.585  16.647 -0.3359  2.2547 -2.0819
 3472TIP3    H231832   5.576   0.629  16.665  0.0858  0.7908 -1.7899
 3473TIP3   OH231833   1.907   6.501   1.457  0.3128 -0.7815 -0.3734
 3473TIP3    H131834   1.927   6.412   1.429  1.0679 -0.4438 -0.9494
 3473TIP3    H231835   1.847   6.534   1.389 -1.3206 -1.3830  0.7097
 3474TIP3   OH231836   0.617   5.195   1.875 -0.3954 -0.1618  0.3965
 3474TIP3    H131837   0.640   5.263   1.811  0.1018 -0.1907  0.5437
 3474TIP3    H231838   0.701   5.167   1.911 -0.6256 -0.6460  0.5539
 3475TIP3   OH231839   1.429   5.331   2.101  0.3351  0.1586 -0.3107
 3475TIP3    H131840   1.379   5.403   2.139 -1.2791 -0.6102 -0.9103
 3475TIP3    H231841   1.469   5.287   2.177 -0.9191  0.0574  0.3136
 3476TIP3   OH231842   3.468   5.857   4.201  0.3333  0.6162  0.4984
 3476TIP3    H131843   3.524   5.918   4.250  1.8599 -1.7989  1.9328
 3476TIP3    H231844   3.380   5.872   4.238  0.9670  0.8259  1.9896
 3477TIP3   OH231845   5.296   5.134  13.708  0.2561 -0.3529 -0.0699
 3477TIP3    H131846   5.326   5.074  13.640 -0.0463 -0.5594 -0.0226
 3477TIP3    H231847   5.280   5.078  13.784  0.6760 -0.1129  0.1995
 3478TIP3   OH231848   5.247   4.155   6.428  0.3821  0.1597 -0.2491
 3478TIP3    H131849   5.186   4.128   6.360  0.7233  0.6877 -0.7754
 3478TIP3    H231850   5.196   4.212   6.485  0.0629 -0.3829  0.0228
 3479TIP3   OH231851   2.564   5.626  12.509  0.4124 -0.4443 -0.2334
 3479TIP3    H131852   2.469   5.632  12.499  0.2798 -0.3093  0.9917
 3479TIP3    H231853   2.587   5.540  12.474  0.3504  0.8940 -3.9786
 3480TIP3   OH231854   2.601   3.351   1.350  0.1343 -0.1336  0.1590
 3480TIP3    H131855   2.564   3.264   1.364 -0.1568 -0.1943 -0.8459
 3480TIP3    H231856   2.694   3.341   1.367  0.2265 -0.8443 -0.6691
 3481TIP3   OH231857   3.259   5.491  14.611 -0.0857  0.0558  0.2039
 3481TIP3    H131858   3.278   5.448  14.694  0.7085  1.3891  0.7618
 3481TIP3    H231859   3.170   5.465  14.589 -0.6988  0.5106  2.0321
 3482TIP3   OH231860   0.861   6.147   1.503 -0.3741  0.0948  0.3435
 3482TIP3    H131861   0.854   6.198   1.583 -1.9478  0.8019 -0.1897
 3482TIP3    H231862   0.861   6.213   1.433 -1.3324 -0.5780 -0.3106
 3483TIP3   OH231863   5.656   6.076  16.341 -0.6548 -0.9026 -0.4377
 3483TIP3    H131864   5.727   6.015  16.321 -0.4985 -0.3141 -1.7616
 3483TIP3    H231865   5.640   6.122  16.259 -2.0219 -0.4505  0.0564
 3484TIP3   OH231866   6.223   1.192  14.245  0.1821  0.4392  0.2986
 3484TIP3    H131867   6.147   1.166  14.193  1.3223  0.0789 -1.2473
 3484TIP3    H231868   6.298   1.160  14.196  1.6218  4.5083 -0.5429
 3485TIP3   OH231869   0.184   4.794  13.923  0.9526  0.7825  0.2374
 3485TIP3    H131870   0.248   4.838  13.866 -1.5317  1.1146 -2.5029
 3485TIP3    H231871   0.190   4.702  13.900  1.5604  0.5637  1.2064
 3486TIP3   OH231872   0.912   0.328   2.323 -0.0507  0.0029 -0.2723
 3486TIP3    H131873   0.946   0.282   2.247 -0.2344 -1.0470  0.2650
 3486TIP3    H231874   0.972   0.402   2.335  0.9202 -0.7389 -0.4704
 3487TIP3   OH231875   4.374   2.519   5.665  0.1588  0.3140  0.4324
 3487TIP3    H131876   4.374   2.573   5.744  2.4677  2.7171 -1.0516
 3487TIP3    H231877   4.323   2.569   5.601  2.8365  1.2320 -1.1595
 3488TIP3   OH231878   5.471   3.879  12.643 -0.5512 -0.9255 -0.8957
 3488TIP3    H131879   5.525   3.850  12.717 -3.5893 -3.0992  0.7173
 3488TIP3    H231880   5.438   3.965  12.669 -0.5517 -1.0936 -0.3316
 3489TIP3   OH231881   4.037   0.199   1.472 -0.4634  0.5440 -0.2696
 3489TIP3    H131882   3.973   0.146   1.424 -1.2954  0.6707  0.6750
 3489TIP3    H231883   4.045   0.155   1.557 -2.1690  2.5971  1.0611
 3490TIP3   OH231884   6.150   0.643   1.811 -0.4052  0.5090  0.1628
 3490TIP3    H131885   6.118   0.676   1.726 -0.1671 -0.5528 -0.3519
 3490TIP3    H231886   6.115   0.705   1.875 -1.0511  1.0205 -0.6631
 3491TIP3   OH231887   0.916   2.230  11.074  0.5375 -0.0604  0.1467
 3491TIP3    H131888   0.971   2.153  11.060  0.5588  0.3901 -2.6638
 3491TIP3    H231889   0.832   2.209  11.032 -0.7707  0.1074  2.4941
 3492TIP3   OH231890   4.739   1.504  14.481  0.2730 -0.5425 -0.4219
 3492TIP3    H131891   4.822   1.518  14.527 -0.3449  2.0648  0.0790
 3492TIP3    H231892   4.699   1.429  14.525  2.2829 -1.7855 -0.6150
 3493TIP3   OH231893   0.192   5.752  14.316 -0.9573 -0.0062  0.3079
 3493TIP3    H131894   0.252   5.824  14.336 -1.3208 -0.0314  1.6022
 3493TIP3    H231895   0.105   5.789  14.331 -1.1210 -1.2034  3.0499
 3494TIP3   OH231896   6.054   1.014   6.429 -0.4955 -0.1043 -0.2840
 3494TIP3    H131897   6.141   0.981   6.454  0.1016 -0.9240 -3.1303
 3494TIP3    H231898   6.028   1.070   6.502  3.1984  1.6085 -0.0671
 3495TIP3   OH231899   2.365   0.112  13.019 -0.1045 -0.0108  0.3301
 3495TIP3    H131900   2.449   0.068  13.008 -0.4283 -0.7383  0.6845
 3495TIP3    H231901   2.301   0.040  13.028 -0.8133  0.5216 -0.2723
 3496TIP3   OH231902   2.916   6.764   1.612  0.0410 -0.4114  0.6311
 3496TIP3    H131903   2.858   6.714   1.670 -1.5740  1.6317  0.8793
 3496TIP3    H231904   2.873   6.759   1.526  1.0728 -1.3003  0.1527
 3497TIP3   OH231905   6.223   1.607  12.913 -0.8361 -0.0114  0.5127
 3497TIP3    H131906   6.139   1.598  12.959 -1.3761  3.3899  0.4951
 3497TIP3    H231907   6.207   1.571  12.826 -1.4001 -1.7994  1.3085
 3498TIP3   OH231908   4.778   6.000   1.859 -0.1140 -0.2735 -0.2313
 3498TIP3    H131909   4.833   5.992   1.937  0.6929 -0.2677 -0.7820
 3498TIP3    H231910   4.692   5.971   1.888  0.0308  0.2710  0.8045
 3499TIP3   OH231911   3.815   6.568  16.846 -0.2606 -0.5508 -0.3575
 3499TIP3    H131912   3.907   6.556  16.869 -0.5934 -1.1417  0.7147
 3499TIP3    H231913   3.811   6.657  16.810  0.5848 -0.2217  0.3255
 3500TIP3   OH231914   5.759   0.946  16.990 -0.1209  0.0485  0.0772
 3500TIP3    H131915   5.783   1.039  16.994 -0.3292  0.2375 -1.9682
 3500TIP3    H231916   5.703   0.932  17.067  1.7549  1.0199  1.6905
 3501TIP3   OH231917   0.651   5.529   5.920  0.2177  0.0110  0.0053
 3501TIP3    H131918   0.720   5.465   5.939 -0.6290 -0.5735  1.2484
 3501TIP3    H231919   0.649   5.586   5.997 -1.2158 -0.4850  0.3669
 3502TIP3   OH231920   0.961   3.365   1.605  0.2726 -0.4706  0.0664
 3502TIP3    H131921   1.013   3.284   1.611  2.3193  0.8832  3.0526
 3502TIP3    H231922   0.870   3.335   1.606  0.9196 -2.8147 -2.0475
 3503TIP3   OH231923   5.252   5.848   0.884 -0.1958 -0.2570 -0.2264
 3503TIP3    H131924   5.225   5.933   0.849  0.2022  0.4530  1.0948
 3503TIP3    H231925   5.204   5.840   0.967  1.3631 -0.3046  0.7246
 3504TIP3   OH231926   2.508   6.188   3.266 -0.3150  0.0077  0.0546
 3504TIP3    H131927   2.416   6.176   3.287  0.0123 -0.3644  1.4388
 3504TIP3    H231928   2.520   6.144   3.182 -1.1325 -1.0840  0.4842
 3505TIP3   OH231929   6.021   0.945   3.707  0.5226  0.6606 -0.0203
 3505TIP3    H131930   5.958   0.875   3.687 -0.1888  1.0930  0.6412
 3505TIP3    H231931   6.061   0.919   3.790  2.6065 -0.5390 -1.3166
 3506TIP3   OH231932   1.212   3.337  15.247 -0.3498  0.4285  0.6958
 3506TIP3    H131933   1.229   3.307  15.337 -0.6190 -0.0538  0.5865
 3506TIP3    H231934   1.290   3.311  15.198 -0.0916  0.9138  0.8368
 3507TIP3   OH231935   0.359   6.283  14.935 -0.0879 -0.3450  0.5456
 3507TIP3    H131936   0.436   6.279  14.992  0.3618  0.9384  0.0526
 3507TIP3    H231937   0.338   6.376  14.929  0.1166 -0.3930 -1.6855
 3508TIP3   OH231938   4.893   2.737   5.380  0.1746 -0.2661  0.1749
 3508TIP3    H131939   4.973   2.698   5.416  1.3600 -0.3456 -2.2842
 3508TIP3    H231940   4.877   2.813   5.434  1.5348 -0.6326  1.1542
 3509TIP3   OH231941   1.652   0.343   4.895 -0.0900  0.4306 -0.5022
 3509TIP3    H131942   1.631   0.329   4.802  0.5971  1.7472 -0.8802
 3509TIP3    H231943   1.570   0.324   4.941 -0.1391 -1.3694 -1.2417
 3510TIP3   OH231944   3.051   5.087   3.085  0.2932 -0.2395 -0.1496
 3510TIP3    H131945   2.965   5.111   3.052 -0.5652 -2.9736 -0.1484
 3510TIP3    H231946   3.105   5.077   3.006 -0.0474 -0.7610 -0.3198
 3511TIP3   OH231947   5.555   4.400   4.726  0.6342  0.2936 -0.1582
 3511TIP3    H131948   5.463   4.414   4.704  0.3777  1.9506  1.6486
 3511TIP3    H231949   5.561   4.307   4.747 -1.0923  0.4840  1.4669
 3512TIP3   OH231950   4.728   2.051  13.972  0.2641 -0.2606 -0.3878
 3512TIP3    H131951   4.790   2.016  14.036 -2.0314  0.8877  2.7866
 3512TIP3    H231952   4.648   2.000  13.986 -0.7289  0.9709 -1.3143
 3513TIP3   OH231953   5.015   5.201  10.670 -0.1224 -0.5559  0.7100
 3513TIP3    H131954   5.072   5.277  10.667 -1.2650  0.3077 -1.3620
 3513TIP3    H231955   5.056   5.137  10.612 -0.8833 -0.1939 -0.2425
 3514TIP3   OH231956   3.097   4.729   0.186  0.1719  0.4788 -0.4135
 3514TIP3    H131957   3.093   4.795   0.116  1.4680  0.6593 -0.3427
 3514TIP3    H231958   3.026   4.752   0.245  0.2081  1.4288 -0.7250
 3515TIP3   OH231959   5.453   0.978  10.931 -0.4357 -0.6496 -0.1067
 3515TIP3    H131960   5.534   1.017  10.964 -0.8331  0.0303  0.0807
 3515TIP3    H231961   5.405   0.952  11.009 -1.2791  0.7603 -0.1381
 3516TIP3   OH231962   5.248   4.000   5.378 -0.8049  0.0514  0.2038
 3516TIP3    H131963   5.165   4.047   5.369 -1.1628 -0.4331  0.8258
 3516TIP3    H231964   5.306   4.039   5.314 -1.3554  0.7672  0.1378
 3517TIP3   OH231965   1.589   1.502  14.636 -0.0364 -0.1968 -0.0142
 3517TIP3    H131966   1.660   1.438  14.627 -0.3380 -0.2803 -2.3971
 3517TIP3    H231967   1.509   1.450  14.630 -0.3053  0.1180  0.7228
 3518TIP3   OH231968   0.971   3.817  13.644 -0.0931  0.1717  0.0989
 3518TIP3    H131969   0.973   3.739  13.588  2.5451 -0.1182  0.4648
 3518TIP3    H231970   0.902   3.798  13.708 -1.6856 -0.4201 -1.6884
 3519TIP3   OH231971   4.066   1.140  10.867 -0.5114  0.0100  0.1440
 3519TIP3    H131972   4.060   1.159  10.773 -0.0280  0.8298  0.2735
 3519TIP3    H231973   4.066   1.225  10.909 -1.4596 -0.3735  0.9498
 3520TIP3   OH231974   1.371   5.163  11.650 -0.1268 -0.4533 -0.3661
 3520TIP3    H131975   1.380   5.101  11.578  0.1452  0.0449 -0.7592
 3520TIP3    H231976   1.277   5.161  11.671 -0.5250  0.6314 -1.8460
 3521TIP3   OH231977   6.191   4.020   4.034 -0.3500 -0.2324  0.1713
 3521TIP3    H131978   6.180   4.109   4.002 -1.5635 -0.6372 -0.6027
 3521TIP3    H231979   6.177   3.964   3.957  0.4469 -1.0925  0.6269
 3522TIP3   OH231980   2.508   3.403  11.618  0.2468 -0.2152  0.4183
 3522TIP3    H131981   2.529   3.479  11.672  1.8290  1.0102 -1.7305
 3522TIP3    H231982   2.593   3.365  11.595 -0.3826 -1.0541 -0.6564
 3523TIP3   OH231983   0.819   4.839  15.189 -0.3768 -0.2450  0.4948
 3523TIP3    H131984   0.903   4.835  15.143 -0.8518  1.4115 -0.5910
 3523TIP3    H231985   0.775   4.758  15.166  0.4774 -0.6291  0.1801
 3524TIP3   OH231986   1.660   4.176   0.052 -0.4465 -0.0862 -0.4211
 3524TIP3    H131987   1.733   4.233   0.074 -1.7565  1.6025 -0.3174
 3524TIP3    H231988   1.702   4.095   0.022  1.5119  1.3732 -1.9299
 3525TIP3   OH231989   1.043   6.512  16.838 -0.0544  0.2694 -0.5268
 3525TIP3    H131990   1.053   6.595  16.791 -0.1232  0.2970 -0.4918
 3525TIP3    H231991   0.948   6.503  16.851  0.0664  1.0514  1.0505
 3526TIP3   OH231992   4.508   3.170   1.359 -0.0150 -0.0882  0.4355
 3526TIP3    H131993   4.568   3.181   1.433 -0.5019  2.4561  0.5278
 3526TIP3    H231994   4.457   3.251   1.356  1.5281  1.0500 -4.0562
 3527TIP3   OH231995   4.079   2.151  11.241  0.2306  0.0128  0.7285
 3527TIP3    H131996   4.061   2.228  11.188 -0.0402 -1.4729 -1.4339
 3527TIP3    H231997   4.173   2.157  11.262  0.3377  0.6207  0.0897
 3528TIP3   OH231998   0.471   4.424  11.180 -0.6605 -0.4524 -0.0457
 3528TIP3    H131999   0.380   4.413  11.209 -0.2568 -2.7567  0.5418
 3528TIP3    H232000   0.523   4.392  11.254  0.5956 -0.4048 -0.8891
 3529TIP3   OH232001   1.799   5.980   4.414  0.0936  0.0526  0.1155
 3529TIP3    H132002   1.721   5.933   4.443  0.8603 -1.6645 -0.4914
 3529TIP3    H232003   1.871   5.921   4.434  0.8853 -0.1014 -2.8121
 3530TIP3   OH232004   3.535   5.427  12.833  0.0279 -0.2771  0.6167
 3530TIP3    H132005   3.600   5.474  12.885 -0.3142 -0.4916  1.2497
 3530TIP3    H232006   3.452   5.470  12.854 -0.3043 -1.2046  1.2709
 3531TIP3   OH232007   2.514   3.381  16.734  0.0014 -0.3564 -0.4131
 3531TIP3    H132008   2.514   3.393  16.639  0.6295 -0.9678 -0.4982
 3531TIP3    H232009   2.580   3.314  16.749  2.2379  1.9483  0.7397
 3532TIP3   OH232010   0.845   5.856   0.679 -0.3322 -0.3707  0.0259
 3532TIP3    H132011   0.856   5.814   0.764 -0.2949 -1.7824 -0.6523
 3532TIP3    H232012   0.908   5.812   0.622 -0.6203  0.2965 -0.8274
 3533TIP3   OH232013   3.432   0.479  14.108 -0.1123 -0.1439 -0.8267
 3533TIP3    H132014   3.423   0.387  14.081  1.1806 -0.0046 -1.8202
 3533TIP3    H232015   3.456   0.474  14.201 -2.8205 -0.6851 -0.0629
 3534TIP3   OH232016   1.348   2.478  14.813  0.2201  0.3056  0.2185
 3534TIP3    H132017   1.256   2.457  14.795  0.6890  0.1621 -2.3041
 3534TIP3    H232018   1.363   2.561  14.768  1.6081 -0.2426 -0.3826
 3535TIP3   OH232019   2.795   1.251  12.271  0.1270  0.5820  0.1504
 3535TIP3    H132020   2.806   1.197  12.349 -2.5595  0.4281  0.5168
 3535TIP3    H232021   2.876   1.303  12.266  2.8833 -3.3334 -0.2435
 3536TIP3   OH232022   4.036   5.740  11.246 -0.1976  0.8412  0.6992
 3536TIP3    H132023   4.044   5.693  11.162  1.3770  0.0612  1.2497
 3536TIP3    H232024   4.052   5.832  11.223  1.2342  0.5163  0.2515
 3537TIP3   OH232025   2.058   4.749   1.001  0.5978 -0.4297  0.0345
 3537TIP3    H132026   1.990   4.807   1.035 -0.7406 -1.5739 -0.6165
 3537TIP3    H232027   2.082   4.787   0.916 -0.6781 -1.0754 -0.6508
 3538TIP3   OH232028   6.094   6.756  12.683  0.1470 -0.1213  0.9703
 3538TIP3    H132029   6.083   6.764  12.589 -1.6473  0.4801  1.1825
 3538TIP3    H232030   6.155   6.683  12.694  0.1411 -0.4135 -0.6454
 3539TIP3   OH232031   4.136   1.054  16.625 -0.3033 -0.1348  0.2934
 3539TIP3    H132032   4.096   1.141  16.622 -1.4130 -0.6099  1.0952
 3539TIP3    H232033   4.106   1.015  16.707  0.6921 -1.0503  0.2568
 3540TIP3   OH232034   5.864   4.761  17.014  0.2881 -0.3691  0.0235
 3540TIP3    H132035   5.810   4.827  17.058  2.7998  1.1756  0.9502
 3540TIP3    H232036   5.876   4.795  16.925  0.2969 -0.3926  0.0167
 3541TIP3   OH232037   6.139   2.629   2.751 -0.1784 -0.6434  0.1250
 3541TIP3    H132038   6.158   2.614   2.844  0.9663 -0.6705 -0.0960
 3541TIP3    H232039   6.189   2.708   2.729 -2.6394  1.0409  0.1938
 3542TIP3   OH232040   0.449   4.555  14.626  0.0728  0.1224 -0.5698
 3542TIP3    H132041   0.476   4.492  14.559  2.2782  0.0152  0.3393
 3542TIP3    H232042   0.435   4.636  14.578  1.0553 -0.1016 -1.2773
 3543TIP3   OH232043   1.507   0.142  11.710 -0.0514  1.1203  0.3420
 3543TIP3    H132044   1.481   0.073  11.771  0.9547 -0.1834 -0.6423
 3543TIP3    H232045   1.442   0.210  11.722 -0.7795  0.2265  1.7357
 3544TIP3   OH232046   1.373   2.951  10.287 -0.0731  0.4716 -0.2445
 3544TIP3    H132047   1.452   2.898  10.286 -0.2308  0.2216  0.1584
 3544TIP3    H232048   1.325   2.925  10.208  1.0692  1.9120 -1.4627
 3545TIP3   OH232049   3.955   4.666   1.524  1.2696 -0.0876 -0.3270
 3545TIP3    H132050   3.910   4.634   1.445  0.0033  0.0216  0.3312
 3545TIP3    H232051   4.006   4.590   1.554  3.3367  0.4148 -2.2925
 3546TIP3   OH232052   3.346   1.359   0.792 -0.1288 -0.2629 -0.9169
 3546TIP3    H132053   3.263   1.343   0.837  0.2849 -0.3324 -0.1623
 3546TIP3    H232054   3.370   1.274   0.756  0.5198 -0.6856  0.4408
 3547TIP3   OH232055   2.753   5.902   5.285 -0.6637 -0.8576  0.1751
 3547TIP3    H132056   2.743   5.943   5.371  0.0290 -2.9942  1.3270
 3547TIP3    H232057   2.696   5.825   5.288 -1.4662 -0.4109 -1.7158
 3548TIP3   OH232058   4.397   6.793   6.142  0.1578  0.0310 -0.0722
 3548TIP3    H132059   4.478   6.827   6.104 -0.3531  0.2010 -1.0212
 3548TIP3    H232060   4.361   6.866   6.192  0.8711 -0.2191  0.8391
 3549TIP3   OH232061   4.305   1.843  16.535 -0.2315  0.1858  0.2908
 3549TIP3    H132062   4.345   1.797  16.609 -0.4600  0.4290  0.5676
 3549TIP3    H232063   4.377   1.892  16.495 -0.2874  0.7859  0.9113
 3550TIP3   OH232064   2.088   4.291   5.151 -0.5003  0.2424  0.2388
 3550TIP3    H132065   2.064   4.342   5.074 -1.3831  2.5594  1.9309
 3550TIP3    H232066   2.154   4.229   5.120 -0.6653  1.2490 -2.2969
 3551TIP3   OH232067   2.589   4.295   4.170 -0.0308 -0.0229  0.4319
 3551TIP3    H132068   2.597   4.389   4.157  0.8011 -0.1508 -0.1453
 3551TIP3    H232069   2.676   4.261   4.148 -1.0256 -1.2029 -2.0440
 3552TIP3   OH232070   5.332   6.247  11.128 -0.0652 -0.2452  0.6091
 3552TIP3    H132071   5.308   6.326  11.080  1.3358 -1.2345 -1.8809
 3552TIP3    H232072   5.397   6.276  11.192  1.2891  0.5429 -1.0338
 3553TIP3   OH232073   6.290   1.739   5.229 -0.0994  0.4187 -0.1900
 3553TIP3    H132074   6.367   1.752   5.174 -0.7766 -2.6972 -2.1116
 3553TIP3    H232075   6.306   1.655   5.273 -1.4514  0.7890  1.0836
 3554TIP3   OH232076   2.150   0.323   4.756  0.3505  0.0939 -0.4334
 3554TIP3    H132077   2.126   0.385   4.688 -0.6848  3.4248  2.6326
 3554TIP3    H232078   2.069   0.306   4.804  1.1110 -1.7397  0.3221
 3555TIP3   OH232079   3.921   5.193  14.530  0.3541  0.5860 -0.0942
 3555TIP3    H132080   3.871   5.267  14.563 -1.9772 -0.6153 -0.7491
 3555TIP3    H232081   3.866   5.154  14.462  1.1422 -2.1767  0.7115
 3556TIP3   OH232082   2.492   0.417   6.091 -0.2687  0.2076 -0.4536
 3556TIP3    H132083   2.537   0.382   6.168 -0.0838  0.5325 -0.4118
 3556TIP3    H232084   2.478   0.510   6.111  0.5559  0.5083 -1.1584
 3557TIP3   OH232085   3.943   3.623  15.501 -0.0888 -0.2148  0.3039
 3557TIP3    H132086   4.028   3.667  15.502  0.1102 -0.5784  1.6853
 3557TIP3    H232087   3.881   3.693  15.480  0.6073 -0.1481 -1.8127
 3558TIP3   OH232088   4.236   5.751  16.314 -0.1099  0.4660 -0.3639
 3558TIP3    H132089   4.298   5.762  16.386 -1.7828  0.1668  1.1971
 3558TIP3    H232090   4.156   5.718  16.356 -0.2047 -2.7930 -2.7225
 3559TIP3   OH232091   6.587   4.407  16.587  0.1280  0.4629 -0.4511
 3559TIP3    H132092   6.679   4.395  16.566  0.7011  0.5139  1.8103
 3559TIP3    H232093   6.586   4.477  16.652 -1.3812 -0.4852  0.5984
 3560TIP3   OH232094   4.174   4.372  12.921  0.0766  0.5380  0.1490
 3560TIP3    H132095   4.166   4.413  12.835  0.8257  0.2077 -0.0809
 3560TIP3    H232096   4.199   4.444  12.979  0.6867  0.5536 -0.1229
 3561TIP3   OH232097   1.485   1.894  14.467 -0.2125 -0.2326  0.5178
 3561TIP3    H132098   1.408   1.837  14.465 -0.1157 -0.3481 -0.2322
 3561TIP3    H232099   1.526   1.881  14.382 -0.0849  0.8254  0.4021
 3562TIP3   OH232100   2.386   3.905   4.625 -0.2284  0.8164 -0.2036
 3562TIP3    H132101   2.431   3.926   4.707 -0.7880 -0.2658  0.3947
 3562TIP3    H232102   2.369   3.811   4.630 -2.4989  1.1700 -0.4130
 3563TIP3   OH232103   4.244   2.239  13.236  0.2305  0.5311  0.6539
 3563TIP3    H132104   4.286   2.164  13.279 -0.5206 -0.4807 -0.3300
 3563TIP3    H232105   4.168   2.202  13.192  0.0730  1.8152 -0.1923
 3564TIP3   OH232106   1.201   2.552  11.345 -0.5590  0.1564  0.0694
 3564TIP3    H132107   1.206   2.646  11.363  0.2099  0.4229 -1.4237
 3564TIP3    H232108   1.112   2.538  11.313 -0.7054  0.3479  0.3890
 3565TIP3   OH232109   2.562   1.598  13.288  0.0652 -0.4943 -0.2281
 3565TIP3    H132110   2.581   1.550  13.207 -2.0316  1.4628 -2.0157
 3565TIP3    H232111   2.575   1.690  13.265 -0.3512  0.1081  1.7521
 3566TIP3   OH232112   3.969   5.567  13.711  0.7208  0.2265 -0.1848
 3566TIP3    H132113   4.040   5.564  13.647 -0.4048 -0.3453 -1.4300
 3566TIP3    H232114   3.889   5.559  13.660 -0.1755 -2.0792  1.4234
 3567TIP3   OH232115   4.138   1.827  17.138 -0.5415  0.4463  0.0952
 3567TIP3    H132116   4.115   1.860  17.051  1.3246  0.9465 -0.2574
 3567TIP3    H232117   4.138   1.905  17.194  2.1992  0.8973 -0.3766
 3568TIP3   OH232118   5.263   0.834  16.436 -0.0659  0.1439 -0.1715
 3568TIP3    H132119   5.355   0.810  16.446  0.1903  0.3737 -1.7592
 3568TIP3    H232120   5.220   0.753  16.409 -0.4223 -0.0518  0.9172
 3569TIP3   OH232121   0.441   4.158   1.002 -0.6027  0.6644  0.0412
 3569TIP3    H132122   0.365   4.171   1.058 -1.0394 -0.8163 -0.1527
 3569TIP3    H232123   0.492   4.090   1.047 -0.7095 -0.1913 -1.0800
 3570TIP3   OH232124   0.483   0.409   0.436 -0.1898  0.2421 -0.0761
 3570TIP3    H132125   0.407   0.395   0.379 -0.1316 -0.6739  0.0626
 3570TIP3    H232126   0.551   0.441   0.377  0.0518 -1.2449 -0.6640
 3571TIP3   OH232127   2.402   0.442  13.484 -0.0673  0.8940  0.1433
 3571TIP3    H132128   2.489   0.482  13.478  0.3427  0.2234  1.2321
 3571TIP3    H232129   2.400   0.378  13.412  0.0766  1.3723 -0.2922
 3572TIP3   OH232130   6.414   2.525  13.550  0.1191  0.5375  0.0590
 3572TIP3    H132131   6.343   2.461  13.550  0.7040 -0.1272 -0.0406
 3572TIP3    H232132   6.422   2.551  13.642  0.1359  0.1749  0.1630
 3573TIP3   OH232133   2.227   3.140   6.390  0.0301 -0.4010 -0.4383
 3573TIP3    H132134   2.175   3.183   6.322 -1.0512  1.5817  1.4984
 3573TIP3    H232135   2.167   3.079   6.432  0.3523 -0.7907 -0.5406
 3574TIP3   OH232136   6.791   6.353   6.408  0.1925  0.1553  0.1115
 3574TIP3    H132137   6.705   6.380   6.441  1.7047  1.6778  3.1568
 3574TIP3    H232138   6.772   6.279   6.350 -3.2255  1.0589 -0.1571
 3575TIP3   OH232139   2.814   5.510   4.079 -0.1801  0.2810 -0.0519
 3575TIP3    H132140   2.770   5.507   3.994 -0.6682  2.6763  0.0251
 3575TIP3    H232141   2.743   5.521   4.142  0.2571 -0.3165  0.5583
 3576TIP3   OH232142   1.682   5.957  16.380 -0.5197  0.0078  0.3498
 3576TIP3    H132143   1.636   6.024  16.331  0.2240  0.7168  0.5953
 3576TIP3    H232144   1.742   6.005  16.437  2.8164 -0.8317 -2.1226
 3577TIP3   OH232145   0.069   1.826   5.046  0.2976  0.0839  0.6380
 3577TIP3    H132146   0.081   1.766   4.972 -2.1157  0.0601  0.1740
 3577TIP3    H232147   0.017   1.777   5.109  2.1586  0.1835  2.3308
 3578TIP3   OH232148   5.645   4.128  15.012 -0.0886 -0.0288 -0.9631
 3578TIP3    H132149   5.738   4.154  15.013  0.2213 -1.1044  0.6418
 3578TIP3    H232150   5.602   4.199  14.965  1.4156  0.9698 -0.9245
 3579TIP3   OH232151   3.592   1.167   5.802 -0.3253  0.7618 -0.2315
 3579TIP3    H132152   3.566   1.156   5.893 -0.5153  1.3547 -0.2103
 3579TIP3    H232153   3.554   1.251   5.776 -0.8026  0.2987 -1.0475
 3580TIP3   OH232154   5.698   0.292   2.954 -0.0006 -0.6578  0.6152
 3580TIP3    H132155   5.699   0.332   2.867  0.1688 -0.6500  0.6216
 3580TIP3    H232156   5.621   0.330   2.997 -0.3569 -1.0185  0.3012
 3581TIP3   OH232157   3.904   5.224  11.448  0.4146 -0.1450  0.6278
 3581TIP3    H132158   3.916   5.299  11.390  0.8098 -0.6908 -0.0024
 3581TIP3    H232159   3.969   5.236  11.517  1.5147 -0.6838 -0.2872
 3582TIP3   OH232160   1.854   1.357   5.156  0.0461 -0.0511  0.4103
 3582TIP3    H132161   1.933   1.406   5.179 -0.2614  0.0902  1.2103
 3582TIP3    H232162   1.834   1.306   5.235  0.3157 -1.4286 -0.3756
 3583TIP3   OH232163   2.522   4.227  13.606 -0.2014 -0.9706 -0.0929
 3583TIP3    H132164   2.449   4.271  13.562  0.4540 -1.0384 -1.2794
 3583TIP3    H232165   2.541   4.281  13.683 -2.3992 -1.7018  1.0523
 3584TIP3   OH232166   0.293   1.561   6.145  0.2332  0.2713  0.0841
 3584TIP3    H132167   0.304   1.646   6.188  3.1841  0.2159 -0.3675
 3584TIP3    H232168   0.289   1.499   6.217  0.9561  0.5522  0.3741
 3585TIP3   OH232169   6.187   2.854   2.585 -0.6477 -0.3559 -0.3075
 3585TIP3    H132170   6.214   2.942   2.609 -1.6202  0.6425 -2.5732
 3585TIP3    H232171   6.259   2.820   2.532 -0.0088 -1.2123  1.0458
 3586TIP3   OH232172   0.432   4.459   2.429 -0.5977 -0.3162 -0.8768
 3586TIP3    H132173   0.446   4.374   2.388 -0.4738 -0.4871 -0.4829
 3586TIP3    H232174   0.427   4.440   2.523 -0.2449  0.1526 -0.7599
 3587TIP3   OH232175   5.638   3.037  12.760  0.1041  0.1187  0.4829
 3587TIP3    H132176   5.604   3.021  12.848 -0.7502  0.2996  0.1895
 3587TIP3    H232177   5.561   3.061  12.708  0.6127  0.0966 -0.2957
 3588TIP3   OH232178   1.959   2.944   2.695 -0.3077 -0.3264 -0.2435
 3588TIP3    H132179   1.933   3.035   2.686 -0.2868 -0.2341  0.6185
 3588TIP3    H232180   2.048   2.941   2.659  0.4362  0.3892  1.4625
 3589TIP3   OH232181   4.610   0.356  16.437 -0.5496  0.1112  0.4568
 3589TIP3    H132182   4.611   0.431  16.496  0.0520  0.4346  0.0438
 3589TIP3    H232183   4.701   0.329  16.430 -0.5795  0.2348 -0.5201
 3590TIP3   OH232184   4.347   0.654   4.512  0.1785  0.2797 -0.2298
 3590TIP3    H132185   4.370   0.713   4.441  0.1780  0.3164 -0.1993
 3590TIP3    H232186   4.431   0.632   4.553  0.1922  0.1561 -0.3232
 3591TIP3   OH232187   2.983   6.000   2.740 -0.7814 -0.4131 -0.0762
 3591TIP3    H132188   2.928   6.071   2.704  0.1004  0.4596  0.2708
 3591TIP3    H232189   3.066   6.042   2.761 -0.9161 -1.0945  2.0830
 3592TIP3   OH232190   2.829   0.525  15.271 -0.2996  0.6674 -0.2854
 3592TIP3    H132191   2.897   0.519  15.205 -1.5162 -0.9603 -1.4654
 3592TIP3    H232192   2.871   0.498  15.352  0.9130  1.5515 -0.5949
 3593TIP3   OH232193   6.216   3.521  15.215 -0.1114  0.7733  0.0982
 3593TIP3    H132194   6.302   3.563  15.214 -0.1637  0.8807 -0.8943
 3593TIP3    H232195   6.168   3.566  15.284  0.7821  0.3972  0.9801
 3594TIP3   OH232196   3.585   0.415  14.985 -0.9017 -0.4074 -0.0377
 3594TIP3    H132197   3.521   0.471  15.029 -0.7266 -0.6302  0.5053
 3594TIP3    H232198   3.647   0.391  15.054 -0.3193 -0.3154 -0.5265
 3595TIP3   OH232199   2.947   1.053  14.171  0.1428 -0.5409 -0.3443
 3595TIP3    H132200   2.998   1.102  14.236 -0.8003 -1.1038  0.8705
 3595TIP3    H232201   2.968   0.961  14.190  1.2549 -0.6741 -2.0535
 3596TIP3   OH232202   4.171   6.388   1.602  0.1398 -0.2429 -0.0311
 3596TIP3    H132203   4.095   6.371   1.658  0.5565 -1.2137  0.2524
 3596TIP3    H232204   4.134   6.398   1.514 -0.5113  1.2294  0.3769
 3597TIP3   OH232205   3.859   1.470  13.610 -0.1619  0.6017  0.5787
 3597TIP3    H132206   3.909   1.419  13.547 -0.2680  0.5818  0.5105
 3597TIP3    H232207   3.768   1.462  13.581 -0.1426  1.1136  0.3655
 3598TIP3   OH232208   0.081   4.854   0.913 -0.2372 -0.4223  0.6363
 3598TIP3    H132209   0.153   4.812   0.961 -1.1082 -1.2840  1.2219
 3598TIP3    H232210   0.025   4.781   0.886 -2.7488  0.3740  3.2043
 3599TIP3   OH232211   4.288   4.397   1.310 -0.5611  0.3772 -0.4657
 3599TIP3    H132212   4.252   4.486   1.304 -1.9150 -0.0788  0.3159
 3599TIP3    H232213   4.211   4.342   1.321  0.3943 -0.6664  1.3452
 3600TIP3   OH232214   5.843   4.512   0.770 -0.2563 -0.1070 -0.0991
 3600TIP3    H132215   5.839   4.460   0.850 -0.7493 -0.4919 -0.3694
 3600TIP3    H232216   5.816   4.600   0.798  0.4966 -0.0100  0.3400
 3601TIP3   OH232217   4.505   5.610   0.801  0.2451 -0.7531  0.2154
 3601TIP3    H132218   4.537   5.697   0.780 -2.1417  0.1282 -0.0497
 3601TIP3    H232219   4.580   5.552   0.783  1.3450  1.0163 -1.2987
 3602TIP3   OH232220   3.044   3.248   4.094  0.0828  0.6755 -0.2612
 3602TIP3    H132221   3.037   3.212   4.182  1.0312 -1.1396 -0.8850
 3602TIP3    H232222   3.083   3.334   4.106  2.9787 -0.6995  0.9202
 3603TIP3   OH232223   6.564   1.102   1.876  0.4605  0.4044 -0.0043
 3603TIP3    H132224   6.610   1.178   1.912  0.2878 -0.3060  1.8005
 3603TIP3    H232225   6.475   1.110   1.909  0.2746 -0.2535 -0.3326
 3604TIP3   OH232226   2.832   3.733   5.304 -0.2578 -0.0127 -0.0264
 3604TIP3    H132227   2.907   3.789   5.321 -0.3688 -0.1113  0.8017
 3604TIP3    H232228   2.763   3.793   5.277 -0.2611  0.2098  0.4765
 3605TIP3   OH232229   6.002   2.291   4.502  0.1394  0.0205 -0.1476
 3605TIP3    H132230   6.039   2.266   4.418 -0.1838 -1.0439  0.0067
 3605TIP3    H232231   6.073   2.280   4.564  0.2125  0.2192 -0.1978
 3606TIP3   OH232232   5.464   5.695   6.305 -0.3478 -0.7530 -0.4109
 3606TIP3    H132233   5.462   5.787   6.331 -0.5988 -0.6050 -0.9178
 3606TIP3    H232234   5.550   5.683   6.265 -0.2167 -0.8036 -0.1088
 3607TIP3   OH232235   3.776   5.322   5.449 -0.2962  0.7079  0.1844
 3607TIP3    H132236   3.743   5.255   5.389  1.7487 -0.9452  0.7879
 3607TIP3    H232237   3.697   5.362   5.486 -1.6250 -1.6569  0.1140
 3608TIP3   OH232238   0.702   3.128   3.733  0.5001  0.0548 -0.0159
 3608TIP3    H132239   0.617   3.147   3.694  0.4126 -1.0128 -0.4000
 3608TIP3    H232240   0.751   3.209   3.726 -0.0786  0.3470 -0.8852
 3609TIP3   OH232241   5.328   0.073   5.262 -0.5982 -0.3214  0.6446
 3609TIP3    H132242   5.362  -0.017   5.269 -0.1495 -0.2891 -0.9124
 3609TIP3    H232243   5.404   0.128   5.281 -0.1996 -0.2638 -1.0400
 3610TIP3   OH232244   2.513   0.969  14.047  0.3312  0.3978 -0.2899
 3610TIP3    H132245   2.539   0.881  14.020  0.0538  0.1693  0.1769
 3610TIP3    H232246   2.583   0.998  14.104 -0.7205 -0.4943  1.5407
 3611TIP3   OH232247   2.484   3.739  11.810  0.1912  0.0977 -0.6404
 3611TIP3    H132248   2.490   3.745  11.715 -0.7841 -0.2589 -0.7330
 3611TIP3    H232249   2.571   3.765  11.841  0.4281  0.5055 -1.6089
 3612TIP3   OH232250   6.628   0.062  14.643 -0.4933 -0.1615 -0.4532
 3612TIP3    H132251   6.706   0.079  14.696 -1.0987 -0.7851  0.6865
 3612TIP3    H232252   6.555   0.074  14.704 -1.0915 -4.2851 -0.0860
 3613TIP3   OH232253   1.430   4.189   3.470  0.5166  0.3802 -0.4043
 3613TIP3    H132254   1.448   4.195   3.564 -1.7027 -0.8949  0.1718
 3613TIP3    H232255   1.479   4.112   3.441 -1.2411 -1.1704  0.4712
 3614TIP3   OH232256   6.538   6.620  14.375  0.2046 -0.2764 -0.3050
 3614TIP3    H132257   6.493   6.665  14.446  1.5884  0.7984 -0.0801
 3614TIP3    H232258   6.557   6.689  14.311  0.6152 -0.9030 -0.8725
 3615TIP3   OH232259   2.783   4.821   2.069  0.3203  0.2145  0.3478
 3615TIP3    H132260   2.703   4.862   2.100  0.1735  0.2757 -0.1047
 3615TIP3    H232261   2.765   4.797   1.978  0.6819 -0.1191  0.3565
 3616TIP3   OH232262   4.563   4.592  11.835 -0.0782 -0.2025  0.0827
 3616TIP3    H132263   4.492   4.528  11.827  0.2958 -0.6225  0.0922
 3616TIP3    H232264   4.627   4.550  11.892  0.6242 -0.2370 -0.7104
 3617TIP3   OH232265   0.739   1.836   1.099 -0.4704  0.3046  0.0276
 3617TIP3    H132266   0.741   1.745   1.129 -1.0341  0.0018 -0.8197
 3617TIP3    H232267   0.830   1.861   1.089 -0.2609  0.3171  1.6722
 3618TIP3   OH232268   4.662   0.941  12.334 -0.0449 -0.1059  0.2564
 3618TIP3    H132269   4.653   0.848  12.357  0.7122 -0.5778 -1.2491
 3618TIP3    H232270   4.588   0.958  12.276  1.0749 -0.4004 -1.3018
 3619TIP3   OH232271   3.737   6.456   1.259 -0.4804 -0.0369 -0.3232
 3619TIP3    H132272   3.653   6.454   1.211 -0.3758 -0.3044 -0.5040
 3619TIP3    H232273   3.714   6.483   1.347 -0.5272  1.6048 -0.8196
 3620TIP3   OH232274   5.203   6.503  14.458  0.0405  0.1213 -0.1451
 3620TIP3    H132275   5.202   6.584  14.407  1.4469  0.6204  0.5746
 3620TIP3    H232276   5.181   6.435  14.394  0.1557  0.9177 -1.0668
 3621TIP3   OH232277   6.453   5.046  12.552 -0.0739  0.0834  0.4086
 3621TIP3    H132278   6.489   4.982  12.492 -0.0612  0.6747 -0.2257
 3621TIP3    H232279   6.407   4.994  12.618  0.1065 -0.5799  0.0189
 3622TIP3   OH232280   2.701   5.560  14.780 -0.4840 -0.3067 -0.2233
 3622TIP3    H132281   2.732   5.490  14.722 -2.1955  0.0764 -1.6828
 3622TIP3    H232282   2.618   5.529  14.813 -1.2683  0.9824 -0.8766
 3623TIP3   OH232283   1.688   0.827  16.293 -0.2575 -0.1883 -0.1199
 3623TIP3    H132284   1.667   0.782  16.210 -1.6138  0.4785 -0.1631
 3623TIP3    H232285   1.748   0.897  16.267 -0.9795  0.2608 -0.6083
 3624TIP3   OH232286   6.466   6.478   4.343  0.1903 -0.0748 -0.6706
 3624TIP3    H132287   6.387   6.480   4.288  0.5738 -0.2245 -1.2432
 3624TIP3    H232288   6.504   6.391   4.326 -0.5833 -0.8146  1.1425
 3625TIP3   OH232289   5.327   6.789  13.481  0.9007 -0.2491 -0.4120
 3625TIP3    H132290   5.340   6.878  13.513 -0.4315  0.1878 -1.0279
 3625TIP3    H232291   5.236   6.787  13.453  1.4816 -1.1692 -2.3690
 3626TIP3   OH232292   1.905   5.680   4.419 -0.1392  0.0903  0.6745
 3626TIP3    H132293   1.968   5.623   4.462  0.6696 -0.0656 -0.6649
 3626TIP3    H232294   1.870   5.628   4.346 -2.2165 -0.0047  1.6527
 3627TIP3   OH232295   4.814   5.686   2.019 -0.6419  0.1324 -0.1029
 3627TIP3    H132296   4.873   5.682   2.094 -1.0443  0.6379  0.2559
 3627TIP3    H232297   4.788   5.595   2.004 -0.0636 -0.0462 -0.0334
 3628TIP3   OH232298   3.224   5.375  12.904  0.4777  0.1741 -0.2955
 3628TIP3    H132299   3.142   5.422  12.891  1.6718  2.3512 -0.6048
 3628TIP3    H232300   3.277   5.434  12.958  1.6377 -1.4229  0.3918
 3629TIP3   OH232301   6.414   4.746  16.468 -0.2070  0.0398  1.0909
 3629TIP3    H132302   6.464   4.771  16.546  0.1984 -2.1964  1.6026
 3629TIP3    H232303   6.322   4.750  16.495 -0.1393  0.6305  1.2416
 3630TIP3   OH232304   3.732   5.329  12.461 -0.5245 -0.9003 -0.3220
 3630TIP3    H132305   3.778   5.259  12.507 -0.0742 -0.5057 -0.1580
 3630TIP3    H232306   3.802   5.376  12.415 -0.7721 -0.3142 -0.1009
 3631TIP3   OH232307   5.582   5.934   4.099  0.1293 -0.4746 -0.1269
 3631TIP3    H132308   5.658   5.889   4.063  0.4539  0.1813 -0.2913
 3631TIP3    H232309   5.598   5.937   4.194  0.6903  0.3168 -0.2313
 3632TIP3   OH232310   0.329   3.884  16.111 -0.7055  0.3664 -0.0497
 3632TIP3    H132311   0.370   3.887  16.197 -1.3278 -0.9930  0.3318
 3632TIP3    H232312   0.244   3.843  16.126 -1.2820  1.1042 -1.1515
 3633TIP3   OH232313   4.780   1.653   0.098 -0.3734  0.0154 -0.3819
 3633TIP3    H132314   4.691   1.619   0.088 -0.3681 -1.2882  2.7792
 3633TIP3    H232315   4.773   1.718   0.168  1.0874  0.2916 -0.4542
 3634TIP3   OH232316   2.243   2.753   3.243 -0.6261 -0.4698  1.0288
 3634TIP3    H132317   2.232   2.683   3.306 -0.0413 -1.8897 -0.3643
 3634TIP3    H232318   2.210   2.717   3.161 -1.4060  1.3269  0.5162
 3635TIP3   OH232319   0.254   4.729   3.839 -0.3508 -0.4255  0.3865
 3635TIP3    H132320   0.178   4.674   3.860 -1.2294  0.7769  0.4153
 3635TIP3    H232321   0.239   4.810   3.886  0.7920 -0.0358  0.1085
 3636TIP3   OH232322   2.709   6.478  13.791  0.0535 -0.0951  0.2677
 3636TIP3    H132323   2.793   6.511  13.759  0.8761 -0.3617  2.0464
 3636TIP3    H232324   2.656   6.469  13.712  1.7849 -0.2004 -0.9542
 3637TIP3   OH232325   2.388   2.397  16.012 -0.5096 -0.0582  0.9366
 3637TIP3    H132326   2.464   2.386  15.955 -0.1499 -0.0048  1.3961
 3637TIP3    H232327   2.425   2.427  16.095 -1.1659  1.5011  0.6933
 3638TIP3   OH232328   5.363   3.487   6.081 -0.8123 -0.3111  0.2769
 3638TIP3    H132329   5.443   3.448   6.118 -1.0379 -0.6125  0.4501
 3638TIP3    H232330   5.367   3.579   6.106 -0.3002 -0.2315 -0.0853
 3639TIP3   OH232331   3.674   5.033   0.862 -0.2319  0.4219  0.3578
 3639TIP3    H132332   3.590   5.064   0.828 -0.8370 -1.6264 -0.1111
 3639TIP3    H232333   3.713   5.111   0.902 -2.0247  1.5862 -0.0365
 3640TIP3   OH232334   2.324   1.893   3.581 -0.0821  0.2617 -0.4922
 3640TIP3    H132335   2.385   1.948   3.629  1.0057 -0.2461 -1.2527
 3640TIP3    H232336   2.289   1.832   3.646  0.0254  0.7267  0.0020
 3641TIP3   OH232337   0.978   6.035   2.731 -0.3563 -0.0882  0.6385
 3641TIP3    H132338   0.961   6.075   2.646 -0.5183 -1.3392  0.0500
 3641TIP3    H232339   0.950   6.100   2.795 -1.1675  0.4856 -0.2728
 3642TIP3   OH232340   6.155   5.209   1.713  0.1630 -0.0879  0.3966
 3642TIP3    H132341   6.244   5.194   1.682  0.0850  1.4615 -0.6676
 3642TIP3    H232342   6.101   5.152   1.659  0.3233  0.4575 -0.3564
 3643TIP3   OH232343   2.302   3.635  10.725 -0.3047  0.3047  0.0494
 3643TIP3    H132344   2.206   3.633  10.716 -0.1157 -0.3579 -2.3197
 3643TIP3    H232345   2.320   3.716  10.774 -2.0538  0.3762  0.6481
 3644TIP3   OH232346   4.586   6.000  10.940  0.1315 -0.2022 -0.1879
 3644TIP3    H132347   4.538   6.068  10.989  1.3259 -0.0393  0.7968
 3644TIP3    H232348   4.522   5.930  10.929 -0.5218  0.2457  0.5791
 3645TIP3   OH232349   0.922   0.091   1.397  0.3022 -0.3562  0.0049
 3645TIP3    H132350   0.911   0.011   1.345  1.2126 -0.5267  0.0635
 3645TIP3    H232351   0.895   0.161   1.338 -0.6800 -0.7125  0.0130
 3646TIP3   OH232352   1.719   0.448  12.720 -0.4253  0.2014  0.5592
 3646TIP3    H132353   1.793   0.509  12.721  0.5221 -0.8820 -0.7389
 3646TIP3    H232354   1.699   0.433  12.813  0.4030  1.1788  0.9080
 3647TIP3   OH232355   1.440   2.447  16.368 -0.1794 -0.1204  0.0625
 3647TIP3    H132356   1.447   2.536  16.333  2.4085 -0.4811 -0.5383
 3647TIP3    H232357   1.477   2.453  16.456  2.8145 -1.0203 -0.9939
 3648TIP3   OH232358   6.437   4.562   0.955 -0.3087 -0.5212 -0.2794
 3648TIP3    H132359   6.345   4.572   0.929 -0.1617  0.9367 -0.2991
 3648TIP3    H232360   6.434   4.560   1.051 -0.1545  2.5987 -0.1174
 3649TIP3   OH232361   5.641   5.153   6.428  0.0357  0.5024  0.1323
 3649TIP3    H132362   5.614   5.145   6.520 -1.4545  2.8161  0.0074
 3649TIP3    H232363   5.707   5.085   6.416 -1.8038 -1.8161  2.0987
 3650TIP3   OH232364   5.124   1.694   3.688 -0.2146 -0.4062  0.4359
 3650TIP3    H132365   5.037   1.662   3.664 -0.8031  0.4368  1.3358
 3650TIP3    H232366   5.176   1.684   3.609 -2.1672  2.7217 -1.4689
 3651TIP3   OH232367   3.717   3.631   4.945  0.0865 -0.0839 -0.0305
 3651TIP3    H132368   3.773   3.606   4.871  0.3447  0.4242 -0.0134
 3651TIP3    H232369   3.711   3.727   4.939  0.0979 -0.0402  0.5985
 3652TIP3   OH232370   6.083   2.245   1.040  0.2895  0.1488 -0.0225
 3652TIP3    H132371   6.064   2.230   1.132  0.0261  1.2118  0.1129
 3652TIP3    H232372   6.077   2.340   1.030  2.0370  0.2218 -0.7464
 3653TIP3   OH232373   3.233   0.356   1.590  0.2099 -0.5938  0.3266
 3653TIP3    H132374   3.233   0.451   1.602  1.3016 -0.4162 -0.9160
 3653TIP3    H232375   3.324   0.330   1.608  0.3568 -1.1474 -1.0970
 3654TIP3   OH232376   2.594   2.222   2.955  0.7138  0.0709  0.0134
 3654TIP3    H132377   2.689   2.227   2.965  0.4737  0.5071  2.4591
 3654TIP3    H232378   2.568   2.310   2.929  0.9719 -0.1435 -1.0471
 3655TIP3   OH232379   0.316   0.614   1.706 -0.2852 -0.8405  0.8223
 3655TIP3    H132380   0.355   0.533   1.674 -2.1030 -2.1719  1.7872
 3655TIP3    H232381   0.226   0.611   1.674 -0.2243  1.1175  0.3750
 3656TIP3   OH232382   0.849   1.084  14.143 -0.1386  0.3988  0.5020
 3656TIP3    H132383   0.927   1.140  14.134  1.3821 -1.4035  1.8077
 3656TIP3    H232384   0.861   1.017  14.076 -0.7608  0.3129  0.4771
 3657TIP3   OH232385   4.549   3.377   0.057 -0.2780  0.0740 -0.1025
 3657TIP3    H132386   4.465   3.343   0.028 -0.6942  0.9856 -0.0278
 3657TIP3    H232387   4.556   3.463   0.015  0.6352 -0.0003 -0.1345
 3658TIP3   OH232388   6.416   5.013  13.182 -1.2377 -0.1258 -0.1555
 3658TIP3    H132389   6.360   5.000  13.105 -0.4467 -0.8146 -0.6307
 3658TIP3    H232390   6.399   4.937  13.237  0.2811 -1.1089 -0.9817
 3659TIP3   OH232391   0.432   0.349  11.572  0.3110 -0.0545 -0.1928
 3659TIP3    H132392   0.454   0.432  11.614 -1.0233  1.6715 -2.6476
 3659TIP3    H232393   0.407   0.373  11.483 -0.8936 -3.0194 -0.7781
 3660TIP3   OH232394   5.238   1.334   0.652 -0.1131 -0.4110 -0.4314
 3660TIP3    H132395   5.326   1.346   0.687 -0.2937  0.1915 -0.1715
 3660TIP3    H232396   5.239   1.246   0.614  0.3530 -0.7274  0.2992
 3661TIP3   OH232397   5.632   0.279  12.302  0.0090  0.2099 -0.3636
 3661TIP3    H132398   5.716   0.315  12.331  0.7025 -1.7250  0.1546
 3661TIP3    H232399   5.577   0.280  12.381  0.3745 -0.8013 -0.0879
 3662TIP3   OH232400   5.296   2.956   0.018  0.4092 -0.1852 -0.1194
 3662TIP3    H132401   5.288   2.966  -0.077 -0.0324  1.2724  0.0494
 3662TIP3    H232402   5.304   2.862   0.031 -0.1998 -0.4719 -1.5574
 3663TIP3   OH232403   0.710   4.045  14.507 -0.1323  0.6140  0.4266
 3663TIP3    H132404   0.615   4.035  14.508  0.0125 -1.0041  0.8608
 3663TIP3    H232405   0.728   4.106  14.578 -0.7936  0.0847  1.0800
 3664TIP3   OH232406   1.014   2.307   3.020 -0.6114 -0.1060  0.6321
 3664TIP3    H132407   1.093   2.357   3.040 -0.1595 -0.3850 -0.3972
 3664TIP3    H232408   0.950   2.337   3.084 -0.4629  2.0725 -0.1625
 3665TIP3   OH232409   2.034   1.481   3.837 -0.0654  0.2110  0.1830
 3665TIP3    H132410   2.081   1.455   3.759  0.2815 -0.7581  0.6989
 3665TIP3    H232411   1.991   1.401   3.868 -1.7091  0.9573 -0.0194
 3666TIP3   OH232412   5.358   1.711  14.912  0.3603  0.1850 -0.0708
 3666TIP3    H132413   5.387   1.628  14.950 -0.0412 -0.3018 -0.8094
 3666TIP3    H232414   5.432   1.740  14.859  0.1080 -0.2407 -0.6618
 3667TIP3   OH232415   2.009   0.257  15.543 -0.0883 -0.2269 -0.3630
 3667TIP3    H132416   2.017   0.170  15.504 -1.5667  0.0971 -1.5280
 3667TIP3    H232417   1.988   0.241  15.635 -0.2784 -1.0980 -0.5512
 3668TIP3   OH232418   1.645   6.593  15.139  0.3099  0.6862  0.0370
 3668TIP3    H132419   1.590   6.576  15.063 -0.1011 -0.7083  0.6133
 3668TIP3    H232420   1.659   6.507  15.178  1.1775  1.2774  1.0870
 3669TIP3   OH232421   3.250   3.645  11.256  0.1165  0.3184  0.1653
 3669TIP3    H132422   3.185   3.615  11.192  0.0554  0.1105  0.3245
 3669TIP3    H232423   3.218   3.731  11.285  0.6039  0.8247 -0.7382
 3670TIP3   OH232424   6.214   6.011   0.445 -0.0046  0.0723  0.2029
 3670TIP3    H132425   6.271   6.078   0.483 -0.6573  0.4214  0.5787
 3670TIP3    H232426   6.127   6.034   0.475 -0.4456 -0.0499 -0.9255
 3671TIP3   OH232427   5.881   5.903  12.689 -0.1194 -0.7263  0.6433
 3671TIP3    H132428   5.797   5.947  12.672 -0.4327 -1.2422  0.8163
 3671TIP3    H232429   5.923   5.956  12.756  0.1399  0.0885 -0.1507
 3672TIP3   OH232430   5.806   1.706  11.955 -0.5602 -0.6161  0.6715
 3672TIP3    H132431   5.803   1.624  12.005 -0.4610 -0.5386  0.8059
 3672TIP3    H232432   5.722   1.749  11.975 -1.9306 -2.0049 -1.6754
 3673TIP3   OH232433   1.050   6.034   4.404 -0.0538  0.0896  0.6832
 3673TIP3    H132434   1.017   6.123   4.418  1.5515  0.4585  2.5389
 3673TIP3    H232435   0.971   5.980   4.396 -1.0624  1.6037 -0.2234
 3674TIP3   OH232436   2.413   6.012   4.670  0.1831 -0.0149  0.1618
 3674TIP3    H132437   2.447   6.027   4.582 -2.5577  1.3545 -0.7848
 3674TIP3    H232438   2.435   6.093   4.717  0.4589 -0.1792  0.3133
 3675TIP3   OH232439   5.956   1.678  14.355  0.0011  0.0040  0.2172
 3675TIP3    H132440   6.047   1.678  14.325  0.4019 -1.1927  1.3334
 3675TIP3    H232441   5.941   1.767  14.386  1.0055  0.0382  0.6362
 3676TIP3   OH232442   1.387   4.800  11.249  0.3557  0.3667 -0.6639
 3676TIP3    H132443   1.353   4.711  11.242 -2.4969  1.2366  0.5199
 3676TIP3    H232444   1.376   4.836  11.161 -0.3557  0.1191 -0.6862
 3677TIP3   OH232445   0.829   4.973   3.579 -0.0286  0.3084  0.0948
 3677TIP3    H132446   0.893   4.902   3.569  0.9047  0.8351  1.9225
 3677TIP3    H232447   0.753   4.932   3.620 -0.3262 -0.0226 -0.7550
 3678TIP3   OH232448   4.277   1.446   0.052 -0.4462  0.7439  0.0376
 3678TIP3    H132449   4.242   1.526   0.014  0.5161  0.4135 -1.6755
 3678TIP3    H232450   4.249   1.376  -0.008  0.7478  0.1397  0.1463
 3679TIP3   OH232451   0.598   4.928   3.025  0.1060  0.6433  0.0269
 3679TIP3    H132452   0.573   4.854   2.971  1.6867  0.3771 -0.3918
 3679TIP3    H232453   0.619   4.890   3.110  0.9436  0.5816 -0.1952
 3680TIP3   OH232454   4.700   3.936   6.705 -0.4169  0.0780 -0.3034
 3680TIP3    H132455   4.759   3.885   6.649 -0.2242  2.2564 -2.2657
 3680TIP3    H232456   4.749   3.948   6.786  0.1118 -1.5654 -0.3336
 3681TIP3   OH232457   3.741   6.360  15.862  0.1644  0.3570 -0.0089
 3681TIP3    H132458   3.669   6.297  15.865 -1.9302  2.5308 -0.7326
 3681TIP3    H232459   3.778   6.350  15.774 -0.8223  0.7706 -0.4911
 3682TIP3   OH232460   0.793   4.412  15.268  0.2276 -0.2400 -0.5121
 3682TIP3    H132461   0.831   4.324  15.266  1.8678  0.4388 -0.8236
 3682TIP3    H232462   0.779   4.430  15.361 -1.0154 -1.1784 -0.5008
 3683TIP3   OH232463   6.128   4.266   3.895 -0.8868  0.2409  0.1600
 3683TIP3    H132464   6.158   4.357   3.884 -0.9186  0.1442 -0.7805
 3683TIP3    H232465   6.042   4.275   3.937 -0.9983  0.6690 -0.1407
 3684TIP3   OH232466   1.022   5.963  13.000 -0.5453 -0.6358 -0.3904
 3684TIP3    H132467   1.073   5.963  12.919 -0.5776 -2.2675 -0.4308
 3684TIP3    H232468   1.038   6.050  13.038  0.4356 -0.2904 -1.5263
 3685TIP3   OH232469   6.477   1.613  11.297  0.0536 -0.1052 -0.2210
 3685TIP3    H132470   6.563   1.647  11.321 -0.6742  0.5434  1.6162
 3685TIP3    H232471   6.441   1.679  11.237  0.5361 -0.0097 -0.4070
 3686TIP3   OH232472   0.827   4.399   0.865  0.0241 -0.2869 -0.2522
 3686TIP3    H132473   0.734   4.422   0.858  0.7257  2.9755 -0.1904
 3686TIP3    H232474   0.850   4.370   0.777 -0.9820 -0.9608 -0.3167
 3687TIP3   OH232475   3.685   2.249   2.448 -0.0695  0.0684 -0.3212
 3687TIP3    H132476   3.619   2.269   2.515 -0.4412 -0.6240 -0.4710
 3687TIP3    H232477   3.731   2.172   2.482  0.4225  0.3300 -0.3897
 3688TIP3   OH232478   4.231   3.967  13.796  0.6713  0.1983  0.2544
 3688TIP3    H132479   4.221   3.879  13.834  1.3233 -0.3770 -0.8736
 3688TIP3    H232480   4.191   4.025  13.861 -0.4374 -0.9983  0.6925
 3689TIP3   OH232481   0.809   5.317  16.291 -0.8293  0.0758 -0.2406
 3689TIP3    H132482   0.792   5.256  16.362 -2.4639  1.1848  0.3745
 3689TIP3    H232483   0.892   5.359  16.314 -0.0443 -1.3552 -0.3209
 3690TIP3   OH232484   6.322   1.638   3.801  0.8121  0.1627  0.3423
 3690TIP3    H132485   6.237   1.620   3.841 -0.2046  0.2985 -1.6274
 3690TIP3    H232486   6.338   1.730   3.821 -0.5279  0.7211 -0.9890
 3691TIP3   OH232487   6.041   3.896  13.599 -0.4549 -0.0135 -0.0963
 3691TIP3    H132488   6.134   3.884  13.618 -0.5457 -0.3437  0.1366
 3691TIP3    H232489   5.997   3.879  13.682 -0.7283  0.1037 -0.2162
 3692TIP3   OH232490   1.756   3.453  10.465 -0.2129  0.5522 -0.0023
 3692TIP3    H132491   1.832   3.497  10.501  1.0219 -0.8293 -0.8115
 3692TIP3    H232492   1.789   3.407  10.387 -2.1872  1.1372 -1.2685
 3693TIP3   OH232493   4.885   6.487   5.844 -0.5873  0.4950 -0.0837
 3693TIP3    H132494   4.796   6.461   5.820 -0.5689  0.3754 -0.0211
 3693TIP3    H232495   4.874   6.546   5.919 -0.7880  2.4750 -1.5819
 3694TIP3   OH232496   1.023   4.110   1.524 -0.4061 -0.4023 -0.2706
 3694TIP3    H132497   1.064   4.175   1.582  1.7071 -2.4780  0.7124
 3694TIP3    H232498   1.077   4.032   1.533 -3.1442 -2.5456 -0.9417
 3695TIP3   OH232499   2.289   4.845  11.317  0.2837 -0.6997  0.6463
 3695TIP3    H132500   2.338   4.767  11.291 -2.1219 -1.5877 -1.6820
 3695TIP3    H232501   2.197   4.820  11.308 -0.6133  1.9562  1.3328
 3696TIP3   OH232502   0.822   1.454  11.878  0.0975 -0.7807 -0.0570
 3696TIP3    H132503   0.758   1.447  11.808 -0.5646 -1.6733  0.6035
 3696TIP3    H232504   0.877   1.376  11.869  0.9509 -0.1529 -0.4638
 3697TIP3   OH232505   5.433   3.797  14.425  0.4436  0.0199 -0.5312
 3697TIP3    H132506   5.353   3.831  14.466  0.9742  0.9099 -0.1926
 3697TIP3    H232507   5.404   3.762  14.341 -0.4333 -0.4604 -0.0490
 3698TIP3   OH232508   3.433   2.308   1.037 -0.2754  0.2746  0.3529
 3698TIP3    H132509   3.397   2.266   0.959 -0.3612  1.4122 -0.2411
 3698TIP3    H232510   3.519   2.268   1.048 -1.7719 -2.8457  2.0775
 3699TIP3   OH232511   3.842   2.765   3.912  0.6346 -0.0789 -0.0988
 3699TIP3    H132512   3.891   2.839   3.948  2.1408 -0.2059 -1.7056
 3699TIP3    H232513   3.910   2.702   3.887 -0.6012 -2.0669  1.2681
 3700TIP3   OH232514   1.773   4.666  12.692 -0.4970  0.5905 -0.1899
 3700TIP3    H132515   1.784   4.735  12.758 -0.6690 -0.8732  1.4282
 3700TIP3    H232516   1.771   4.585  12.742 -3.3192 -0.4228 -1.7199
 3701TIP3   OH232517   4.949   1.835  14.482  0.2938  0.3866 -0.1566
 3701TIP3    H132518   4.951   1.741  14.500  0.3560  0.3624 -0.2868
 3701TIP3    H232519   4.860   1.862  14.504  0.8234  0.6784  1.8153
 3702TIP3   OH232520   6.464   3.862  16.002 -0.4118 -0.2451  0.7100
 3702TIP3    H132521   6.390   3.892  16.054 -1.3821 -2.0838  0.4868
 3702TIP3    H232522   6.472   3.769  16.023  0.3763 -0.6051 -0.9891
 3703TIP3   OH232523   3.352   5.372   0.114 -0.2841 -0.0346 -0.5750
 3703TIP3    H132524   3.433   5.408   0.080 -1.1025  1.7930 -0.6728
 3703TIP3    H232525   3.353   5.392   0.208 -1.0236  0.8434 -0.7379
 3704TIP3   OH232526   3.422   1.943   2.982  0.2439 -0.0605  0.1443
 3704TIP3    H132527   3.385   1.872   3.035  1.6316 -1.8689 -1.1866
 3704TIP3    H232528   3.353   2.010   2.981 -1.7066 -1.9360  0.3747
 3705TIP3   OH232529   0.019   5.441   2.416 -1.1948  0.5911 -0.5823
 3705TIP3    H132530  -0.047   5.496   2.458 -1.0875  0.2911 -0.0129
 3705TIP3    H232531  -0.030   5.388   2.353 -1.6313 -0.1915  0.3904
 3706TIP3   OH232532   0.094   4.574  15.168  0.6628 -0.1401 -0.1034
 3706TIP3    H132533   0.175   4.594  15.214  0.9297 -1.1075 -0.1290
 3706TIP3    H232534   0.102   4.618  15.083  2.0193 -1.7423 -0.8735
 3707TIP3   OH232535   2.649   0.894   3.737 -0.1491 -0.3722 -0.0466
 3707TIP3    H132536   2.597   0.822   3.771 -0.7524 -0.5139 -1.2326
 3707TIP3    H232537   2.635   0.966   3.799 -0.1478 -1.0221  0.7230
 3708TIP3   OH232538   4.591   5.033   1.122  0.1860  0.2633  0.0465
 3708TIP3    H132539   4.596   4.968   1.053 -0.4175 -1.4669  1.5494
 3708TIP3    H232540   4.649   5.000   1.191 -0.7940  0.8342  1.1954
 3709TIP3   OH232541   6.171   3.046   5.629 -0.0829  0.0991  0.2217
 3709TIP3    H132542   6.228   3.006   5.695 -0.1229 -2.4673 -1.1801
 3709TIP3    H232543   6.221   3.122   5.598  0.0842  1.1873  2.8578
 3710TIP3   OH232544   3.950   1.110  12.561  0.0768  0.0534 -0.4381
 3710TIP3    H132545   3.876   1.157  12.523  0.6997  0.3413 -1.3073
 3710TIP3    H232546   4.003   1.083  12.487  0.4520 -0.8221  0.1342
 3711TIP3   OH232547   4.028   3.343  13.802 -0.1121 -0.0685 -0.1890
 3711TIP3    H132548   4.070   3.419  13.763  0.1407 -0.0400  0.1305
 3711TIP3    H232549   3.935   3.365  13.804  0.0779  0.7567  1.0043
 3712TIP3   OH232550   5.711   6.797  13.249 -0.2603  0.0241 -0.0793
 3712TIP3    H132551   5.734   6.709  13.282 -1.7921 -0.2030  0.4864
 3712TIP3    H232552   5.718   6.789  13.154  2.0241  0.0335  0.0167
 3713TIP3   OH232553   6.518   1.171   2.995 -0.2558  0.3239  0.2884
 3713TIP3    H132554   6.558   1.122   2.923  0.9305  0.4568  0.8480
 3713TIP3    H232555   6.587   1.228   3.027 -1.1517  1.2219  0.6976
 3714TIP3   OH232556   3.662   4.926   6.271 -0.2299 -0.1285 -1.2566
 3714TIP3    H132557   3.608   4.965   6.339  1.7310 -1.2337  1.0590
 3714TIP3    H232558   3.601   4.912   6.198 -2.1635  2.0893 -0.1995
 3715TIP3   OH232559   1.404   0.871   3.146 -0.1178 -0.0205  0.4061
 3715TIP3    H132560   1.460   0.937   3.184 -0.9748  1.8830 -1.4328
 3715TIP3    H232561   1.462   0.797   3.128  1.6841  1.6085 -0.7869
 3716TIP3   OH232562   4.503   2.343   2.242  0.1015 -0.0431  0.5726
 3716TIP3    H132563   4.475   2.259   2.278 -0.2883 -0.7387 -1.2765
 3716TIP3    H232564   4.589   2.359   2.282  0.3458 -1.4977  0.6683
 3717TIP3   OH232565   0.918   2.515  12.245 -0.1430  0.3735  0.0028
 3717TIP3    H132566   0.948   2.431  12.278  0.5124  0.9829  0.9969
 3717TIP3    H232567   0.896   2.498  12.153  0.7533 -0.6912 -0.0373
 3718TIP3   OH232568   4.487   4.634  10.824  0.1059 -0.5734 -0.0438
 3718TIP3    H132569   4.535   4.609  10.903  0.5923  0.1281 -0.1051
 3718TIP3    H232570   4.426   4.562  10.809  1.5468 -1.8006 -0.2977
 3719TIP3   OH232571   5.986   6.513  16.081  0.3074 -0.2062 -0.2695
 3719TIP3    H132572   5.985   6.493  16.175 -0.7502 -0.9140 -0.4228
 3719TIP3    H232573   5.986   6.428  16.038 -0.2132  0.1178 -0.9224
 3720TIP3   OH232574   0.417   0.369   3.878 -0.3086 -0.0995  0.0291
 3720TIP3    H132575   0.511   0.363   3.863 -0.3765 -0.5594 -0.2280
 3720TIP3    H232576   0.409   0.399   3.969  0.0860  0.0286  0.0201
 3721TIP3   OH232577   3.319   2.873  15.345 -0.3822  0.8075  0.3321
 3721TIP3    H132578   3.347   2.818  15.271 -2.0784 -1.2594  1.1343
 3721TIP3    H232579   3.242   2.920  15.312 -1.5024 -0.5681  0.9156
 3722TIP3   OH232580   4.434   5.493  15.935  0.4159 -0.4530 -0.0110
 3722TIP3    H132581   4.432   5.554  16.009 -1.4194 -0.3370 -0.1071
 3722TIP3    H232582   4.511   5.438  15.952  0.5677  0.1503  1.4908
 3723TIP3   OH232583   5.001   3.423  14.357  0.2554  0.2075 -0.7020
 3723TIP3    H132584   4.972   3.494  14.414 -1.4612 -0.7692 -0.2687
 3723TIP3    H232585   4.922   3.397  14.309  0.8457 -1.3504 -0.8904
 3724TIP3   OH232586   5.806   5.171  12.430 -0.3680  0.4868 -0.0452
 3724TIP3    H132587   5.714   5.194  12.436 -0.7469 -1.0390  0.6487
 3724TIP3    H232588   5.811   5.110  12.356  0.1714  0.9562 -0.4000
 3725TIP3   OH232589   4.054   6.530   2.360 -0.2661 -0.5536 -0.3463
 3725TIP3    H132590   4.066   6.567   2.273 -2.6338 -0.2807 -0.6195
 3725TIP3    H232591   4.088   6.597   2.419 -2.7748  1.3814 -0.9235
 3726TIP3   OH232592   2.664   3.226  14.456 -0.8182  0.0264 -0.6715
 3726TIP3    H132593   2.622   3.283  14.520 -1.7414  0.2702 -1.4655
 3726TIP3    H232594   2.657   3.138  14.493  2.0879  0.5110  1.3601
 3727TIP3   OH232595   6.465   1.356   5.198 -0.6541 -0.2155 -0.0572
 3727TIP3    H132596   6.401   1.402   5.252 -0.5580  0.5200 -0.5457
 3727TIP3    H232597   6.503   1.425   5.143 -0.8077 -0.9492 -1.1143
 3728TIP3   OH232598   0.084   3.824   4.577 -0.6037  0.3040  0.3924
 3728TIP3    H132599   0.048   3.809   4.665 -1.6626 -0.9409 -0.2106
 3728TIP3    H232600   0.140   3.748   4.561  0.1905  0.9060  0.2722
 3729TIP3   OH232601   2.483   2.719  11.408 -0.0931  0.2034  0.6558
 3729TIP3    H132602   2.459   2.760  11.491 -2.0608  0.6053 -0.0766
 3729TIP3    H232603   2.478   2.789  11.344  0.1708 -0.3919 -0.0251
 3730TIP3   OH232604   3.433   4.725  15.467 -0.2617  0.1898 -0.7073
 3730TIP3    H132605   3.341   4.721  15.494 -1.0561  0.2251 -3.1990
 3730TIP3    H232606   3.461   4.634  15.465  0.0710  0.2235  0.8814
 3731TIP3   OH232607   4.357   3.441   2.866 -0.0992  0.0624 -0.2623
 3731TIP3    H132608   4.354   3.503   2.793 -0.2899  0.7960  0.3616
 3731TIP3    H232609   4.377   3.357   2.825 -0.6112  0.3936 -1.2095
 3732TIP3   OH232610   2.068   1.285   1.789  0.4360  0.1016  0.5496
 3732TIP3    H132611   2.063   1.379   1.807 -0.8511 -0.4151  3.4353
 3732TIP3    H232612   2.152   1.258   1.827 -0.0073 -0.1831  1.3473
 3733TIP3   OH232613   5.020   4.931  15.270 -0.8289  0.3405  0.9096
 3733TIP3    H132614   5.095   4.878  15.299  0.3999  1.0738 -0.7486
 3733TIP3    H232615   4.951   4.867  15.252  0.6704 -0.8313 -1.2390
 3734TIP3   OH232616   5.209   2.680   3.909 -0.0812  1.2552  0.2851
 3734TIP3    H132617   5.155   2.737   3.854 -1.0264 -1.9409 -2.4013
 3734TIP3    H232618   5.159   2.599   3.917  2.3640 -0.2376  1.5553
 3735TIP3   OH232619   0.110   0.131   4.137 -0.1074  0.1569 -0.2654
 3735TIP3    H132620   0.075   0.129   4.048  1.0185 -0.9937 -0.7052
 3735TIP3    H232621   0.071   0.055   4.180 -0.6291  0.6944  0.2501
 3736TIP3   OH232622   0.908   6.422  14.194  0.3668  0.5614 -0.0901
 3736TIP3    H132623   0.942   6.466  14.117 -2.6021  0.6172 -1.4932
 3736TIP3    H232624   0.815   6.406  14.174 -0.4713  0.3289  3.3381
 3737TIP3   OH232625   0.057   4.851   2.802  0.1380 -0.0778  0.6926
 3737TIP3    H132626  -0.020   4.809   2.764 -1.1858  1.0214  2.0414
 3737TIP3    H232627   0.067   4.811   2.889  0.9574 -0.0607  0.6168
 3738TIP3   OH232628   4.440   3.390   1.499  0.5946  0.7543  0.3921
 3738TIP3    H132629   4.348   3.393   1.524  0.8657 -0.0991  1.5548
 3738TIP3    H232630   4.487   3.365   1.579  1.9018  1.6941 -0.0322
 3739TIP3   OH232631   6.679   1.511   6.573  0.5048  0.1401  0.4534
 3739TIP3    H132632   6.598   1.460   6.571  0.1277  0.7512 -0.5842
 3739TIP3    H232633   6.687   1.540   6.664 -1.3828  1.5228  0.2438
 3740TIP3   OH232634   6.173   2.045  16.243  0.5127 -0.1300  0.3279
 3740TIP3    H132635   6.112   2.013  16.309 -0.1100  1.6736  0.6624
 3740TIP3    H232636   6.237   2.096  16.291  0.7642  0.1840 -0.3248
 3741TIP3   OH232637   2.880   2.923  13.971 -0.0995  0.2030 -0.4817
 3741TIP3    H132638   2.897   2.961  14.057  1.7692  0.5512 -0.9762
 3741TIP3    H232639   2.875   2.998  13.912  2.0280 -0.1848 -1.2063
 3742TIP3   OH232640   2.699   5.110   4.776 -0.4779  0.3242  0.0464
 3742TIP3    H132641   2.689   5.173   4.848 -0.4420  2.7366 -1.9032
 3742TIP3    H232642   2.793   5.089   4.776 -0.3404  0.9162  0.2193
 3743TIP3   OH232643   2.935   2.380   4.076  0.6175  0.6146 -0.2199
 3743TIP3    H132644   2.918   2.473   4.063 -0.7912  0.5875  1.0969
 3743TIP3    H232645   2.854   2.337   4.049  0.5751 -0.0542  0.9099
 3744TIP3   OH232646   5.859   3.032   1.919 -0.4598  0.0900 -0.2918
 3744TIP3    H132647   5.851   2.988   1.835  0.6541  0.7954 -0.7879
 3744TIP3    H232648   5.785   2.999   1.970  1.3917 -3.9494  0.1625
 3745TIP3   OH232649   2.163   2.324  12.905 -0.5555  0.0602  0.3659
 3745TIP3    H132650   2.252   2.345  12.875  0.9205 -1.0695  3.4648
 3745TIP3    H232651   2.143   2.393  12.968 -1.1289 -0.6308  0.9568
 3746TIP3   OH232652   0.763   0.689  14.349 -0.0850  0.3353 -0.0607
 3746TIP3    H132653   0.731   0.656  14.265 -0.7204  1.7785 -0.4191
 3746TIP3    H232654   0.694   0.748  14.378 -0.0680 -0.4426  1.6950
 3747TIP3   OH232655   6.372   3.758   2.767  0.4912  0.1895 -0.3763
 3747TIP3    H132656   6.349   3.850   2.755  2.1555  0.5062 -1.4978
 3747TIP3    H232657   6.385   3.725   2.678  0.9742 -0.8392  0.0685
 3748TIP3   OH232658   0.610   0.214   1.161  0.4100 -0.4076 -0.0007
 3748TIP3    H132659   0.635   0.184   1.248  0.8078  0.2560  0.1137
 3748TIP3    H232660   0.514   0.212   1.162  0.3845  0.6436  0.8276
 3749TIP3   OH232661   2.379   2.050   3.814  0.2045 -0.0474  0.2301
 3749TIP3    H132662   2.440   1.988   3.853 -0.3040  0.0703  1.2313
 3749TIP3    H232663   2.294   2.029   3.853 -0.5822 -0.7328 -1.7230
 3750TIP3   OH232664   0.266   0.999   5.392 -0.3577  0.0055 -0.4966
 3750TIP3    H132665   0.322   0.932   5.353 -0.6100 -0.6484  0.2444
 3750TIP3    H232666   0.208   1.027   5.321  0.7045  0.4943 -1.1984
 3751TIP3   OH232667   0.865   6.300   1.737  0.5479 -0.2479 -0.4690
 3751TIP3    H132668   0.802   6.361   1.697  0.6307 -0.4726 -0.9581
 3751TIP3    H232669   0.926   6.357   1.783  0.9059  0.0912 -1.3248
 3752TIP3   OH232670   4.774   0.033   0.715  0.0850  0.4279 -0.1194
 3752TIP3    H132671   4.714  -0.016   0.772  1.0322  0.4390  0.9164
 3752TIP3    H232672   4.819   0.094   0.774  0.6078  0.9215 -1.0028
 3753TIP3   OH232673   5.871   0.516  11.069  0.5927  0.2419  0.1355
 3753TIP3    H132674   5.807   0.524  11.140  2.1915  0.2909  1.6727
 3753TIP3    H232675   5.896   0.423  11.070  1.2694  0.4136  0.2862
 3754TIP3   OH232676   2.656   3.333   0.388  0.0284 -0.3526 -0.3274
 3754TIP3    H132677   2.704   3.347   0.306  0.3824 -0.7143 -0.1830
 3754TIP3    H232678   2.719   3.354   0.457  0.7246 -2.9369 -0.0795
 3755TIP3   OH232679   2.397   1.351   2.953 -0.5584  0.0754  0.4944
 3755TIP3    H132680   2.316   1.315   2.988 -0.3232 -1.0673 -0.0717
 3755TIP3    H232681   2.448   1.274   2.927 -0.6170  0.8204 -2.1325
 3756TIP3   OH232682   1.622   6.785  11.220 -0.2934  0.6789 -0.5597
 3756TIP3    H132683   1.543   6.732  11.211  0.4019 -0.3765 -0.6625
 3756TIP3    H232684   1.593   6.875  11.205 -1.7422  0.4985  0.8652
 3757TIP3   OH232685   5.128   5.058   2.512  0.3908  0.1318  0.1039
 3757TIP3    H132686   5.196   5.071   2.446  0.1873 -2.0207 -0.6289
 3757TIP3    H232687   5.175   5.059   2.595  1.3612 -1.1472 -0.3814
 3758TIP3   OH232688   5.770   1.137  10.589 -0.1552 -0.8777 -0.4430
 3758TIP3    H132689   5.759   1.110  10.498  0.3632  0.7214 -1.0116
 3758TIP3    H232690   5.823   1.217  10.584  2.3849 -2.2880  1.4127
 3759TIP3   OH232691   3.067   2.616   5.792 -0.0499  0.3997 -0.3382
 3759TIP3    H132692   3.158   2.587   5.787  0.6711  2.1803  1.3775
 3759TIP3    H232693   3.032   2.573   5.870 -0.0600  1.2672  0.1470
 3760TIP3   OH232694   3.810   3.534  12.240  0.1565  0.4582  0.0767
 3760TIP3    H132695   3.783   3.442  12.236  1.6229 -0.0111  0.1004
 3760TIP3    H232696   3.905   3.530  12.253  0.1201  1.9776  1.1400
 3761TIP3   OH232697   6.457   5.839   2.637  0.3036 -0.2390  0.5743
 3761TIP3    H132698   6.406   5.779   2.583 -1.2209 -0.4910  2.2104
 3761TIP3    H232699   6.410   5.922   2.633  0.7831  0.0416  0.6540
 3762TIP3   OH232700   5.937   4.884   4.301  0.4861  0.6052  0.3009
 3762TIP3    H132701   5.972   4.863   4.215 -0.4879  0.9741 -0.2013
 3762TIP3    H232702   5.925   4.799   4.343  4.0740  0.4758  1.4220
 3763TIP3   OH232703   2.913   2.340   2.462 -0.3568 -0.3730 -0.1599
 3763TIP3    H132704   2.993   2.392   2.454 -0.0902 -0.6085  0.8841
 3763TIP3    H232705   2.938   2.252   2.431 -0.5331 -0.1563 -0.9407
 3764TIP3   OH232706   5.405   4.410   0.611 -0.2825 -0.2829 -0.4580
 3764TIP3    H132707   5.445   4.423   0.525  1.0780  0.9777  0.3418
 3764TIP3    H232708   5.328   4.467   0.611  0.1857  0.3558 -0.5435
 3765TIP3   OH232709   2.890   3.463   4.647  0.3055  0.0697  0.2748
 3765TIP3    H132710   2.828   3.520   4.601  0.3906  0.9602  1.2170
 3765TIP3    H232711   2.850   3.448   4.732  0.1533 -1.5528 -0.0563
 3766TIP3   OH232712   4.138   5.679  13.159  0.2408 -0.4756  0.1898
 3766TIP3    H132713   4.154   5.727  13.240  1.7153  2.3027 -1.5771
 3766TIP3    H232714   4.058   5.718  13.124 -1.1671 -2.6156  0.9039
 3767TIP3   OH232715   5.351   1.742   1.908  0.8388  0.0115  0.6047
 3767TIP3    H132716   5.265   1.784   1.917  1.3821  1.6738 -1.1633
 3767TIP3    H232717   5.334   1.664   1.855  0.6013  1.3559 -1.4422
 3768TIP3   OH232718   4.592   4.990   3.365 -0.0342  0.2412  0.2800
 3768TIP3    H132719   4.578   5.085   3.370 -1.5664  0.0369  0.4350
 3768TIP3    H232720   4.584   4.970   3.272  0.3800  0.2718  0.2369
 3769TIP3   OH232721   5.774   0.760   1.079 -0.5390  0.9363  0.2657
 3769TIP3    H132722   5.774   0.670   1.113 -1.5346  1.6682  2.4005
 3769TIP3    H232723   5.864   0.774   1.048  0.8307  0.4380  3.5744
 3770TIP3   OH232724   6.426   5.678   0.219  0.2357  0.2815  0.2008
 3770TIP3    H132725   6.426   5.620   0.143  0.5098  1.7642 -0.9811
 3770TIP3    H232726   6.442   5.620   0.293  2.3034 -0.9721 -1.0958
 3771TIP3   OH232727   2.714   5.506  14.236 -0.2982 -0.2361  0.0320
 3771TIP3    H132728   2.627   5.532  14.206 -0.4720  0.0283  0.7571
 3771TIP3    H232729   2.763   5.490  14.155 -0.3663  1.7289 -0.4450
 3772TIP3   OH232730   3.509   5.498  14.855 -0.5186  0.1275  0.7141
 3772TIP3    H132731   3.416   5.487  14.872 -0.3986  0.1657  1.4349
 3772TIP3    H232732   3.523   5.593  14.853 -0.4492  0.1195  0.8499
 3773TIP3   OH232733   6.387   1.015  15.614  0.3439  0.0883 -0.2375
 3773TIP3    H132734   6.299   0.988  15.587 -0.2997  0.8326  1.0297
 3773TIP3    H232735   6.438   0.934  15.615 -0.0809 -0.2444 -1.7807
 3774TIP3   OH232736   6.608   0.894  17.130  0.0700  0.1780 -0.0830
 3774TIP3    H132737   6.548   0.891  17.205  0.1736 -1.0041 -0.0177
 3774TIP3    H232738   6.588   0.814  17.081 -0.0342  0.9648 -1.3592
 3775TIP3   OH232739   3.075   4.210   3.220  0.0570  0.3335  0.8694
 3775TIP3    H132740   3.136   4.141   3.245 -1.8243 -1.1531  1.6063
 3775TIP3    H232741   3.130   4.288   3.208  2.4276 -1.4699 -1.1224
 3776TIP3   OH232742   0.369   3.486   2.507  0.2514 -0.1166  0.2320
 3776TIP3    H132743   0.346   3.395   2.493  3.1618 -0.8347 -0.5044
 3776TIP3    H232744   0.392   3.519   2.420  0.9123  0.7837  0.7247
 3777TIP3   OH232745   0.384   0.808   2.210  0.0965 -0.2078 -0.5075
 3777TIP3    H132746   0.341   0.796   2.126  1.6415 -1.4355 -1.1694
 3777TIP3    H232747   0.421   0.897   2.205 -0.8909  0.2090 -0.5949
 3778TIP3   OH232748   1.832   2.784   1.629  0.1776 -0.3181 -0.0809
 3778TIP3    H132749   1.923   2.769   1.601 -0.5704 -0.7050 -2.5329
 3778TIP3    H232750   1.805   2.700   1.667  0.6518 -0.4089  0.0609
 3779TIP3   OH232751   0.343   1.245  16.999  0.6410  0.4598 -0.0204
 3779TIP3    H132752   0.337   1.180  17.068  1.2832 -0.7105 -1.0240
 3779TIP3    H232753   0.432   1.234  16.963  0.8927  2.1198  0.0014
 3780TIP3   OH232754   1.200   1.116  11.492 -0.8684 -0.5955  0.3336
 3780TIP3    H132755   1.149   1.176  11.545  1.9759  0.5095  2.0580
 3780TIP3    H232756   1.208   1.159  11.407 -1.1247  0.1703  0.6949
 3781TIP3   OH232757   0.320   5.313   4.026 -0.1067  0.0845 -0.6502
 3781TIP3    H132758   0.306   5.407   4.037  0.2697  0.3447 -2.1149
 3781TIP3    H232759   0.315   5.300   3.931  1.7319 -1.0457 -0.6265
 3782TIP3   OH232760   3.910   1.842   4.546 -0.4309 -0.0571 -0.2306
 3782TIP3    H132761   3.949   1.897   4.478  1.7101  0.6950  1.4617
 3782TIP3    H232762   3.954   1.758   4.537  0.5610  0.3253  0.7231
 3783TIP3   OH232763   4.256   5.159  13.497 -0.6956  0.4207 -0.2405
 3783TIP3    H132764   4.306   5.120  13.425  1.7115  0.8973  1.0848
 3783TIP3    H232765   4.185   5.096  13.513 -2.2002  0.9204 -3.8055
 3784TIP3   OH232766   6.188   4.764  11.713 -0.0895 -0.4545  0.3084
 3784TIP3    H132767   6.170   4.693  11.775 -0.4555 -0.6994 -0.0727
 3784TIP3    H232768   6.280   4.750  11.688 -1.0792 -3.0427 -2.5266
 3785TIP3   OH232769   4.415   4.210   0.140  0.1424  0.0189  0.0307
 3785TIP3    H132770   4.475   4.159   0.195  0.2083 -1.0428 -1.0036
 3785TIP3    H232771   4.470   4.242   0.068  0.0219  1.2807  0.4731
 3786TIP3   OH232772   1.338   1.990   3.788 -0.4048 -0.5490  0.1298
 3786TIP3    H132773   1.273   2.020   3.725 -0.5474 -0.5167  0.2931
 3786TIP3    H232774   1.370   1.908   3.752  0.4880  0.1194 -0.6852
 3787TIP3   OH232775   0.628   5.553  12.234 -0.2236  0.4107  0.0183
 3787TIP3    H132776   0.665   5.472  12.270  0.1124  0.3057 -0.5575
 3787TIP3    H232777   0.597   5.601  12.311  2.2162  1.0667  0.6759
 3788TIP3   OH232778   0.772   6.167   5.922  0.3134  0.4026 -0.0132
 3788TIP3    H132779   0.806   6.161   6.011 -1.0992 -1.1508  0.4877
 3788TIP3    H232780   0.734   6.255   5.916  0.3112  0.4776  0.9720
 3789TIP3   OH232781   1.198   1.241  16.245 -1.0314 -0.2989  0.3520
 3789TIP3    H132782   1.203   1.147  16.260  1.0953 -0.1315  0.9980
 3789TIP3    H232783   1.276   1.261  16.194 -1.1421  1.2109  0.7308
 3790TIP3   OH232784   0.872   2.387   2.154 -0.0121  0.1057 -0.2864
 3790TIP3    H132785   0.956   2.415   2.192 -0.2950  0.7105 -0.0982
 3790TIP3    H232786   0.884   2.294   2.136  0.5079  0.0603  0.2691
 3791TIP3   OH232787   0.820   0.209   3.994  0.3453  0.2090  0.2064
 3791TIP3    H132788   0.894   0.242   3.943 -0.8372  1.7078 -0.6204
 3791TIP3    H232789   0.830   0.114   3.992  2.5347  0.3676  0.5968
 3792TIP3   OH232790   3.527   4.134   3.775  0.0307  0.4799  0.6359
 3792TIP3    H132791   3.544   4.138   3.681 -1.9164  1.0668  0.2694
 3792TIP3    H232792   3.506   4.042   3.792  0.3158  0.3867  0.4865
 3793TIP3   OH232793   0.695   3.175  15.197  0.5115  0.1750  0.1212
 3793TIP3    H132794   0.790   3.184  15.185  0.7634 -0.5372  1.3448
 3793TIP3    H232795   0.685   3.089  15.238 -0.4447  1.1596  2.0904
 3794TIP3   OH232796   0.361   0.393  13.324 -0.3348 -0.2202 -0.7385
 3794TIP3    H132797   0.428   0.460  13.314 -0.2239  0.2131  2.2656
 3794TIP3    H232798   0.298   0.412  13.254  0.0967  2.5248 -0.4934
 3795TIP3   OH232799   6.413   4.805   3.015  0.1002  0.0051  0.3646
 3795TIP3    H132800   6.341   4.851   2.972  0.7212 -0.5494 -1.3980
 3795TIP3    H232801   6.435   4.858   3.091 -1.4323  0.7652  0.3050
 3796TIP3   OH232802   5.359   6.483  15.872 -0.0516  0.1942 -0.0452
 3796TIP3    H132803   5.412   6.506  15.796  1.9005  0.1779  1.2257
 3796TIP3    H232804   5.373   6.556  15.933 -1.7977  0.3416  0.2326
 3797TIP3   OH232805   4.724   2.711  11.403  0.1077  0.3211  0.1377
 3797TIP3    H132806   4.739   2.730  11.496 -3.2521 -2.7148  1.5275
 3797TIP3    H232807   4.779   2.635  11.385  1.6469  1.5813 -0.8559
 3798TIP3   OH232808   0.896   5.763  11.506  0.2377 -0.4366  0.5007
 3798TIP3    H132809   0.912   5.739  11.415 -1.3403  2.6303 -0.7381
 3798TIP3    H232810   0.806   5.797  11.506  0.0348 -0.7386  3.3252
 3799TIP3   OH232811   2.459   3.807   0.880  0.5855 -0.1160 -0.0497
 3799TIP3    H132812   2.423   3.894   0.900  0.1536 -0.3192  0.0643
 3799TIP3    H232813   2.513   3.785   0.956  1.3314  0.3818 -0.4146
 3800TIP3   OH232814   2.687   5.277  16.635 -0.2064  0.1170 -0.0975
 3800TIP3    H132815   2.663   5.322  16.716  0.5668 -0.9679  0.7553
 3800TIP3    H232816   2.753   5.334  16.595 -1.1328  1.0336 -0.3787
 3801TIP3   OH232817   2.275   2.609   5.118  0.0746  0.0281 -0.6661
 3801TIP3    H132818   2.258   2.678   5.183  0.8418  0.0210 -0.4464
 3801TIP3    H232819   2.241   2.529   5.158  2.5618 -0.4127  0.7850
 3802TIP3   OH232820   6.198   3.341   5.595 -0.6537 -0.4085 -0.1227
 3802TIP3    H132821   6.116   3.307   5.557  1.2586 -2.3289 -2.8956
 3802TIP3    H232822   6.238   3.390   5.523  1.3186 -0.7662  0.6839
 3803TIP3   OH232823   0.909   6.271   4.531  0.0051  0.2241 -0.9029
 3803TIP3    H132824   0.849   6.320   4.475 -0.6865  1.6180  0.9460
 3803TIP3    H232825   0.852   6.209   4.577  0.6059 -1.0997 -1.8945
 3804TIP3   OH232826   4.748   1.999   2.423  0.0153  0.1363  0.3187
 3804TIP3    H132827   4.756   1.977   2.516  0.1123  1.0156  0.5243
 3804TIP3    H232828   4.658   2.032   2.413 -0.5715 -1.5154 -0.2483
 3805TIP3   OH232829   6.252   1.501   2.913  0.0606  0.8272 -0.5335
 3805TIP3    H132830   6.318   1.477   2.848  0.1618  1.7126 -0.7584
 3805TIP3    H232831   6.191   1.558   2.867 -1.3959 -0.6929 -0.5771
 3806TIP3   OH232832   1.304   0.995  15.810  0.2775  0.1448  0.3802
 3806TIP3    H132833   1.238   1.057  15.778  1.0323  0.6009 -0.3043
 3806TIP3    H232834   1.253   0.931  15.861 -0.7168  0.3991 -0.2626
 3807TIP3   OH232835   3.308   3.377  14.234  0.5655  0.0430 -0.1626
 3807TIP3    H132836   3.325   3.456  14.182  0.6477 -0.0812 -0.3261
 3807TIP3    H232837   3.298   3.307  14.169 -1.0897  0.1925 -0.1043
 3808TIP3   OH232838   3.273   4.356  11.277  0.5595  0.3965  0.2516
 3808TIP3    H132839   3.310   4.268  11.274  1.4029  0.7407  0.1563
 3808TIP3    H232840   3.241   4.371  11.188 -1.1655 -0.4486  0.6938
 3809TIP3   OH232841   3.816   0.047  11.197  1.1115 -0.1926 -0.5326
 3809TIP3    H132842   3.725   0.019  11.188  1.2418 -0.5471 -0.7617
 3809TIP3    H232843   3.811   0.136  11.233  0.6114  0.8232 -2.9610
 3810TIP3   OH232844   3.512   0.740  14.877  0.5850 -0.4995 -0.5384
 3810TIP3    H132845   3.540   0.829  14.901 -0.0913 -0.7392  1.2999
 3810TIP3    H232846   3.485   0.747  14.785  2.2308  0.7695 -0.9741
 3811TIP3   OH232847   6.374   3.579  16.098 -0.0500 -0.9112  0.1094
 3811TIP3    H132848   6.408   3.552  16.013 -1.3391  0.5990 -0.9494
 3811TIP3    H232849   6.307   3.514  16.119 -2.0312  0.4141 -1.6661
 3812TIP3   OH232850   2.549   4.075  10.591 -0.4586  0.2641  0.7275
 3812TIP3    H132851   2.499   4.119  10.660 -1.3508 -0.1055  0.3337
 3812TIP3    H232852   2.604   4.144  10.554  1.0018  0.2102  2.6234
 3813TIP3   OH232853   5.360   5.203   2.972  0.1377 -0.2872 -0.3783
 3813TIP3    H132854   5.433   5.218   2.913  1.3693  1.2969  1.4045
 3813TIP3    H232855   5.400   5.202   3.060 -1.7709 -1.0180  0.5322
 3814TIP3   OH232856   4.292   5.604  14.799  0.1925 -0.3698 -1.1416
 3814TIP3    H132857   4.241   5.535  14.758  0.8897 -1.8314  0.3239
 3814TIP3    H232858   4.382   5.573  14.797  0.5006  0.3982 -0.3049
 3815TIP3   OH232859   0.881   6.365   3.793  0.7543 -0.3844  0.0437
 3815TIP3    H132860   0.855   6.402   3.877  1.5853  0.1157  0.0974
 3815TIP3    H232861   0.807   6.380   3.736 -0.0086 -1.1531  0.8034
 3816TIP3   OH232862   2.540   2.460  11.307 -0.0606 -0.3265 -0.4002
 3816TIP3    H132863   2.470   2.397  11.324  1.2037 -1.7316 -0.1884
 3816TIP3    H232864   2.518   2.535  11.363 -0.4573 -1.4687  1.0461
 3817TIP3   OH232865   4.825   3.132  15.150  0.3226 -0.3910  0.1335
 3817TIP3    H132866   4.808   3.218  15.112  1.9649  0.5290  1.3881
 3817TIP3    H232867   4.918   3.116  15.135 -0.3268 -2.9149 -1.8863
 3818TIP3   OH232868   2.833   6.334  14.757  0.5319 -0.1388 -0.3167
 3818TIP3    H132869   2.840   6.384  14.676 -0.9680  0.3889 -0.1461
 3818TIP3    H232870   2.871   6.391  14.824 -1.8629  1.1811  0.0125
 3819TIP3   OH232871   1.581   2.445   2.316  0.2738 -0.2263 -0.4581
 3819TIP3    H132872   1.616   2.474   2.400 -2.3270  0.5161  0.4483
 3819TIP3    H232873   1.643   2.379   2.286  1.0027 -0.9130  2.3007
 3820TIP3   OH232874   2.549   3.523  10.517  0.1972  0.2370 -0.3510
 3820TIP3    H132875   2.556   3.439  10.563  1.1225  0.7646  0.5270
 3820TIP3    H232876   2.612   3.580  10.562  0.9731  0.8578 -2.1119
 3821TIP3   OH232877   0.574   4.491   1.341 -0.7334 -0.2096 -0.4529
 3821TIP3    H132878   0.561   4.527   1.253 -0.3713  1.0093 -0.0333
 3821TIP3    H232879   0.487   4.495   1.381 -0.9109 -0.8205 -0.7673
 3822TIP3   OH232880   3.793   4.072   2.702  0.2042 -0.1618 -0.0553
 3822TIP3    H132881   3.793   3.978   2.681  0.7507  0.0217 -0.9535
 3822TIP3    H232882   3.701   4.096   2.707  0.0153 -1.0394  1.6677
 3823TIP3   OH232883   0.086   3.221  13.002  0.2478  0.3500 -0.2684
 3823TIP3    H132884   0.179   3.215  12.980  1.1894  0.6513  3.0657
 3823TIP3    H232885   0.076   3.307  13.042 -2.0210  1.2176 -2.4376
 3824TIP3   OH232886   3.549   6.364   4.925  0.1734 -0.2012  0.3216
 3824TIP3    H132887   3.547   6.300   4.996 -1.7131 -0.7856 -0.2191
 3824TIP3    H232888   3.514   6.317   4.849 -1.1324  1.4280 -0.1203
 3825TIP3   OH232889   4.183   3.567  13.786  0.3052  0.4682  1.0951
 3825TIP3    H132890   4.187   3.638  13.850  1.6425 -0.1284  1.6883
 3825TIP3    H232891   4.260   3.514  13.803  0.1876 -0.2363 -0.4039
 3826TIP3   OH232892   0.738   1.643   3.513  0.6214  0.1093  0.4163
 3826TIP3    H132893   0.660   1.695   3.530  0.2901 -0.1859 -0.1707
 3826TIP3    H232894   0.741   1.635   3.417  0.2163 -1.5956  0.5149
 3827TIP3   OH232895   6.491   3.213  14.038  0.0317  0.0680 -0.3212
 3827TIP3    H132896   6.481   3.190  13.945 -0.4806  0.8867 -0.4720
 3827TIP3    H232897   6.569   3.165  14.066  0.3513  0.0313 -1.2488
 3828TIP3   OH232898   0.511   2.584   2.008  0.0138  0.3230  0.1308
 3828TIP3    H132899   0.553   2.663   1.973  2.2456 -0.9996 -0.4347
 3828TIP3    H232900   0.488   2.606   2.098  1.2742  1.4114  0.2132
 3829TIP3   OH232901   3.250   0.503   3.575 -0.5897 -0.4540  0.5594
 3829TIP3    H132902   3.326   0.525   3.522  0.7450  0.5825  2.7557
 3829TIP3    H232903   3.182   0.480   3.511  0.2623  2.5636 -1.6870
 3830TIP3   OH232904   3.739   6.286  11.830  0.1292 -0.2348 -0.0760
 3830TIP3    H132905   3.813   6.283  11.891 -0.0785  0.3338  0.2115
 3830TIP3    H232906   3.777   6.320  11.748 -0.0066  1.0635  0.3802
 3831TIP3   OH232907   1.895   1.167   1.466 -0.1745  0.1460  0.0562
 3831TIP3    H132908   1.924   1.077   1.482 -0.5246  0.0634  0.2587
 3831TIP3    H232909   1.975   1.218   1.461 -0.0014  0.0199  1.1870
 3832TIP3   OH232910   2.578   2.225  11.497  0.4506 -0.3346 -0.5929
 3832TIP3    H132911   2.613   2.311  11.475 -0.0811 -0.1215 -0.5949
 3832TIP3    H232912   2.599   2.213  11.590 -1.1235  0.5910 -0.0948
 3833TIP3   OH232913   1.695   1.125  11.347 -0.7489  0.7192  0.1222
 3833TIP3    H132914   1.654   1.039  11.337 -1.4429  0.9506  0.8703
 3833TIP3    H232915   1.694   1.162  11.259  1.9827 -1.0660 -0.7823
 3834TIP3   OH232916   1.148   3.546  13.312 -0.3289  0.5826 -0.0327
 3834TIP3    H132917   1.215   3.614  13.309 -1.3590  1.6438  0.4213
 3834TIP3    H232918   1.068   3.589  13.281 -1.0559 -0.3525  0.4880
 3835TIP3   OH232919   0.423   2.043  12.582 -0.1872  0.0649  0.0230
 3835TIP3    H132920   0.454   2.030  12.492 -0.7587  0.6881 -0.2694
 3835TIP3    H232921   0.335   2.005  12.583 -0.3886  0.5332  0.1779
 3836TIP3   OH232922   2.341   0.141   0.921  0.5017 -0.0358  0.2379
 3836TIP3    H132923   2.401   0.180   0.857  1.2408  0.9766  1.4956
 3836TIP3    H232924   2.262   0.120   0.870  1.2759  0.1908 -1.1086
 3837TIP3   OH232925   5.766   5.129   6.125 -0.4697  0.2642 -0.6217
 3837TIP3    H132926   5.792   5.075   6.200  2.8788 -0.5449 -2.1966
 3837TIP3    H232927   5.748   5.215   6.163  0.7660 -0.2104  1.1588
 3838TIP3   OH232928   1.482   2.108  14.163  0.5003  0.0298  0.1237
 3838TIP3    H132929   1.453   2.017  14.161 -0.6270  0.3300  1.4034
 3838TIP3    H232930   1.545   2.115  14.091 -0.5484 -1.3641 -0.9714
 3839TIP3   OH232931   4.936   0.961  13.818 -0.1389  0.1231 -0.8394
 3839TIP3    H132932   4.887   1.015  13.880 -0.9223 -0.6808 -0.7537
 3839TIP3    H232933   4.980   1.025  13.761  0.0659  0.8611  0.1228
 3840TIP3   OH232934   2.230   0.646   2.053 -0.3353 -0.0057 -0.1459
 3840TIP3    H132935   2.160   0.619   1.994  0.8501  0.0827 -1.6325
 3840TIP3    H232936   2.255   0.734   2.023 -0.8544  0.7844  1.5845
 3841TIP3   OH232937   0.054   0.540   2.255  0.2966 -0.1171 -1.0489
 3841TIP3    H132938   0.147   0.528   2.240  0.2042 -1.1617 -0.8717
 3841TIP3    H232939   0.029   0.468   2.314 -0.3566  0.9161 -0.0092
 3842TIP3   OH232940   1.357   0.488  14.280 -0.3638  0.3877 -0.5480
 3842TIP3    H132941   1.366   0.546  14.205  0.2805 -0.2250 -0.9684
 3842TIP3    H232942   1.331   0.404  14.242 -0.3454  0.1553 -0.0536
 3843TIP3   OH232943   1.761   1.917   0.000 -0.5949 -0.0243 -0.3306
 3843TIP3    H132944   1.721   1.902  -0.086 -1.9755 -1.0629  0.4369
 3843TIP3    H232945   1.733   1.842   0.053  0.7042  0.2902  0.8733
 3844TIP3   OH232946   2.443   5.322  13.311  0.0175  0.4327  0.5196
 3844TIP3    H132947   2.480   5.235  13.318 -0.3824  0.3003  1.1498
 3844TIP3    H232948   2.513   5.381  13.339 -0.3058  0.1676  1.9764
 3845TIP3   OH232949   1.944   5.330   0.429  0.0274  0.4771 -0.0462
 3845TIP3    H132950   1.917   5.243   0.400 -1.5142  0.2904  1.7616
 3845TIP3    H232951   1.863   5.379   0.438  0.5912  1.1436  1.8602
 3846TIP3   OH232952   0.130   6.466   3.143 -0.1738 -0.2495  0.6117
 3846TIP3    H132953   0.192   6.405   3.182 -0.7780 -1.7123 -0.6378
 3846TIP3    H232954   0.180   6.546   3.129  1.3672 -1.3050 -0.1331
 3847TIP3   OH232955   3.668   5.662  14.571  0.2093 -1.1012  0.8408
 3847TIP3    H132956   3.683   5.740  14.624  0.5597  2.1880 -3.5628
 3847TIP3    H232957   3.582   5.675  14.532  0.6495 -2.4733 -0.6992
 3848TIP3   OH232958   0.591   3.938   2.442 -0.0193 -0.2518 -0.7335
 3848TIP3    H132959   0.607   3.846   2.418 -2.2457 -0.9580  0.1946
 3848TIP3    H232960   0.582   3.936   2.537  0.2419  1.0228 -0.6626
 3849TIP3   OH232961   2.269   3.984   1.085  0.4428 -0.3486  0.2520
 3849TIP3    H132962   2.305   3.896   1.095  0.3671 -0.3769  0.2737
 3849TIP3    H232963   2.293   4.029   1.165  1.1238 -0.1239 -0.0735
 3850TIP3   OH232964   0.718   2.804   1.318 -0.2892 -0.2027  0.0437
 3850TIP3    H132965   0.678   2.891   1.321  1.3044  0.6735 -1.7505
 3850TIP3    H232966   0.654   2.749   1.273  0.6520  1.3745 -3.5387
 3851TIP3   OH232967   5.295   2.551   6.384 -0.1535 -0.0082  0.2684
 3851TIP3    H132968   5.208   2.549   6.426  0.1266  1.0536  0.9239
 3851TIP3    H232969   5.356   2.540   6.457  0.2825 -0.1545 -0.1226
 3852TIP3   OH232970   3.444   5.089   3.300 -0.4533 -0.0528 -0.4366
 3852TIP3    H132971   3.415   5.145   3.227 -2.0858 -1.5717 -1.0231
 3852TIP3    H232972   3.367   5.039   3.324  1.4158 -3.9471 -1.6797
 3853TIP3   OH232973   5.447   4.121  15.446 -0.0758  0.4938  1.0358
 3853TIP3    H132974   5.480   4.112  15.535  0.3045 -0.1120  0.8423
 3853TIP3    H232975   5.515   4.082  15.391  0.1852  1.8222  0.3731
 3854TIP3   OH232976   1.795   1.048  13.791 -0.2888 -0.0343 -0.5405
 3854TIP3    H132977   1.868   1.075  13.735 -0.7702  0.0569 -1.1355
 3854TIP3    H232978   1.835   1.032  13.876  0.7128 -1.6734 -1.2792
 3855TIP3   OH232979   0.216   2.232  11.153  0.4689  0.0080 -0.1709
 3855TIP3    H132980   0.241   2.214  11.062 -1.3949  0.2297 -0.7669
 3855TIP3    H232981   0.226   2.148  11.198 -0.9045 -0.7188 -1.1634
 3856TIP3   OH232982   6.690   2.474  13.351  0.6075 -0.6426 -0.0765
 3856TIP3    H132983   6.731   2.404  13.300  1.6294 -0.0780 -0.0554
 3856TIP3    H232984   6.598   2.474  13.322  1.2911  0.0938 -2.4390
 3857TIP3   OH232985   3.991   4.978  12.081  0.7048 -0.3648  0.2805
 3857TIP3    H132986   4.071   4.928  12.065  1.8772  2.0305 -2.1119
 3857TIP3    H232987   3.928   4.943  12.018  0.0323 -1.7118  1.6286
 3858TIP3   OH232988   6.288   1.861  14.956  0.5049 -0.3925 -0.6474
 3858TIP3    H132989   6.355   1.817  14.903 -0.3711 -2.8130  0.1194
 3858TIP3    H232990   6.273   1.802  15.030 -2.2786  0.1356 -0.6653
 3859TIP3   OH232991   5.754   3.710  15.241 -0.1856 -0.0312  0.6243
 3859TIP3    H132992   5.830   3.736  15.293  0.5708 -1.9181  0.5508
 3859TIP3    H232993   5.737   3.784  15.183  1.8045  0.3096  0.4267
 3860TIP3   OH232994   0.372   5.457  12.192 -0.0239 -0.0121  0.2335
 3860TIP3    H132995   0.345   5.516  12.122  0.9743 -2.0654 -2.0371
 3860TIP3    H232996   0.465   5.475  12.205  0.7165 -2.0301 -1.6460
 3861TIP3   OH232997   4.694   1.115  13.538  0.2347 -0.1633  0.3310
 3861TIP3    H132998   4.692   1.019  13.541  1.1923 -0.1876  2.7078
 3861TIP3    H232999   4.785   1.136  13.517 -0.0428  0.2249 -0.4840
 3862TIP3   OH233000   6.493   0.768  15.592  0.3406 -0.2971  0.1454
 3862TIP3    H133001   6.521   0.729  15.510 -0.9168 -0.7572 -0.0832
 3862TIP3    H233002   6.470   0.694  15.648  0.5472  0.0351  0.6815
 3863TIP3   OH233003   1.003   6.632   3.219  0.0857 -0.0878  0.8693
 3863TIP3    H133004   1.036   6.718   3.192  2.5127 -1.1995  0.0190
 3863TIP3    H233005   1.044   6.571   3.158 -1.8763 -1.8638  1.2118
 3864TIP3   OH233006   2.110   2.617   0.166 -0.3301  0.6447  0.0742
 3864TIP3    H133007   2.060   2.645   0.244  1.1037  5.1877 -0.3369
 3864TIP3    H233008   2.200   2.609   0.196  0.0794  1.4364 -0.8861
 3865TIP3   OH233009   2.022   3.651  14.576 -0.7179 -0.6243  0.2921
 3865TIP3    H133010   2.078   3.697  14.515 -0.7031 -0.2687  0.5722
 3865TIP3    H233011   2.070   3.571  14.597 -1.5065 -1.6385 -1.5253
 3866TIP3   OH233012   5.964   1.734   4.914  0.4057 -0.1388  0.2686
 3866TIP3    H133013   5.956   1.726   4.819 -0.5396 -1.6405  0.4373
 3866TIP3    H233014   5.918   1.815   4.935  2.9474  1.7085 -0.7652
 3867TIP3   OH233015   0.828   3.052  12.073 -0.4910  0.6379  0.4902
 3867TIP3    H133016   0.838   3.147  12.079 -0.3547  0.6281  0.4160
 3867TIP3    H233017   0.734   3.038  12.063 -0.3092  0.9271 -2.4711
 3868TIP3   OH233018   1.753   3.560  15.777  0.3325 -0.4036 -0.2817
 3868TIP3    H133019   1.706   3.593  15.854  1.2875 -1.0003  0.5822
 3868TIP3    H233020   1.753   3.465  15.787  1.0733 -0.4532 -0.6473
 3869TIP3   OH233021   4.479   6.423   3.626 -0.2189  0.2542  0.1483
 3869TIP3    H133022   4.440   6.409   3.713 -1.4703  0.9227 -0.2798
 3869TIP3    H233023   4.495   6.517   3.622  0.8810  0.0696  0.0707
 3870TIP3   OH233024   1.108   2.615  12.426  0.5187  0.1522  0.3013
 3870TIP3    H133025   1.162   2.543  12.392 -0.1072  0.0610 -0.5221
 3870TIP3    H233026   1.025   2.607  12.380  0.5644  1.6391 -0.0993
 3871TIP3   OH233027   5.070   2.571   2.499  0.1502  0.3313 -0.5670
 3871TIP3    H133028   5.135   2.627   2.540 -0.3553 -0.6327  1.7033
 3871TIP3    H233029   5.087   2.484   2.535 -1.5214 -0.2022 -0.9809
 3872TIP3   OH233030   3.626   4.930  14.757 -1.0126  0.2157  0.0314
 3872TIP3    H133031   3.557   4.882  14.804 -0.6052 -1.1824 -0.7287
 3872TIP3    H233032   3.611   4.909  14.665 -0.1380  0.6681 -0.2211
 3873TIP3   OH233033   2.960   4.422  13.009  0.4258  0.1134  0.2800
 3873TIP3    H133034   3.018   4.421  12.933  0.8048  0.6255  0.5619
 3873TIP3    H233035   2.874   4.395  12.974  0.9932 -1.4410  0.0017
 3874TIP3   OH233036   6.705   2.838  13.726 -0.0120 -0.4797  0.3760
 3874TIP3    H133037   6.656   2.827  13.807  1.0963  2.6752  1.6414
 3874TIP3    H233038   6.797   2.831  13.753  0.3913 -2.2528 -1.2145
 3875TIP3   OH233039   4.121   6.736  14.738 -0.2182 -0.3660 -0.3504
 3875TIP3    H133040   4.155   6.779  14.659  0.5298  0.6715  0.5206
 3875TIP3    H233041   4.159   6.785  14.811 -0.6153 -1.5324  0.6701
 3876TIP3   OH233042   4.505   4.080  11.265 -0.0959 -0.1293 -0.1532
 3876TIP3    H133043   4.466   4.003  11.225  0.2468 -0.3753 -0.0205
 3876TIP3    H233044   4.499   4.148  11.198  2.7251 -1.1684 -1.6268
 3877TIP3   OH233045   0.967   2.000  16.407 -0.0517 -0.0974  0.1505
 3877TIP3    H133046   0.996   1.976  16.319  1.8775  0.7400  0.5017
 3877TIP3    H233047   0.936   2.090  16.397 -0.4732 -0.2338  0.2099
 3878TIP3   OH233048   3.685   4.981  15.015  0.9459 -0.2160  0.2173
 3878TIP3    H133049   3.675   4.970  14.920  2.9528 -1.6520  0.1265
 3878TIP3    H233050   3.636   5.061  15.034  0.5596  0.1651 -2.0339
 3879TIP3   OH233051   3.457   4.549  11.660 -0.5017  0.4542 -0.4255
 3879TIP3    H133052   3.475   4.504  11.742  0.8364  0.1080 -0.8923
 3879TIP3    H233053   3.361   4.555  11.656 -0.6996 -1.7580 -0.0368
 3880TIP3   OH233054   2.312   4.801  11.936 -0.1892  0.3042 -0.0461
 3880TIP3    H133055   2.405   4.810  11.915 -0.4770  1.1284 -1.0440
 3880TIP3    H233056   2.306   4.822  12.029  0.5496  0.7843 -0.0999
 3881TIP3   OH233057   4.832   3.490   5.349 -0.1104 -0.0622 -0.1468
 3881TIP3    H133058   4.913   3.508   5.302  0.6918 -1.4578  0.6504
 3881TIP3    H233059   4.860   3.457   5.435 -1.5131 -0.5986  0.1348
 3882TIP3   OH233060   5.789   2.242  11.777 -0.0981  0.1896  0.1118
 3882TIP3    H133061   5.731   2.179  11.735  1.0755  0.2286 -1.6844
 3882TIP3    H233062   5.801   2.209  11.866  0.3604 -2.0626 -0.7283
 3883TIP3   OH233063   0.476   2.370   4.564 -0.5513  0.2200 -0.0760
 3883TIP3    H133064   0.494   2.444   4.622  0.2974  0.3821 -0.5384
 3883TIP3    H233065   0.388   2.342   4.590  0.1359 -0.2965  1.9220
 3884TIP3   OH233066   4.059   2.602  12.873  0.3871  0.2409  0.0323
 3884TIP3    H133067   4.050   2.648  12.956 -1.5126 -2.7505  1.6980
 3884TIP3    H233068   4.109   2.523  12.895 -0.3859 -0.7582 -1.5974
 3885TIP3   OH233069   3.566   2.372  16.345  0.7826 -0.0547 -0.0929
 3885TIP3    H133070   3.493   2.400  16.401  2.0233 -1.0397  2.1667
 3885TIP3    H233071   3.611   2.453  16.322 -1.0981  0.5990 -1.7446
 3886TIP3   OH233072   0.963   1.475  11.246 -0.4565 -0.0407 -0.2034
 3886TIP3    H133073   0.893   1.489  11.309 -1.6393  0.5866 -1.6004
 3886TIP3    H233074   0.996   1.562  11.227  1.6245 -0.4092  1.3712
 3887TIP3   OH233075   2.309   2.361   5.993 -0.1304  0.6599 -0.1359
 3887TIP3    H133076   2.403   2.377   5.998  0.2017 -0.7414 -1.0335
 3887TIP3    H233077   2.285   2.386   5.904 -0.0988 -1.1036 -0.6957
 3888TIP3   OH233078   0.662   5.752  11.136 -0.2954 -0.2180  0.1969
 3888TIP3    H133079   0.641   5.844  11.122 -1.0892 -0.5379 -0.7670
 3888TIP3    H233080   0.719   5.728  11.063  0.2990 -0.3718  0.7017
 3889TIP3   OH233081   4.465   6.389   0.426  0.4120  0.2308  0.7824
 3889TIP3    H133082   4.468   6.344   0.510 -1.6742 -2.2017 -0.3287
 3889TIP3    H233083   4.396   6.455   0.437  0.4352  0.2011  1.1150
 3890TIP3   OH233084   1.725   6.404   0.207  0.1046 -0.1012  0.3237
 3890TIP3    H133085   1.633   6.397   0.182  0.4103 -1.8710 -0.4939
 3890TIP3    H233086   1.742   6.325   0.258  0.5184  1.5490  2.9366
 3891TIP3   OH233087   1.401   4.354  14.336 -0.0843 -0.2767  0.0535
 3891TIP3    H133088   1.399   4.284  14.401 -1.9492 -0.1890  0.1517
 3891TIP3    H233089   1.344   4.422  14.373 -0.6474  0.0501 -1.3753
 3892TIP3   OH233090   6.214   5.302   5.966  0.1812 -0.4574 -0.9730
 3892TIP3    H133091   6.256   5.350   6.038 -1.5481 -0.0934 -0.1658
 3892TIP3    H233092   6.121   5.325   5.973 -0.8977 -4.4392 -0.1179
 3893TIP3   OH233093   4.663   3.441  10.620  0.2387  0.8980 -0.4948
 3893TIP3    H133094   4.705   3.375  10.676  3.6987  1.1458 -2.4881
 3893TIP3    H233095   4.639   3.393  10.541  1.7706  1.7235 -1.5121
 3894TIP3   OH233096   5.543   6.365  13.364  0.2135 -0.2351  0.3857
 3894TIP3    H133097   5.487   6.306  13.313 -1.1244  0.1255  1.3650
 3894TIP3    H233098   5.577   6.311  13.435  1.1394 -0.4494 -0.1995
 3895TIP3   OH233099   4.075   1.223  12.933  0.0854 -0.0856  0.3165
 3895TIP3    H133100   4.129   1.163  12.881 -0.7305 -0.4048 -0.1726
 3895TIP3    H233101   4.090   1.309  12.894 -1.2134 -0.4444 -1.0600
 3896TIP3   OH233102   2.278   6.579   2.899 -0.1210  0.1387 -0.5393
 3896TIP3    H133103   2.331   6.604   2.823  0.4871  1.5435  0.3082
 3896TIP3    H233104   2.188   6.598   2.874  0.0486  0.3368 -1.0023
 3897TIP3   OH233105   0.417   0.209   6.335  0.1188 -0.1770  0.4760
 3897TIP3    H133106   0.414   0.117   6.359  1.2685 -0.2740  0.2799
 3897TIP3    H233107   0.486   0.246   6.389 -0.0532  0.4819  0.2557
 3898TIP3   OH233108   6.583   3.140  16.924 -0.3759  0.6087  0.6095
 3898TIP3    H133109   6.536   3.134  17.007 -0.6204  0.1657  0.4463
 3898TIP3    H233110   6.535   3.081  16.865 -0.1937  0.8995  0.1617
 3899TIP3   OH233111   5.011   0.520  14.732  0.0637  0.8483 -0.8706
 3899TIP3    H133112   4.960   0.484  14.660  0.4497 -1.3182 -0.1146
 3899TIP3    H233113   4.965   0.492  14.811  1.2576  0.6464 -0.2258
 3900TIP3   OH233114   1.536   1.634   1.705 -0.1218  0.0203 -0.4175
 3900TIP3    H133115   1.545   1.725   1.679  0.2921 -0.3719 -1.7154
 3900TIP3    H233116   1.616   1.614   1.754  0.8841 -0.2526 -2.0848
 3901TIP3   OH233117   2.232   6.296  16.512 -0.2789  0.2622 -0.4755
 3901TIP3    H133118   2.203   6.212  16.477 -1.0870 -0.4767  1.7658
 3901TIP3    H233119   2.172   6.313  16.585  2.1281  0.9195  1.4881
 3902TIP3   OH233120   1.971   3.165   1.970 -0.4689 -0.3822  0.3319
 3902TIP3    H133121   1.962   3.072   1.992 -0.1447 -0.1965  1.2732
 3902TIP3    H233122   1.901   3.181   1.907  0.4864 -1.6565 -1.1348
 3903TIP3   OH233123   4.865   2.588   4.475 -0.5876 -0.7132  0.6639
 3903TIP3    H133124   4.813   2.612   4.398 -1.7220 -0.7757  1.3869
 3903TIP3    H233125   4.914   2.667   4.496  0.1550 -0.8632 -0.4419
 3904TIP3   OH233126   0.997   6.001  12.143 -0.1318  0.2643 -0.1715
 3904TIP3    H133127   0.917   5.984  12.093 -1.2969  1.8685  1.0183
 3904TIP3    H233128   1.038   5.915  12.152  0.0665 -0.1333 -3.6060
 3905TIP3   OH233129   3.916   3.167   4.065 -0.2762  0.0891  0.0187
 3905TIP3    H133130   3.935   3.075   4.082 -0.8349  0.0279  0.3426
 3905TIP3    H233131   3.976   3.192   3.995  0.8663 -0.1302  0.9048
 3906TIP3   OH233132   3.292   6.799   5.235 -0.2067 -0.0602  0.2932
 3906TIP3    H133133   3.386   6.813   5.227 -0.1225 -0.1452  1.0922
 3906TIP3    H233134   3.283   6.725   5.295 -0.7433 -1.1177 -1.0256
 3907TIP3   OH233135   6.026   3.470   1.789 -0.3102  0.3939  0.3891
 3907TIP3    H133136   6.015   3.379   1.819 -2.3717  0.9394  1.5141
 3907TIP3    H233137   6.114   3.494   1.817  0.5465 -1.4392 -0.5327
 3908TIP3   OH233138   5.218   1.278  15.884  0.3117 -0.2029 -0.1252
 3908TIP3    H133139   5.247   1.217  15.951 -3.0059 -0.3137  1.4366
 3908TIP3    H233140   5.203   1.360  15.931 -1.6165 -0.1467 -0.7264
 3909TIP3   OH233141   0.894   2.997  10.607 -0.3531  1.0498 -0.1184
 3909TIP3    H133142   0.883   2.993  10.512  0.1271 -0.0036 -0.1458
 3909TIP3    H233143   0.906   3.090  10.626  2.0365  1.0815 -1.4009
 3910TIP3   OH233144   2.258   1.692   6.535  0.1183 -0.3741  0.3900
 3910TIP3    H133145   2.222   1.739   6.610  0.6515  0.0462  0.3884
 3910TIP3    H233146   2.353   1.699   6.545  0.2007  0.0432 -0.5390
 3911TIP3   OH233147   0.902   0.624  16.753 -0.3501 -0.3687  0.2936
 3911TIP3    H133148   0.923   0.538  16.716 -1.8684 -0.7808  0.2877
 3911TIP3    H233149   0.980   0.649  16.801 -0.0958 -2.0568  0.8432
 3912TIP3   OH233150   3.349   3.691   4.907  0.4920  0.6657 -0.2829
 3912TIP3    H133151   3.350   3.726   4.996 -0.7408  3.1297 -1.1631
 3912TIP3    H233152   3.274   3.632   4.905 -1.4372  2.9640 -0.4235
 3913TIP3   OH233153   1.806   5.105   4.855 -0.0866  0.1781  0.2864
 3913TIP3    H133154   1.878   5.136   4.909  0.1560  2.3093 -1.1466
 3913TIP3    H233155   1.729   5.151   4.887 -0.5281 -0.8143  0.7123
 3914TIP3   OH233156   3.362   2.190  11.636 -0.1377 -0.3414  0.4789
 3914TIP3    H133157   3.334   2.182  11.727 -1.3779  0.1707  0.1679
 3914TIP3    H233158   3.287   2.228  11.591  0.8132  0.3833 -0.5676
 3915TIP3   OH233159   1.340   6.546  16.316 -0.0018 -0.4346 -0.0385
 3915TIP3    H133160   1.432   6.570  16.310 -0.3806  0.7241 -2.7128
 3915TIP3    H233161   1.340   6.458  16.353  2.1986 -0.6154 -0.3329
 3916TIP3   OH233162   6.525   4.462   2.502  0.2578  0.4314  0.2500
 3916TIP3    H133163   6.521   4.411   2.583  0.1102 -0.7508 -0.4782
 3916TIP3    H233164   6.477   4.542   2.522  0.7501  0.4431  1.5216
 3917TIP3   OH233165   0.219   6.089  16.055  0.0033 -0.8173 -0.4611
 3917TIP3    H133166   0.294   6.029  16.056  0.2454 -0.5245 -0.8403
 3917TIP3    H233167   0.205   6.109  15.963  0.0597 -0.1223 -0.3215
 3918TIP3   OH233168   5.357   0.219  16.227  0.3613 -0.0771  0.0390
 3918TIP3    H133169   5.374   0.278  16.300  0.7410 -0.0928 -0.0380
 3918TIP3    H233170   5.418   0.147  16.239  0.8716  0.2336 -0.6481
 3919TIP3   OH233171   4.621   2.421  14.840  0.3810  0.1947  0.3046
 3919TIP3    H133172   4.612   2.469  14.922 -2.5426  0.3180  0.0386
 3919TIP3    H233173   4.678   2.475  14.785 -0.0076  1.5914  1.2345
 3920TIP3   OH233174   2.781   5.326   1.845  0.3734 -0.0649 -0.2226
 3920TIP3    H133175   2.721   5.400   1.834  0.4347  0.0628  0.2912
 3920TIP3    H233176   2.865   5.367   1.866  0.1988 -0.3045  1.0196
 3921TIP3   OH233177   4.578   6.783  10.929  0.1247 -0.5616 -0.8980
 3921TIP3    H133178   4.600   6.692  10.912 -3.0759 -1.6994  0.1896
 3921TIP3    H233179   4.513   6.806  10.863 -0.4267  0.3041 -0.1008
 3922TIP3   OH233180   5.932   3.355  13.351  0.4210 -0.5376  0.2589
 3922TIP3    H133181   5.928   3.323  13.261 -1.3898 -0.1949  0.1643
 3922TIP3    H233182   6.016   3.325  13.384  0.0705 -2.8333 -0.7638
 3923TIP3   OH233183   6.543   2.523   0.449  0.3775 -0.0738  0.1650
 3923TIP3    H133184   6.454   2.544   0.474  0.7384  0.8122  0.7551
 3923TIP3    H233185   6.548   2.544   0.356 -0.0712 -0.3048  0.0850
 3924TIP3   OH233186   2.957   4.246  15.494  0.0054  0.4876  0.1595
 3924TIP3    H133187   2.961   4.185  15.421 -1.1319  1.0024 -0.3602
 3924TIP3    H233188   3.013   4.319  15.467 -1.2998  1.2063 -0.7552
 3925TIP3   OH233189   1.502   5.990  13.524 -0.1741  0.4714  0.5785
 3925TIP3    H133190   1.578   6.041  13.552  0.8057 -0.3382 -0.4801
 3925TIP3    H233191   1.455   6.048  13.464  0.4973  0.4337 -0.0002
 3926TIP3   OH233192   4.334   6.627   5.219 -0.0834  0.1892  0.3792
 3926TIP3    H133193   4.424   6.599   5.236 -0.3856 -0.8822  0.2679
 3926TIP3    H233194   4.326   6.626   5.124 -0.4603 -0.5162  0.4179
 3927TIP3   OH233195   2.448   2.001   4.528 -0.2339 -0.1518  0.6808
 3927TIP3    H133196   2.410   1.946   4.597 -1.9767  0.0261 -0.0750
 3927TIP3    H233197   2.426   1.955   4.447  1.0664  0.0704  0.1881
 3928TIP3   OH233198   0.746   4.923  12.553  1.1381  0.5667 -0.2118
 3928TIP3    H133199   0.816   4.960  12.499  1.6625  1.0828  0.7910
 3928TIP3    H233200   0.671   4.917  12.493  2.0566 -0.1294 -1.3462
 3929TIP3   OH233201   6.262   5.920   0.184 -0.1122  0.3577 -0.1757
 3929TIP3    H133202   6.255   5.957   0.272 -0.6241 -1.0672  0.4048
 3929TIP3    H233203   6.307   5.837   0.196 -0.5028 -0.0193 -1.2093
 3930TIP3   OH233204   3.143   1.141  11.433  0.7523  0.1444 -0.0607
 3930TIP3    H133205   3.090   1.205  11.384  1.1635 -0.0327 -0.7558
 3930TIP3    H233206   3.158   1.183  11.518 -1.5120 -0.3046  0.6443
 3931TIP3   OH233207   5.621   0.610  12.827  0.0330  0.0270 -0.3706
 3931TIP3    H133208   5.627   0.516  12.843 -1.9728 -0.0206  0.4202
 3931TIP3    H233209   5.678   0.649  12.892  0.5204 -0.6124 -0.4022
 3932TIP3   OH233210   1.860   6.244   1.322  0.4326 -0.0427  0.1659
 3932TIP3    H133211   1.853   6.239   1.227  1.2298 -2.1371  0.1435
 3932TIP3    H233212   1.868   6.152   1.350  0.3801  0.5302  2.2316
 3933TIP3   OH233213   4.751   1.642  12.932  0.9494  0.1564  0.2540
 3933TIP3    H133214   4.723   1.551  12.938  2.4418 -0.3082  0.4921
 3933TIP3    H233215   4.731   1.679  13.018 -0.3220  0.2761 -0.0706
 3934TIP3   OH233216   3.401   1.863   1.898 -0.5355 -0.0473  0.4221
 3934TIP3    H133217   3.367   1.921   1.966 -0.9832 -0.4309  0.5277
 3934TIP3    H233218   3.358   1.893   1.817  0.5103  0.8460  0.1808
 3935TIP3   OH233219   0.234   3.658   1.216  0.6641 -0.3635 -0.1079
 3935TIP3    H133220   0.291   3.597   1.169  0.7058  0.4837 -1.1764
 3935TIP3    H233221   0.193   3.710   1.148  0.5181  0.7251  0.7859
 3936TIP3   OH233222   0.241   0.573  15.373 -0.4166 -0.4954 -0.3720
 3936TIP3    H133223   0.312   0.513  15.397  0.8555  0.7932 -0.7960
 3936TIP3    H233224   0.265   0.656  15.415 -2.3465 -0.3511  0.5285
 3937TIP3   OH233225   2.829   5.299   5.153  0.3431  0.4133  0.1724
 3937TIP3    H133226   2.916   5.326   5.123 -0.1697  0.8472 -0.9914
 3937TIP3    H233227   2.805   5.366   5.217  0.4427  0.9036 -0.2865
 3938TIP3   OH233228   5.444   3.557   3.526  0.2480  0.4813 -0.3131
 3938TIP3    H133229   5.504   3.629   3.506  1.3165 -0.1420  0.5569
 3938TIP3    H233230   5.464   3.490   3.462 -0.8758  0.9948 -1.2418
 3939TIP3   OH233231   0.953   2.131   4.867 -0.1341 -0.5592 -0.3469
 3939TIP3    H133232   0.882   2.079   4.830  0.3799 -0.8935 -0.8819
 3939TIP3    H233233   1.022   2.127   4.801  0.5908 -0.6950  0.4043
 3940TIP3   OH233234   6.109   6.114   0.043 -0.0096  0.0862 -0.0633
 3940TIP3    H133235   6.111   6.075  -0.045 -0.3801 -0.1860  0.0460
 3940TIP3    H233236   6.154   6.051   0.098 -2.6979 -1.4282  0.5847
 3941TIP3   OH233237   1.348   1.984   2.290  0.1948  0.4545  0.1500
 3941TIP3    H133238   1.274   1.946   2.339  0.6147 -1.5985 -0.7168
 3941TIP3    H233239   1.307   2.049   2.233 -0.7002  0.6144  0.9408
 3942TIP3   OH233240   6.424   5.902   5.495  0.1920  0.1227 -0.1628
 3942TIP3    H133241   6.341   5.863   5.524 -0.6968  0.2143 -2.3969
 3942TIP3    H233242   6.405   5.995   5.486  0.9750  0.3762  0.6581
 3943TIP3   OH233243   6.299   4.655  15.481 -0.7766  0.0376  0.7486
 3943TIP3    H133244   6.289   4.712  15.405  0.4399 -1.4483 -0.5990
 3943TIP3    H233245   6.298   4.715  15.556 -0.9965  1.6500 -0.4737
 3944TIP3   OH233246   5.070   6.641  15.183 -0.1395 -0.0203  0.2329
 3944TIP3    H133247   5.129   6.571  15.210  0.1608 -0.3632 -1.2373
 3944TIP3    H233248   4.998   6.596  15.138 -0.1566  0.5734 -0.3544
 3945TIP3   OH233249   2.658   2.798  14.370 -0.0065 -0.2513 -0.3635
 3945TIP3    H133250   2.753   2.814  14.374 -0.0035  0.3792 -2.2262
 3945TIP3    H233251   2.638   2.794  14.277 -1.6969 -1.2485  0.0054
 3946TIP3   OH233252   4.760   5.342  13.957  0.0869 -0.0107  0.3165
 3946TIP3    H133253   4.691   5.335  14.024  1.5384  1.5414  2.1068
 3946TIP3    H233254   4.829   5.283  13.988 -0.1083 -1.0113 -1.0781
 3947TIP3   OH233255   0.074   1.169   3.297 -0.1575 -0.2272 -0.3721
 3947TIP3    H133256   0.168   1.180   3.283  0.0262 -0.7295  0.3906
 3947TIP3    H233257   0.053   1.233   3.366 -0.7159  1.0503 -1.6633
 3948TIP3   OH233258   0.997   0.215  11.915  0.1021  0.3058  0.2716
 3948TIP3    H133259   1.012   0.204  12.009  2.4404  2.0119  0.1976
 3948TIP3    H233260   0.966   0.305  11.905 -0.8409 -0.0873 -0.5591
 3949TIP3   OH233261   6.540   0.933  11.119  1.2175  0.3944  0.0897
 3949TIP3    H133262   6.578   0.880  11.189 -0.8863  0.3353  1.2550
 3949TIP3    H233263   6.606   0.931  11.050  2.7552 -0.7328  1.4986
 3950TIP3   OH233264   2.690   4.474  15.139 -0.0722 -0.5096 -0.7378
 3950TIP3    H133265   2.627   4.478  15.211  1.9469 -0.9491  1.1233
 3950TIP3    H233266   2.680   4.385  15.104 -1.2591 -0.2015 -1.2589
 3951TIP3   OH233267   5.022   1.549   2.703  0.1568 -0.3610 -0.2128
 3951TIP3    H133268   4.936   1.553   2.662  0.4058  0.3732 -0.6843
 3951TIP3    H233269   5.072   1.488   2.648  0.2089 -0.0920 -0.4662
 3952TIP3   OH233270   0.866   0.403  11.639 -0.3686  0.0984  0.4908
 3952TIP3    H133271   0.900   0.486  11.606 -1.3909  1.6926  3.1386
 3952TIP3    H233272   0.919   0.336  11.595 -0.5037  1.9863 -2.9222
 3953TIP3   OH233273   5.720   5.022  16.102 -0.2636 -0.0079  0.2982
 3953TIP3    H133274   5.718   5.089  16.033  0.3142 -0.6220 -0.3358
 3953TIP3    H233275   5.755   5.067  16.178  2.1310 -0.0429 -0.6939
 3954TIP3   OH233276   0.444   4.236  12.661 -0.3069  0.5981  0.1179
 3954TIP3    H133277   0.435   4.250  12.566  1.1274 -0.3262 -0.1822
 3954TIP3    H233278   0.538   4.229  12.675 -0.4899  0.9699  1.6696
 3955TIP3   OH233279   0.395   2.699   1.219 -0.3545  0.4227  0.5881
 3955TIP3    H133280   0.406   2.782   1.265  0.5150  0.5128  0.2394
 3955TIP3    H233281   0.421   2.718   1.128  2.3861 -0.7967  1.0145
 3956TIP3   OH233282   5.123   4.428   0.934  0.6476  0.0054  0.1775
 3956TIP3    H133283   5.030   4.418   0.954  0.9990 -1.4363  1.2153
 3956TIP3    H233284   5.164   4.447   1.018  1.5150 -1.2438  0.0592
 3957TIP3   OH233285   4.100   1.664   5.756  0.2532  0.5953  0.4601
 3957TIP3    H133286   4.053   1.596   5.805  0.0594 -0.4933 -1.1395
 3957TIP3    H233287   4.071   1.651   5.665 -0.7644  3.6523  0.2443
 3958TIP3   OH233288   0.737   4.751  11.305  0.0738 -0.2247  0.2526
 3958TIP3    H133289   0.716   4.838  11.338 -0.9454  0.1081 -1.1846
 3958TIP3    H233290   0.710   4.753  11.213 -0.2688 -2.1660  0.2777
 3959TIP3   OH233291   3.582   3.984   0.338 -0.4661 -0.5072  0.1348
 3959TIP3    H133292   3.499   4.024   0.309 -0.3651  2.9425  3.7154
 3959TIP3    H233293   3.647   4.053   0.324  1.0967 -1.8069  0.8174
 3960TIP3   OH233294   3.083   2.515   1.015  0.1405 -0.2557 -0.3247
 3960TIP3    H133295   3.055   2.491   1.103  1.1741  0.9718  0.3568
 3960TIP3    H233296   3.052   2.604   1.003  2.2881  0.5583 -0.1620
 3961TIP3   OH233297   5.902   6.148  13.537 -0.1808  0.6158 -0.2250
 3961TIP3    H133298   5.934   6.096  13.463  0.1931 -2.4156  1.9021
 3961TIP3    H233299   5.981   6.181  13.579 -0.0627 -1.5223  1.3629
 3962TIP3   OH233300   5.749   3.610  14.853  0.7960 -0.0346 -0.0644
 3962TIP3    H133301   5.701   3.608  14.935  3.5088 -1.2257  1.6407
 3962TIP3    H233302   5.683   3.628  14.787 -1.9661 -1.6967  2.0247
 3963TIP3   OH233303   3.610   2.359  15.837 -0.2322  0.1130 -0.6845
 3963TIP3    H133304   3.589   2.375  15.745 -1.4668  0.6055 -0.3295
 3963TIP3    H233305   3.663   2.435  15.863 -2.1699  1.4155 -0.2813
 3964TIP3   OH233306   3.551   5.650  14.279 -0.4218  0.1832  0.1939
 3964TIP3    H133307   3.642   5.681  14.274 -0.2049 -0.1807  1.5124
 3964TIP3    H233308   3.507   5.692  14.206  0.4588  1.5800  0.4421
 3965TIP3   OH233309   6.235   4.987   2.910 -1.1301  0.4854  0.3812
 3965TIP3    H133310   6.251   5.063   2.966  3.8478  2.1812 -2.7348
 3965TIP3    H233311   6.218   5.025   2.824 -1.7240 -2.0341 -0.6813
 3966TIP3   OH233312   4.282   6.755   2.978 -0.4053 -0.1898 -0.0304
 3966TIP3    H133313   4.267   6.692   3.048 -0.1323 -1.8131 -1.3501
 3966TIP3    H233314   4.257   6.840   3.015 -1.1801 -1.1236  1.6835
 3967TIP3   OH233315   5.900   2.461  12.517 -0.1100 -0.1161 -0.0246
 3967TIP3    H133316   5.991   2.450  12.489 -0.4835  0.9420 -1.8725
 3967TIP3    H233317   5.849   2.411  12.453 -0.9614  1.5031 -0.6662
 3968TIP3   OH233318   2.262   0.135  14.268 -0.2137  0.1140 -0.2181
 3968TIP3    H133319   2.286   0.130  14.176 -0.0242 -0.1363 -0.1593
 3968TIP3    H233320   2.175   0.173  14.269  0.0001  0.6142 -0.4677
 3969TIP3   OH233321   6.551   6.243   2.579 -0.4705  0.2944 -0.5821
 3969TIP3    H133322   6.555   6.171   2.516 -0.2585  0.4615 -0.7627
 3969TIP3    H233323   6.638   6.281   2.577  0.5536 -1.6088  2.0835
 3970TIP3   OH233324   4.132   0.311  14.466 -0.3725  0.1028 -0.6611
 3970TIP3    H133325   4.070   0.311  14.539 -1.2392  0.7356 -1.3764
 3970TIP3    H233326   4.199   0.374  14.492  0.2973 -1.0106  0.3717
 3971TIP3   OH233327   1.622   3.218  15.577  0.1734  0.0056  0.1235
 3971TIP3    H133328   1.692   3.171  15.532 -0.4193  0.3005 -1.1598
 3971TIP3    H233329   1.543   3.166  15.558 -0.3420  1.0140 -0.5648
 3972TIP3   OH233330   1.169   0.970  13.534  0.6189  0.1269  0.1910
 3972TIP3    H133331   1.246   0.964  13.478  1.3787  2.0504  0.9411
 3972TIP3    H233332   1.200   0.940  13.620  1.2832  3.1513  1.0993
 3973TIP3   OH233333   0.167   0.914  12.278  0.0687 -0.0970 -0.5064
 3973TIP3    H133334   0.177   1.009  12.287 -0.5462 -0.1501  1.2334
 3973TIP3    H233335   0.244   0.886  12.230  1.5924  0.9936  1.1569
 3974TIP3   OH233336   3.664   5.419  11.319 -0.4172 -0.2716  0.2056
 3974TIP3    H133337   3.625   5.333  11.340  0.6352 -1.1298 -1.2091
 3974TIP3    H233338   3.740   5.399  11.265 -0.5431  1.6088 -0.7499
 3975TIP3   OH233339   1.116   3.934  10.968 -0.7623 -0.7202  0.1470
 3975TIP3    H133340   1.140   3.973  10.884  1.0544 -0.5630  0.6986
 3975TIP3    H233341   1.030   3.893  10.952 -0.4649 -0.6891 -1.7664
 3976TIP3   OH233342   1.850   2.471  13.049  0.3996  0.4086  0.2548
 3976TIP3    H133343   1.901   2.421  12.985  1.3832  0.7108  0.7802
 3976TIP3    H233344   1.916   2.511  13.106 -0.4674 -0.2597  1.7763
 3977TIP3   OH233345   6.389   2.812   3.489  0.2749  0.6281 -0.1984
 3977TIP3    H133346   6.333   2.735   3.498  1.3271 -0.2261 -0.6834
 3977TIP3    H233347   6.444   2.792   3.414  0.5069  1.9132 -0.3950
 3978TIP3   OH233348   2.785   5.053  15.097  0.2713 -0.0655 -0.2023
 3978TIP3    H133349   2.872   5.036  15.133  0.2270 -0.8609 -0.4718
 3978TIP3    H233350   2.800   5.065  15.003  0.1551  0.3384 -0.1738
 3979TIP3   OH233351   4.764   4.593  13.409  0.4263 -0.0813  0.1783
 3979TIP3    H133352   4.773   4.536  13.485 -1.3866  0.3249  0.7509
 3979TIP3    H233353   4.762   4.682  13.446  1.4847  0.2549 -0.5383
 3980TIP3   OH233354   6.283   0.087   2.892  0.2134  0.1762  0.3121
 3980TIP3    H133355   6.236   0.006   2.874 -0.2853  0.6967 -0.8845
 3980TIP3    H233356   6.247   0.118   2.975 -0.1085 -0.4574  0.4137
 3981TIP3   OH233357   1.882   2.367  13.790 -0.7737  0.3727 -0.1707
 3981TIP3    H133358   1.878   2.355  13.885  0.9326  0.4399 -0.0572
 3981TIP3    H233359   1.792   2.386  13.764 -1.8007 -2.2542  1.0748
 3982TIP3   OH233360   2.262   4.284   4.681 -0.0346  0.4116 -0.2152
 3982TIP3    H133361   2.251   4.238   4.598 -0.0597 -0.1406  0.0895
 3982TIP3    H233362   2.232   4.222   4.747  0.5846  0.6063  0.2595
 3983TIP3   OH233363   0.145   3.107   3.793 -0.7709 -0.1093  1.1168
 3983TIP3    H133364   0.085   3.055   3.739  0.3334  0.2310 -0.5194
 3983TIP3    H233365   0.130   3.197   3.765  1.9293 -0.1843 -0.9276
 3984TIP3   OH233366   6.752   1.509  16.931 -0.3500 -0.3174  0.3341
 3984TIP3    H133367   6.819   1.578  16.926  0.8912 -1.5896 -2.6395
 3984TIP3    H233368   6.767   1.467  17.016  0.7251  1.2382  0.9593
 3985TIP3   OH233369   3.534   1.919  14.674  0.4149 -0.2265 -0.1581
 3985TIP3    H133370   3.528   2.015  14.674 -2.0389 -0.2879  1.3757
 3985TIP3    H233371   3.532   1.895  14.581  0.5439  1.1817 -0.5466
 3986TIP3   OH233372   5.404   6.080  12.824 -0.6840 -0.0894  0.1638
 3986TIP3    H133373   5.444   6.140  12.887 -0.0308 -2.0327  1.7299
 3986TIP3    H233374   5.333   6.038  12.874 -1.2254 -0.5090 -0.9353
 3987TIP3   OH233375   3.312   2.080   3.612 -0.0090  0.2495 -0.2479
 3987TIP3    H133376   3.398   2.073   3.570 -0.5742  1.2347 -1.6973
 3987TIP3    H233377   3.310   2.169   3.647 -0.2417  0.0595  0.2226
 3988TIP3   OH233378   4.942   4.680   5.381  0.0181  0.4883  0.2440
 3988TIP3    H133379   5.032   4.688   5.349 -0.7125  1.7236 -1.6648
 3988TIP3    H233380   4.921   4.588   5.370  0.3063  0.6037 -1.5255
 3989TIP3   OH233381   4.627   2.376   5.683 -0.3495  0.3501 -0.5723
 3989TIP3    H133382   4.542   2.414   5.660 -2.4444 -1.4030  3.3507
 3989TIP3    H233383   4.646   2.410   5.771  3.0084  0.5069 -1.2189
 3990TIP3   OH233384   1.416   6.790   4.650 -0.2964 -0.1960  0.2891
 3990TIP3    H133385   1.470   6.741   4.588 -1.2418 -2.6919  1.3208
 3990TIP3    H233386   1.443   6.758   4.736  1.5477  3.7395  1.4059
 3991TIP3   OH233387   2.125   5.064  10.848 -0.1381  0.2218 -0.4618
 3991TIP3    H133388   2.083   4.980  10.830 -0.1808  0.2991 -0.7376
 3991TIP3    H233389   2.054   5.127  10.847 -0.0370  0.3322 -0.7746
 3992TIP3   OH233390   5.938   1.164  15.548 -0.2243 -0.2261  0.3154
 3992TIP3    H133391   6.009   1.194  15.605  0.1654 -0.5347 -0.0069
 3992TIP3    H233392   5.980   1.107  15.484 -0.2083  2.0737 -1.8687
 3993TIP3   OH233393   1.868   5.326   3.359  0.5634 -0.6603  0.2191
 3993TIP3    H133394   1.806   5.253   3.353  1.9414 -1.8788  0.3676
 3993TIP3    H233395   1.954   5.285   3.356  1.3958  1.0725 -1.0300
 3994TIP3   OH233396   0.304   4.604  16.828 -0.1409 -1.1944 -0.2515
 3994TIP3    H133397   0.237   4.570  16.886 -0.9485  0.8305  0.0541
 3994TIP3    H233398   0.312   4.697  16.850  3.4364 -1.4914  0.3841
 3995TIP3   OH233399   5.769   5.753   1.199 -0.7563 -0.0587  0.3734
 3995TIP3    H133400   5.845   5.699   1.178  0.5850  1.6330  0.6719
 3995TIP3    H233401   5.754   5.739   1.292 -2.0805 -1.8862 -0.0682
 3996TIP3   OH233402   6.438   0.395  11.999  0.0930 -0.3267 -0.2001
 3996TIP3    H133403   6.388   0.357  12.071  2.1075 -2.2724  0.2970
 3996TIP3    H233404   6.521   0.421  12.039  0.8023 -0.3361 -1.5944
 3997TIP3   OH233405   4.428   0.452  12.743  0.2456  0.1366  0.0262
 3997TIP3    H133406   4.468   0.487  12.664 -0.4470  1.1791  0.1223
 3997TIP3    H233407   4.397   0.529  12.791 -1.1551 -0.5721  0.3293
 3998TIP3   OH233408   4.145   2.908   2.847  0.3325 -0.2590  0.1719
 3998TIP3    H133409   4.235   2.900   2.816  0.6809  0.7889  0.8674
 3998TIP3    H233410   4.130   3.002   2.854 -0.3412 -0.4336  1.3920
 3999TIP3   OH233411   6.318   3.994  12.228 -0.1754  0.3563  0.0513
 3999TIP3    H133412   6.404   3.987  12.186  0.2848  2.1193  0.6254
 3999TIP3    H233413   6.337   3.995  12.322 -1.0519 -1.5441  0.3066
 4000TIP3   OH233414   4.399   1.636  11.703 -0.1719  0.0223  0.5460
 4000TIP3    H133415   4.319   1.638  11.651 -0.2777  0.7852  0.7296
 4000TIP3    H233416   4.470   1.624  11.639 -0.3959 -0.2000  0.3401
 4001TIP3   OH233417   0.282   1.100   6.001  0.1217  0.1399  0.1127
 4001TIP3    H133418   0.276   1.184   5.954 -1.7229 -0.9697 -1.8124
 4001TIP3    H233419   0.204   1.099   6.057  0.9517  0.3180  1.3246
 4002TIP3   OH233420   1.857   6.295   5.655 -0.1664 -0.0213 -0.1389
 4002TIP3    H133421   1.776   6.261   5.694 -0.6863 -1.6004 -2.4067
 4002TIP3    H233422   1.922   6.285   5.725 -1.5060 -0.5452  1.1048
 4003TIP3   OH233423   2.194   0.908   4.647 -0.2662 -0.5666 -0.8917
 4003TIP3    H133424   2.238   0.956   4.717 -1.1176  0.6317 -1.1391
 4003TIP3    H233425   2.198   0.817   4.674 -0.9886 -0.0972  0.9649
 4004TIP3   OH233426   4.747   0.686  16.914  0.1161  0.5958  0.1449
 4004TIP3    H133427   4.809   0.635  16.861  0.3346  0.3391  0.6427
 4004TIP3    H233428   4.791   0.699  16.997 -0.2187  1.0216  0.2591
 4005TIP3   OH233429   4.083   5.597  11.010 -0.1576 -0.0863 -0.3467
 4005TIP3    H133430   4.079   5.628  10.919  0.7200 -0.9753 -0.7127
 4005TIP3    H233431   4.110   5.505  11.002  0.3752 -0.0420  0.8347
 4006TIP3   OH233432   0.519   4.642  13.048  0.0015 -0.2067  0.2566
 4006TIP3    H133433   0.482   4.579  13.111  0.5473 -0.8443 -0.0437
 4006TIP3    H233434   0.531   4.591  12.968 -1.6750  0.8649 -0.7252
 4007TIP3   OH233435   0.023   4.553  14.323  0.0022 -0.0651 -0.3587
 4007TIP3    H133436   0.065   4.467  14.327 -0.9348 -0.5182  0.3973
 4007TIP3    H233437  -0.056   4.538  14.271  0.2396  0.5365 -0.9049
 4008TIP3   OH233438   4.199   1.276  11.608  0.0193 -0.4210 -0.3236
 4008TIP3    H133439   4.267   1.266  11.674  1.3093 -0.2065 -1.5619
 4008TIP3    H233440   4.175   1.369  11.612  1.5284  0.0476 -1.4672
 4009TIP3   OH233441   2.902   0.353  14.195 -0.4363 -0.1007  0.7154
 4009TIP3    H133442   2.827   0.293  14.195 -1.1274  0.7056 -1.1929
 4009TIP3    H233443   2.864   0.438  14.175  0.9297  0.4106  0.2199
 4010TIP3   OH233444   2.210   4.534  11.892  0.2915  0.0655  0.1565
 4010TIP3    H133445   2.274   4.605  11.903 -0.9686  1.4280 -0.9327
 4010TIP3    H233446   2.238   4.490  11.812  0.8846 -0.4751  0.6539
 4011TIP3   OH233447   1.180   5.942  13.244  0.4018 -0.3206 -0.0688
 4011TIP3    H133448   1.192   6.001  13.170  0.3216 -1.0537 -0.6855
 4011TIP3    H233449   1.085   5.937  13.256  0.4237  0.0017  0.2604
 4012TIP3   OH233450   5.577   1.091  15.414 -0.4752  0.2262 -0.5258
 4012TIP3    H133451   5.628   1.172  15.409 -0.9247  0.5824  0.3103
 4012TIP3    H233452   5.618   1.032  15.351  1.9612 -0.0756  1.2105
 4013TIP3   OH233453   5.561   4.190   0.620  0.4426 -0.5187 -0.2145
 4013TIP3    H133454   5.524   4.144   0.545 -1.3268  0.0345  0.2705
 4013TIP3    H233455   5.500   4.262   0.636  0.5496 -0.8624  2.0048
 4014TIP3   OH233456   0.522   1.299   6.144  0.6007 -0.0348  0.1632
 4014TIP3    H133457   0.441   1.344   6.167 -0.6923 -1.1602 -1.9217
 4014TIP3    H233458   0.502   1.206   6.152  2.3680 -0.3559  1.6568
 4015TIP3   OH233459   1.341   3.999   1.041  0.0859  0.2668 -0.4739
 4015TIP3    H133460   1.311   4.067   1.101 -0.4413  0.2264 -0.6871
 4015TIP3    H233461   1.344   3.920   1.094 -1.9385 -0.1163 -0.8573
 4016TIP3   OH233462   0.781   6.060   0.442  0.0093 -0.0555  0.5315
 4016TIP3    H133463   0.852   6.091   0.386 -1.6497 -0.0805 -1.7265
 4016TIP3    H233464   0.812   6.077   0.531  2.3823  0.8761 -0.3753
 4017TIP3   OH233465   5.257   3.007   6.124 -0.3663  0.0288 -0.2869
 4017TIP3    H133466   5.304   3.055   6.192 -2.7375  2.6453 -0.2905
 4017TIP3    H233467   5.309   2.928   6.109  1.1125  0.1307  3.3570
 4018TIP3   OH233468   4.453   0.597   0.888  0.2454 -0.5020 -0.6310
 4018TIP3    H133469   4.434   0.572   0.797  0.7724 -2.9371 -0.1394
 4018TIP3    H233470   4.513   0.529   0.919 -0.7974 -0.3534  1.8914
 4019TIP3   OH233471   1.709   2.057  15.409  0.4871 -0.4786 -0.0233
 4019TIP3    H133472   1.751   1.971  15.419  0.5964 -0.4958 -0.5930
 4019TIP3    H233473   1.770   2.108  15.356 -0.4311 -0.6792 -1.3288
 4020TIP3   OH233474   2.159   4.389   0.314  0.5000 -0.5889 -0.5663
 4020TIP3    H133475   2.172   4.418   0.224 -1.4562 -0.5388 -0.8810
 4020TIP3    H233476   2.123   4.466   0.360  0.5948 -0.8840  0.0200
 4021TIP3   OH233477   3.494   4.913   5.130  0.1852 -0.0808  0.1215
 4021TIP3    H133478   3.444   4.992   5.112 -0.2824 -0.6943 -1.5477
 4021TIP3    H233479   3.443   4.866   5.195  0.4035  0.9063  1.0319
 4022TIP3   OH233480   3.311   0.575   0.735  1.1954  0.3695 -0.3168
 4022TIP3    H133481   3.273   0.561   0.648  2.3578 -0.1359 -0.7613
 4022TIP3    H233482   3.259   0.646   0.773 -1.0252 -1.1418 -0.3727
 4023TIP3   OH233483   0.416   2.571  12.151 -0.0463  0.5126 -0.6595
 4023TIP3    H133484   0.322   2.570  12.132 -0.4929 -0.2473  1.3395
 4023TIP3    H233485   0.436   2.482  12.177  1.7073  0.1593 -2.8931
 4024TIP3   OH233486   6.278   1.363   2.375 -0.1009 -0.3762 -0.4001
 4024TIP3    H133487   6.289   1.295   2.309  0.7963 -1.1036  0.4672
 4024TIP3    H233488   6.255   1.316   2.454  1.2851  0.2348  0.4046
 4025TIP3   OH233489   6.015   4.494   5.249 -0.0353  0.4170  0.6869
 4025TIP3    H133490   6.083   4.513   5.314  1.0964 -1.2499  0.0475
 4025TIP3    H233491   6.028   4.402   5.227 -1.4747  0.5031 -0.6615
 4026TIP3   OH233492   4.643   3.028  16.758 -0.1527 -0.7013 -0.4879
 4026TIP3    H133493   4.681   3.116  16.758  0.3041 -0.8732  0.9913
 4026TIP3    H233494   4.553   3.041  16.790  0.0048 -0.8038  0.0004
 4027TIP3   OH233495   3.272   4.498   0.370  0.1028  0.7862  0.2342
 4027TIP3    H133496   3.316   4.550   0.303 -1.0393  1.0293 -0.3600
 4027TIP3    H233497   3.206   4.557   0.406 -2.6387 -0.7243 -1.8571
 4028TIP3   OH233498   2.358   5.113   1.625 -0.1190  0.1118 -0.3136
 4028TIP3    H133499   2.287   5.119   1.562 -0.4711  1.2070  0.1688
 4028TIP3    H233500   2.369   5.202   1.659  0.6023 -0.2893  0.5714
 4029TIP3   OH233501   0.162   3.180  16.851 -0.3775 -0.0596  0.7465
 4029TIP3    H133502   0.150   3.199  16.758 -0.0196 -1.4459  0.3867
 4029TIP3    H233503   0.086   3.219  16.894 -1.6005 -1.0961 -0.3822
 4030TIP3   OH233504   2.843   1.083  15.841 -0.3141 -0.6032 -0.5850
 4030TIP3    H133505   2.926   1.113  15.876 -1.2849  0.4056  0.9739
 4030TIP3    H233506   2.795   1.164  15.821 -1.7818 -1.0991  0.7285
 4031TIP3   OH233507   2.108   2.868   2.067 -0.3302  0.1279 -0.0026
 4031TIP3    H133508   2.163   2.939   2.102 -0.7581  0.6973 -0.4687
 4031TIP3    H233509   2.051   2.844   2.139 -1.7503  1.8318 -0.4854
 4032TIP3   OH233510   3.711   4.859   1.082  0.6101  0.1021  0.0768
 4032TIP3    H133511   3.734   4.933   1.139  2.2834 -0.7266  0.5563
 4032TIP3    H233512   3.713   4.896   0.994  1.0097  0.7374  0.3408
 4033TIP3   OH233513   5.434   1.559   5.836  0.4535 -0.0885  0.1842
 4033TIP3    H133514   5.360   1.580   5.892  0.6853  0.7925  0.1674
 4033TIP3    H233515   5.486   1.639   5.833  0.5072 -0.1521 -1.1947
 4034TIP3   OH233516   3.959   0.782   2.752  0.0205 -0.0787 -0.7420
 4034TIP3    H133517   4.039   0.733   2.734  0.2566 -0.7314  1.7317
 4034TIP3    H233518   3.891   0.736   2.702  0.8115 -0.8589 -1.1373
 4035TIP3   OH233519   1.608   4.479  12.424 -0.2442  0.8889  0.0614
 4035TIP3    H133520   1.690   4.528  12.437 -0.1038  1.0423 -1.3307
 4035TIP3    H233521   1.586   4.492  12.332 -0.6382 -1.0084 -0.1465
 4036TIP3   OH233522   4.307   6.223   3.526  0.4101 -0.4769 -0.0507
 4036TIP3    H133523   4.270   6.221   3.614 -1.4294 -0.7520 -0.7791
 4036TIP3    H233524   4.371   6.294   3.528 -1.3417  1.1651  0.8703
 4037TIP3   OH233525   2.303   5.875   3.964 -0.5006 -0.0848  0.1994
 4037TIP3    H133526   2.234   5.915   3.911 -1.9326 -2.7056 -0.0595
 4037TIP3    H233527   2.347   5.815   3.905 -2.8514 -3.9430  1.9676
 4038TIP3   OH233528   5.229   1.272   4.670 -0.3662  0.1639  0.0603
 4038TIP3    H133529   5.257   1.287   4.761  1.0573  1.0758 -0.4952
 4038TIP3    H233530   5.311   1.271   4.620 -1.2058  0.7387 -1.3584
 4039TIP3   OH233531   2.508   3.699  17.095 -0.2896  0.1403 -0.2870
 4039TIP3    H133532   2.472   3.778  17.055 -0.8652  0.1869  0.2862
 4039TIP3    H233533   2.565   3.731  17.165  0.6697  0.0613 -1.0211
 4040TIP3   OH233534   3.279   2.299   1.655  0.2304  0.6524  0.2309
 4040TIP3    H133535   3.237   2.276   1.738  2.2010  0.0533  1.1096
 4040TIP3    H233536   3.293   2.394   1.660  0.8264  0.5366  0.8312
 4041TIP3   OH233537   2.984   4.458  15.896 -0.2899 -0.1550  0.1146
 4041TIP3    H133538   3.015   4.395  15.961 -1.6665 -1.2586 -0.2497
 4041TIP3    H233539   2.957   4.534  15.947  0.2877 -0.3216  0.6712
 4042TIP3   OH233540   2.633   4.785  13.324 -0.1635 -0.4389  0.3601
 4042TIP3    H133541   2.706   4.765  13.382  1.3096  1.7513 -0.5850
 4042TIP3    H233542   2.636   4.718  13.256  0.7816 -0.5320  0.4920
 4043TIP3   OH233543   1.190   1.852   1.494 -0.0695  0.1097  0.3510
 4043TIP3    H133544   1.251   1.911   1.538 -0.3454 -0.6503  1.8241
 4043TIP3    H233545   1.165   1.898   1.414  2.0690  0.6507 -0.0868
 4044TIP3   OH233546   4.884   2.919  15.936 -0.8925  0.0986  0.1657
 4044TIP3    H133547   4.816   2.904  15.871 -0.2680  0.6712 -0.6299
 4044TIP3    H233548   4.837   2.917  16.020 -1.5717 -1.4823 -0.2101
 4045TIP3   OH233549   2.657   5.864  13.589  0.0696  0.4648 -0.2878
 4045TIP3    H133550   2.656   5.805  13.664 -1.0528  0.4129 -0.3198
 4045TIP3    H233551   2.599   5.936  13.615 -1.0654  0.0002 -1.4202
 4046TIP3   OH233552   0.681   5.132  14.092 -1.2599  0.0978 -0.1614
 4046TIP3    H133553   0.703   5.122  14.184 -0.2584 -1.3349 -0.5341
 4046TIP3    H233554   0.646   5.221  14.086  0.4201  0.9246  1.2519
 4047TIP3   OH233555   5.813   3.053  16.181  0.6451  0.4768 -0.0825
 4047TIP3    H133556   5.851   3.138  16.158  0.5124  0.7252  0.5892
 4047TIP3    H233557   5.743   3.041  16.118 -1.7540  2.5922  1.9388
 4048TIP3   OH233558   1.738   6.341  11.765  0.5142 -0.1574 -0.1765
 4048TIP3    H133559   1.671   6.382  11.820  0.1273 -0.6230 -0.3028
 4048TIP3    H233560   1.711   6.360  11.675  0.2008 -0.8857 -0.2440
 4049TIP3   OH233561   1.106   6.050   0.783  0.1022 -0.0955 -0.4702
 4049TIP3    H133562   1.171   6.012   0.723  0.0631 -0.3432 -0.3546
 4049TIP3    H233563   1.103   5.989   0.856  0.2111  0.2518 -0.1756
 4050TIP3   OH233564   3.327   4.725   4.972 -0.4413 -0.2377  0.0992
 4050TIP3    H133565   3.384   4.745   5.046  0.4192 -0.1725 -0.5625
 4050TIP3    H233566   3.326   4.629   4.969  1.2951 -0.2732 -1.0860
 4051TIP3   OH233567   5.530   3.770   5.220  0.2394  0.0762 -0.0077
 4051TIP3    H133568   5.458   3.776   5.157  0.2807 -2.1860 -0.3356
 4051TIP3    H233569   5.488   3.783   5.305 -0.3662 -0.0932 -0.2764
 4052TIP3   OH233570   3.399   3.830  16.262 -0.1490 -0.1591  0.1215
 4052TIP3    H133571   3.473   3.860  16.211 -1.4356 -0.1559 -1.8402
 4052TIP3    H233572   3.419   3.857  16.352  2.8822 -1.4824 -0.0189
 4053TIP3   OH233573   6.196   0.568   0.800 -0.4342  0.7312 -0.0608
 4053TIP3    H133574   6.260   0.497   0.803 -0.5060  0.5771 -1.4782
 4053TIP3    H233575   6.114   0.527   0.827 -0.4064  0.3558 -0.5360
 4054TIP3   OH233576   1.848   1.899   0.299  0.1337  0.3991 -0.3241
 4054TIP3    H133577   1.841   1.994   0.304  0.3024  0.3383  2.1519
 4054TIP3    H233578   1.849   1.870   0.390  0.2358 -1.9756 -1.0161
 4055TIP3   OH233579   5.034   0.612  13.461  0.3525 -0.2864  0.4196
 4055TIP3    H133580   5.010   0.567  13.542 -0.8272 -0.9186 -0.2605
 4055TIP3    H233581   5.044   0.704  13.486 -0.4469 -0.4031  1.1908
 4056TIP3   OH233582   0.146   3.061  14.472 -0.9145 -0.5651  0.6688
 4056TIP3    H133583   0.232   3.067  14.514 -0.8785  0.2866  0.4934
 4056TIP3    H233584   0.084   3.058  14.545 -0.9251  1.9933  0.8621
 4057TIP3   OH233585   4.394   0.825   4.218  0.1615  0.0887  0.3075
 4057TIP3    H133586   4.328   0.864   4.162 -1.9258 -0.0602  2.4866
 4057TIP3    H233587   4.412   0.891   4.284  0.5803 -0.6688  0.9798
 4058TIP3   OH233588   1.852   0.260  13.068  0.0207 -0.1362  0.0790
 4058TIP3    H133589   1.831   0.167  13.075  0.5928 -0.1791  1.7651
 4058TIP3    H233590   1.767   0.303  13.059 -0.3819 -0.7292  0.8838
 4059TIP3   OH233591   3.926   0.209   3.922  0.3893  0.4924 -0.5267
 4059TIP3    H133592   3.949   0.133   3.868 -2.1699 -0.6259 -0.2005
 4059TIP3    H233593   3.861   0.257   3.869 -1.9358 -0.4473  1.3018
 4060TIP3   OH233594   1.490   4.919  16.168 -0.5081  0.2958 -0.2653
 4060TIP3    H133595   1.548   4.982  16.211 -0.2624  0.3852 -0.7211
 4060TIP3    H233596   1.439   4.880  16.240 -0.6077  0.9567  0.0314
 4061TIP3   OH233597   5.922   6.029   2.412  0.4497 -0.5250  0.2023
 4061TIP3    H133598   5.905   5.938   2.387  1.2102 -0.5269 -0.3755
 4061TIP3    H233599   5.836   6.071   2.412  0.2030 -1.0022 -0.5670
 4062TIP3   OH233600   2.173   3.229   1.608 -0.0139  0.3434 -0.2394
 4062TIP3    H133601   2.259   3.187   1.609 -0.5207 -0.7471 -0.4584
 4062TIP3    H233602   2.166   3.273   1.692 -0.0147 -1.2195  0.6089
 4063TIP3   OH233603   2.960   0.249   5.109 -0.5110 -0.0503 -0.5526
 4063TIP3    H133604   3.027   0.232   5.043  0.7720  3.1654 -0.2416
 4063TIP3    H233605   3.006   0.244   5.193 -1.5584 -1.5399 -0.0241
 4064TIP3   OH233606   1.059   0.394  12.733  0.0975  0.1716 -0.0691
 4064TIP3    H133607   1.043   0.469  12.675  0.7143  0.6031  0.2923
 4064TIP3    H233608   1.143   0.358  12.703  0.3743  0.3406  0.4821
 4065TIP3   OH233609   1.879   5.396  16.247  0.4708 -0.3895 -0.2465
 4065TIP3    H133610   1.850   5.404  16.338  0.7463  0.4555 -0.2285
 4065TIP3    H233611   1.885   5.302  16.233 -1.1556 -0.5848  0.1089
 4066TIP3   OH233612   5.515   2.484  16.161  0.7468 -0.2755 -0.0347
 4066TIP3    H133613   5.526   2.568  16.205  1.3598 -0.2372 -0.2539
 4066TIP3    H233614   5.556   2.496  16.075  2.3224 -1.2922  0.5407
 4067TIP3   OH233615   2.844   1.540   0.076 -0.0936 -0.0215 -0.1594
 4067TIP3    H133616   2.909   1.470   0.071 -1.2582 -1.1427 -0.1027
 4067TIP3    H233617   2.864   1.584   0.159  0.7103 -0.2100 -0.2376
 4068TIP3   OH233618   4.209   1.598   3.634  0.1641 -0.2751 -0.5002
 4068TIP3    H133619   4.192   1.581   3.727  0.1627  0.2633 -0.3986
 4068TIP3    H233620   4.124   1.620   3.597 -0.0546 -1.7424 -0.9158
 4069TIP3   OH233621   2.355   0.163   4.854 -0.1575 -0.1542 -0.0474
 4069TIP3    H133622   2.314   0.208   4.780  1.6174 -0.9476 -1.5898
 4069TIP3    H233623   2.403   0.231   4.900  0.3022  0.0130 -0.7692
 4070TIP3   OH233624   5.071   3.106  15.840  0.1759  0.0380  0.8493
 4070TIP3    H133625   5.114   3.165  15.901  1.5358 -0.6763  0.6232
 4070TIP3    H233626   5.016   3.050  15.895 -1.3449  1.6151  1.0443
 4071TIP3   OH233627   3.011   2.660  15.362  0.1870  0.3308 -0.3703
 4071TIP3    H133628   3.059   2.621  15.435  1.5040  0.5264 -1.0997
 4071TIP3    H233629   2.990   2.749  15.391 -1.1396 -0.2401  0.5482
 4072TIP3   OH233630   3.208   6.572   3.786 -0.5537  0.2787  0.2269
 4072TIP3    H133631   3.142   6.637   3.761 -0.6386  0.1509  0.1166
 4072TIP3    H233632   3.160   6.489   3.785 -0.2111  0.0870 -0.5704
 4073TIP3   OH233633   4.959   1.758   5.418  0.2640  0.9584 -0.3644
 4073TIP3    H133634   4.870   1.768   5.453 -0.0887  0.1858 -0.9877
 4073TIP3    H233635   5.013   1.739   5.494 -0.6411 -1.6294 -0.2574
 4074TIP3   OH233636   2.277   1.690   3.751  0.0413 -0.5807 -0.1904
 4074TIP3    H133637   2.229   1.632   3.692 -0.2114 -2.4844  1.7786
 4074TIP3    H233638   2.216   1.710   3.822  0.7970  0.4981  0.1895
 4075TIP3   OH233639   0.869   1.502   5.866  0.1657 -0.2873  0.1391
 4075TIP3    H133640   0.775   1.491   5.879 -0.3125  1.7965 -1.1096
 4075TIP3    H233641   0.879   1.517   5.772  1.2205  3.2846  0.6704
 4076TIP3   OH233642   4.970   3.866   2.614  0.2360  0.5607 -0.6705
 4076TIP3    H133643   4.977   3.852   2.520  0.2243  1.2234 -0.7806
 4076TIP3    H233644   4.916   3.794   2.646 -0.1599  0.6005 -1.2458
 4077TIP3   OH233645   0.756   3.688  12.276  0.0127 -0.5291 -0.3232
 4077TIP3    H133646   0.690   3.620  12.269  1.2892 -1.9955  0.9641
 4077TIP3    H233647   0.711   3.769  12.250 -1.9608 -1.6131 -0.4556
 4078TIP3   OH233648   3.539   0.895   4.737  0.1762  0.4909  0.4925
 4078TIP3    H133649   3.496   0.977   4.713  0.8522  0.5783 -0.5258
 4078TIP3    H233650   3.617   0.921   4.785 -0.0044  0.4081  0.8338
 4079TIP3   OH233651   4.300   5.112   5.666  0.3901  0.8381  0.5381
 4079TIP3    H133652   4.276   5.045   5.602 -0.2381  1.7262 -0.1809
 4079TIP3    H233653   4.333   5.063   5.741 -0.5127 -0.3047  0.2143
 4080TIP3   OH233654   0.493   5.482   4.770 -0.3052  0.1204  0.3124
 4080TIP3    H133655   0.548   5.469   4.693 -0.1865 -0.5233  0.5008
 4080TIP3    H233656   0.541   5.546   4.823  0.0908 -0.1751  0.3143
 4081TIP3   OH233657   5.486   4.402  12.162 -0.0831  0.7497  0.1539
 4081TIP3    H133658   5.463   4.401  12.255  0.4739  0.3636  0.2946
 4081TIP3    H233659   5.559   4.340  12.155 -0.1290  0.7676 -0.5419
 4082TIP3   OH233660   5.133   0.089  15.204  0.2522 -0.2882  0.0957
 4082TIP3    H133661   5.222   0.084  15.237 -0.4412 -1.3683  1.9666
 4082TIP3    H233662   5.109  -0.002  15.187 -0.3801  0.0235 -0.8088
 4083TIP3   OH233663   1.323   0.196   1.905  0.7540 -0.1954 -0.8233
 4083TIP3    H133664   1.404   0.237   1.937  0.4990  0.4166 -0.9518
 4083TIP3    H233665   1.275   0.174   1.985  0.8306 -0.1165 -0.7546
 4084TIP3   OH233666   5.281   2.929  12.944  0.1817  0.3636 -0.0306
 4084TIP3    H133667   5.296   3.023  12.958 -1.1585  0.6839 -0.5639
 4084TIP3    H233668   5.327   2.908  12.863 -0.1657  0.7542 -0.3349
 4085TIP3   OH233669   0.899   2.506  14.513 -0.5428 -0.2338  0.1980
 4085TIP3    H133670   0.925   2.422  14.551 -0.4685 -0.5723 -0.6013
 4085TIP3    H233671   0.954   2.570  14.559  0.3693 -0.7570 -0.1434
 4086TIP3   OH233672   2.111   0.540  11.226 -0.0680 -0.4556  0.5728
 4086TIP3    H133673   2.127   0.462  11.279  0.6460 -1.4192 -0.9593
 4086TIP3    H233674   2.104   0.506  11.136 -1.9582  0.9972  0.1003
 4087TIP3   OH233675   5.408   2.373  12.615 -0.4834 -0.3322 -0.3665
 4087TIP3    H133676   5.327   2.343  12.655  0.2787 -0.5636  1.0676
 4087TIP3    H233677   5.447   2.294  12.578 -0.4426 -0.3955 -0.1891
 4088TIP3   OH233678   3.432   2.826  12.127  0.1242  0.1580 -0.7231
 4088TIP3    H133679   3.507   2.842  12.184 -0.9521 -1.3883  1.2697
 4088TIP3    H233680   3.469   2.817  12.039  2.2754 -0.6950  0.2224
 4089TIP3   OH233681   5.818   5.196  16.314 -0.4412  0.6272 -0.0093
 4089TIP3    H133682   5.799   5.232  16.401  0.3368 -1.4703  1.0863
 4089TIP3    H233683   5.847   5.272  16.263  0.6823  1.6497  2.0384
 4090TIP3   OH233684   2.783   2.437   5.576 -0.8462  0.4830 -0.5719
 4090TIP3    H133685   2.718   2.382   5.620  0.5734  1.4031  3.0539
 4090TIP3    H233686   2.836   2.375   5.526 -1.2683 -1.0519  0.7837
 4091TIP3   OH233687   6.715   4.211  15.338  0.0838 -0.3626  0.0222
 4091TIP3    H133688   6.711   4.240  15.247  0.6043 -1.8578 -0.5022
 4091TIP3    H233689   6.726   4.292  15.388  2.3658  0.3373 -1.4347
 4092TIP3   OH233690   6.375   5.411  15.058 -0.1028 -0.6575 -0.1357
 4092TIP3    H133691   6.456   5.434  15.104  0.8150 -1.1280 -1.4441
 4092TIP3    H233692   6.381   5.317  15.045 -1.5051 -0.9154  0.8737
 4093TIP3   OH233693   3.320   6.441   5.120  0.1138  0.0369 -0.2127
 4093TIP3    H133694   3.381   6.367   5.120  0.3200  0.2048  0.4261
 4093TIP3    H233695   3.241   6.406   5.079  0.3329 -0.4387 -0.2387
 4094TIP3   OH233696   2.042   3.117  15.989  0.4472 -0.4914  0.0586
 4094TIP3    H133697   2.015   3.078  15.906 -1.4049 -0.8141  0.7602
 4094TIP3    H233698   2.005   3.205  15.986  1.0179 -0.2477  0.2312
 4095TIP3   OH233699   2.856   2.301  11.044 -0.2435  0.2394 -0.6669
 4095TIP3    H133700   2.819   2.358  11.112 -1.1262 -1.6547  0.5194
 4095TIP3    H233701   2.813   2.329  10.963 -1.1385  0.8225 -0.0096
 4096TIP3   OH233702   6.210   2.286   6.501 -0.2820  0.2948  0.2806
 4096TIP3    H133703   6.257   2.206   6.525  1.4732  1.0316 -0.5109
 4096TIP3    H233704   6.254   2.355   6.552 -1.0634  0.9077  0.1448
 4097TIP3   OH233705   3.072   4.240   4.554  0.2023 -0.4805 -0.1707
 4097TIP3    H133706   3.139   4.172   4.564 -0.2618 -0.7316  1.4719
 4097TIP3    H233707   3.102   4.292   4.479  1.1878 -1.7630 -0.7114
 4098TIP3   OH233708   5.113   4.042   0.855 -0.0226  1.1091  0.8330
 4098TIP3    H133709   5.170   3.969   0.832 -0.7278  0.7023  0.3654
 4098TIP3    H233710   5.169   4.101   0.906  1.0737  1.1652 -0.3955
 4099TIP3   OH233711   3.705   0.840  12.289 -0.0954  0.1384  0.1018
 4099TIP3    H133712   3.780   0.852  12.230  1.6304  3.6514  2.6156
 4099TIP3    H233713   3.645   0.911  12.267  0.3494  1.2101  2.0796
 4100TIP3   OH233714   1.984   1.826  12.506  0.5999 -0.1583 -0.1569
 4100TIP3    H133715   2.008   1.900  12.563 -0.9455 -0.3207  0.7794
 4100TIP3    H233716   1.891   1.840  12.487  0.9683 -0.3773 -2.2992
 4101TIP3   OH233717   4.847   2.029  14.823 -0.1016  0.1464  0.2726
 4101TIP3    H133718   4.937   1.997  14.821  0.4970  1.7499  0.3216
 4101TIP3    H233719   4.828   2.055  14.733 -0.1100  0.8494  0.4696
 4102TIP3   OH233720   2.014   1.283  12.820 -0.6229 -0.0990 -0.2922
 4102TIP3    H133721   2.056   1.368  12.802 -1.6303  0.9000  1.6982
 4102TIP3    H233722   2.086   1.221  12.821  0.2412  0.8372 -1.0840
 4103TIP3   OH233723   3.396   2.157   2.022 -0.3091  0.1623  0.6366
 4103TIP3    H133724   3.304   2.170   2.046 -0.8455 -2.3671  0.1975
 4103TIP3    H233725   3.443   2.156   2.105 -0.7833  0.6197  0.9164
 4104TIP3   OH233726   2.586   3.961   1.080  0.0538  0.5343  0.9847
 4104TIP3    H133727   2.642   3.893   1.118  0.7094  1.5885  1.9735
 4104TIP3    H233728   2.546   4.004   1.155 -4.2524 -1.8186  0.3163
 4105TIP3   OH233729   1.086   2.180  11.488  0.1660  0.4954 -0.0706
 4105TIP3    H133730   1.098   2.182  11.583  0.2895  1.2675 -0.0928
 4105TIP3    H233731   1.167   2.144  11.454 -0.0081 -0.1011  0.1307
 4106TIP3   OH233732   6.644   0.120  16.799 -0.4975 -0.6166 -0.6486
 4106TIP3    H133733   6.607   0.178  16.866 -1.9393  1.1195 -2.8001
 4106TIP3    H233734   6.653   0.035  16.842 -0.6679  0.5904  1.9204
 4107TIP3   OH233735   1.767   1.717  11.368 -0.1250 -0.1566 -0.1409
 4107TIP3    H133736   1.717   1.721  11.450  0.5752 -0.6279  0.3130
 4107TIP3    H233737   1.857   1.698  11.395  0.0742 -0.5301 -1.0342
 4108TIP3   OH233738   0.135   2.687   6.003  0.5683 -0.3220 -0.2633
 4108TIP3    H133739   0.222   2.685   6.042  0.7936 -2.2046 -0.7270
 4108TIP3    H233740   0.106   2.777   6.013  1.9685  0.0210  1.2032
 4109TIP3   OH233741   6.400   0.206   5.664 -0.0186 -0.1519 -0.2232
 4109TIP3    H133742   6.357   0.187   5.581 -0.6019  0.7485 -0.1406
 4109TIP3    H233743   6.491   0.223   5.640 -0.2744  0.5381 -0.7446
 4110TIP3   OH233744   5.645   4.519   1.040 -0.8099 -0.5593  0.6511
 4110TIP3    H133745   5.681   4.583   1.101 -0.6383 -1.1246  1.1455
 4110TIP3    H233746   5.712   4.451   1.034 -0.9536 -0.6596  0.0635
 4111TIP3   OH233747   0.379   4.529   0.315  0.0893  0.5811 -0.1597
 4111TIP3    H133748   0.431   4.458   0.352 -1.1070  0.2669  0.9759
 4111TIP3    H233749   0.289   4.497   0.316 -0.5559  2.2588  0.8210
 4112TIP3   OH233750   3.249   3.804   3.287 -0.5748 -0.6960  0.4343
 4112TIP3    H133751   3.174   3.862   3.299  0.1667  0.7410 -1.3391
 4112TIP3    H233752   3.214   3.728   3.241 -0.9718 -0.0502 -0.3472
 4113TIP3   OH233753   2.763   3.769   3.470 -0.1238  0.0385  0.1513
 4113TIP3    H133754   2.669   3.764   3.458 -0.3006 -0.9353  1.6633
 4113TIP3    H233755   2.796   3.686   3.436 -0.2348 -1.1047  2.5889
 4114TIP3   OH233756   0.491   2.618  13.125  0.4451 -0.2132 -0.2595
 4114TIP3    H133757   0.437   2.542  13.144 -0.4918  1.0127  2.3319
 4114TIP3    H233758   0.576   2.598  13.165  0.8037 -0.6073 -1.1740
 4115TIP3   OH233759   3.304   3.180  12.718  0.3781 -0.5889  0.1836
 4115TIP3    H133760   3.382   3.129  12.743  0.0890 -1.3269 -0.3890
 4115TIP3    H233761   3.270   3.134  12.642  0.1377  0.5085 -0.3758
 4116TIP3   OH233762   4.205   3.947   3.361 -0.2681 -0.3081 -0.3467
 4116TIP3    H133763   4.139   3.983   3.420  1.3818  0.3635  1.1802
 4116TIP3    H233764   4.188   3.989   3.277 -0.5738  1.3951  0.5308
 4117TIP3   OH233765   3.351   6.536   0.645 -0.2824  0.1288 -0.3346
 4117TIP3    H133766   3.344   6.615   0.699  0.0238 -0.0770  0.0180
 4117TIP3    H233767   3.324   6.563   0.558  0.8749  0.8865 -0.4660
 4118TIP3   OH233768   5.045   0.902  11.877 -0.3546 -0.1024 -0.0440
 4118TIP3    H133769   5.065   0.811  11.900  1.1676  0.0357 -0.6917
 4118TIP3    H233770   5.122   0.932  11.829 -1.0659  1.3678 -0.3263
 4119TIP3   OH233771   4.808   5.170  10.475  0.0955 -0.3842  0.1066
 4119TIP3    H133772   4.866   5.195  10.547 -0.6027  0.7179  0.3049
 4119TIP3    H233773   4.776   5.254  10.441 -1.1306 -0.9737 -0.2107
 4120TIP3   OH233774   0.243   5.477   2.864  0.2975 -0.0560  0.3245
 4120TIP3    H133775   0.272   5.468   2.773  0.5778  0.8085  0.3267
 4120TIP3    H233776   0.184   5.552   2.863 -4.5967 -3.3747 -0.3093
 4121TIP3   OH233777   1.914   1.406   0.384  0.1227 -0.2263  0.8609
 4121TIP3    H133778   1.891   1.486   0.335 -3.3737 -1.6686 -0.1386
 4121TIP3    H233779   1.901   1.430   0.476  1.8195  1.0629  0.8204
 4122TIP3   OH233780   3.885   4.527  13.130 -0.0258 -0.2077  0.0442
 4122TIP3    H133781   3.870   4.607  13.181  3.1055 -0.2096  1.2269
 4122TIP3    H233782   3.919   4.559  13.046 -1.8799 -0.3061 -0.8022
 4123TIP3   OH233783   2.121   3.032   6.736  0.3740 -0.3039 -0.0394
 4123TIP3    H133784   2.047   3.047   6.677  1.1744  1.1567 -0.7019
 4123TIP3    H233785   2.176   2.969   6.690  1.4516  1.4940 -1.3465
 4124TIP3   OH233786   3.504   5.475   4.306  0.3591  0.0096 -0.0106
 4124TIP3    H133787   3.451   5.402   4.275  1.8746 -0.7077 -1.0094
 4124TIP3    H233788   3.502   5.539   4.235 -0.2428  0.5969  0.5090
 4125TIP3   OH233789   0.288   4.841  14.413  0.2592  0.2940  0.1564
 4125TIP3    H133790   0.242   4.824  14.331  0.2906  0.5294  0.0887
 4125TIP3    H233791   0.380   4.827  14.392  0.3188  0.8822  0.0081
 4126TIP3   OH233792   4.287   1.019   5.080 -0.0205 -0.0485  0.4147
 4126TIP3    H133793   4.380   1.018   5.103  0.5853  3.9143 -1.1289
 4126TIP3    H233794   4.250   1.092   5.130 -2.0466 -0.6781 -0.0327
 4127TIP3   OH233795   2.006   3.236  16.580 -0.2739  0.4749  0.0278
 4127TIP3    H133796   2.024   3.211  16.490 -1.7161  1.1357 -0.4680
 4127TIP3    H233797   2.064   3.181  16.633 -1.3804 -1.9023 -1.1292
 4128TIP3   OH233798   0.937   6.501  11.622 -0.2003  0.5402 -0.1485
 4128TIP3    H133799   0.847   6.477  11.601  0.4320 -0.0359 -2.4791
 4128TIP3    H233800   0.968   6.551  11.546  1.3271  1.1201  0.7846
 4129TIP3   OH233801   2.680   4.690  14.405 -0.7515 -0.3749 -0.1657
 4129TIP3    H133802   2.641   4.692  14.492  0.5973  1.5201  0.4706
 4129TIP3    H233803   2.616   4.734  14.349 -1.0826 -0.4875  0.1233
 4130TIP3   OH233804   2.761   3.672   0.776  0.5929 -0.1561 -0.1015
 4130TIP3    H133805   2.666   3.685   0.781  0.5226 -1.1534  2.0734
 4130TIP3    H233806   2.798   3.754   0.809  0.3944 -0.7222  1.6278
 4131TIP3   OH233807   2.077   3.836   0.811  0.1061 -0.2686  0.1604
 4131TIP3    H133808   2.151   3.897   0.812 -0.0663 -0.0641  0.9872
 4131TIP3    H233809   2.002   3.889   0.784  0.6725 -1.0088 -3.3030
 4132TIP3   OH233810   2.179   4.366  12.110  0.4331  0.0670  0.3180
 4132TIP3    H133811   2.214   4.430  12.048 -0.3225  0.5424  0.3613
 4132TIP3    H233812   2.096   4.404  12.139 -0.1538 -1.0473  0.1702
 4133TIP3   OH233813   2.135   5.150  16.560 -0.6345 -0.7210  0.1984
 4133TIP3    H133814   2.044   5.121  16.564 -0.6221 -0.7537  0.2464
 4133TIP3    H233815   2.169   5.108  16.481 -0.2479 -1.9188  0.9694
 4134TIP3   OH233816   0.360   2.411  16.261  0.2892  0.0868  0.3620
 4134TIP3    H133817   0.454   2.424  16.251  0.6205 -2.2142 -0.0746
 4134TIP3    H233818   0.348   2.391  16.354  0.1869  0.5597  0.4543
 4135TIP3   OH233819   0.126   1.352   2.904 -0.3369  0.5932 -0.3177
 4135TIP3    H133820   0.080   1.427   2.866 -3.0067 -0.9997 -0.5007
 4135TIP3    H233821   0.070   1.324   2.976  0.7130 -1.0995 -0.1046
 4136TIP3   OH233822   4.650   4.015   4.511 -0.6169 -0.4040 -0.4248
 4136TIP3    H133823   4.652   3.970   4.427  1.0235  0.1519 -0.7164
 4136TIP3    H233824   4.599   4.094   4.495  1.3446  0.7172 -1.4800
 4137TIP3   OH233825   0.907   0.292   0.368 -0.0493  0.1224  0.3718
 4137TIP3    H133826   0.853   0.366   0.344  0.4729  1.1699  2.1887
 4137TIP3    H233827   0.997   0.321   0.351  0.1178 -0.3365  0.4519
 4138TIP3   OH233828   6.147   5.922  14.793  0.1114  0.1596 -0.1709
 4138TIP3    H133829   6.181   5.903  14.881  2.4033 -0.7848 -1.1774
 4138TIP3    H233830   6.214   5.977  14.753 -0.3521 -0.3728 -1.7322
 4139TIP3   OH233831   3.531   5.434   5.585 -0.0248  0.0954  0.1375
 4139TIP3    H133832   3.443   5.424   5.548  0.4915 -0.0081 -1.0886
 4139TIP3    H233833   3.534   5.524   5.616 -0.3442  0.3007 -0.4121
 4140TIP3   OH233834   0.819   2.987  12.951 -0.5473 -0.1429 -0.1806
 4140TIP3    H133835   0.896   2.932  12.961  0.8903  1.6795 -0.7212
 4140TIP3    H233836   0.803   3.022  13.039 -0.7785 -0.5406 -0.0636
 4141TIP3   OH233837   0.391   6.690   5.826  0.7604 -0.2271  0.2059
 4141TIP3    H133838   0.457   6.715   5.891 -0.4235  2.0381  0.6378
 4141TIP3    H233839   0.325   6.642   5.875 -0.0624  1.3592  0.7049
 4142TIP3   OH233840   0.817   3.854  16.998  0.6959 -0.0258  0.0256
 4142TIP3    H133841   0.857   3.849  16.912 -1.1659  2.1355 -1.0800
 4142TIP3    H233842   0.734   3.807  16.990  0.1263  0.8844  0.3539
 4143TIP3   OH233843   6.615   4.928   4.059  0.2302 -0.5234  0.7204
 4143TIP3    H133844   6.624   4.852   4.003 -0.1543  0.3737 -0.6006
 4143TIP3    H233845   6.700   4.935   4.104  2.0077  0.8554 -2.5375
 4144TIP3   OH233846   1.509   3.354  14.513 -0.6772  0.1698  0.2446
 4144TIP3    H133847   1.461   3.437  14.514 -0.9913 -0.0163  1.1520
 4144TIP3    H233848   1.467   3.304  14.443  0.2183  1.1681 -1.0435
 4145TIP3   OH233849   4.221   2.672   2.157  0.1117  0.2693 -0.5158
 4145TIP3    H133850   4.206   2.579   2.172  0.0549  0.3689  0.0718
 4145TIP3    H233851   4.149   2.699   2.099 -1.2833  0.4541  1.2151
 4146TIP3   OH233852   2.488   2.366   1.199 -0.3262 -0.1173 -0.0898
 4146TIP3    H133853   2.458   2.310   1.271  0.6352 -1.0617 -0.3942
 4146TIP3    H233854   2.581   2.345   1.189  0.0530  1.5087 -0.2688
 4147TIP3   OH233855   3.804   1.014   1.978  0.1131 -0.2515 -0.3798
 4147TIP3    H133856   3.813   1.102   1.940  0.8685  0.7539  1.8928
 4147TIP3    H233857   3.798   1.030   2.072  2.2908 -2.7341  0.2936
 4148TIP3   OH233858   5.055   6.194  10.738 -0.3649 -0.2659  0.5033
 4148TIP3    H133859   5.058   6.282  10.700  0.5949 -0.2517  0.5923
 4148TIP3    H233860   4.973   6.193  10.789  0.5024  1.2421  2.0304
 4149TIP3   OH233861   1.299   2.932  16.953 -0.8010 -0.2426 -0.0915
 4149TIP3    H133862   1.262   3.019  16.937 -0.3261 -0.0652 -0.2588
 4149TIP3    H233863   1.347   2.911  16.872 -0.4562 -0.4184  0.1561
 4150TIP3   OH233864   2.978   5.493   1.594  0.0172  0.7749  0.4623
 4150TIP3    H133865   3.007   5.505   1.684  1.0072  3.1333 -0.0925
 4150TIP3    H233866   2.973   5.582   1.558 -0.9148 -0.0564 -1.6459
 4151TIP3   OH233867   0.653   2.049   4.972  0.1788  0.3881 -0.3609
 4151TIP3    H133868   0.678   1.991   4.900 -2.5703 -1.9998  0.4132
 4151TIP3    H233869   0.715   2.029   5.042  0.4887 -0.1683 -0.7859
 4152TIP3   OH233870   2.577   1.063  11.819  0.5046  0.0751 -0.1195
 4152TIP3    H133871   2.530   0.990  11.860  0.1157 -0.6839 -1.8083
 4152TIP3    H233872   2.612   1.113  11.892 -0.5985 -0.8972  1.1294
 4153TIP3   OH233873   5.337   1.394  15.639  0.0982  0.1238 -0.1065
 4153TIP3    H133874   5.416   1.421  15.687 -0.3595  0.8722  0.2224
 4153TIP3    H233875   5.276   1.367  15.707 -0.7015  1.5654 -0.2271
 4154TIP3   OH233876   2.117   1.365   2.539 -0.6416 -0.1875  0.7374
 4154TIP3    H133877   2.186   1.306   2.509 -0.3030  0.1839  0.7792
 4154TIP3    H233878   2.143   1.451   2.506 -0.7674  0.0577  1.2766
 4155TIP3   OH233879   5.502   2.687   3.119  0.0865  0.0996 -0.4573
 4155TIP3    H133880   5.590   2.678   3.155 -0.4088 -1.1018  0.5014
 4155TIP3    H233881   5.514   2.743   3.041  1.6038  0.3428 -0.0822
 4156TIP3   OH233882   2.792   2.763   3.747  0.1436  0.2306  0.3862
 4156TIP3    H133883   2.859   2.769   3.679  0.1211 -0.6541  0.2744
 4156TIP3    H233884   2.760   2.853   3.756  1.3567  0.6751  0.4735
 4157TIP3   OH233885   2.454   3.177   6.270  0.1481 -0.1142  0.1402
 4157TIP3    H133886   2.414   3.227   6.199  0.3974  1.7307  1.2122
 4157TIP3    H233887   2.381   3.154   6.328  0.1314 -0.3539  0.0262
 4158TIP3   OH233888   0.199   4.430  11.272 -1.0693 -0.7678  0.2393
 4158TIP3    H133889   0.137   4.359  11.290 -2.8408  0.2847 -1.3666
 4158TIP3    H233890   0.205   4.478  11.355 -2.9847 -0.4911  0.2607
 4159TIP3   OH233891   4.795   3.765   3.787 -0.2347 -0.0887 -0.0254
 4159TIP3    H133892   4.800   3.670   3.799  0.3484  0.1155  1.5856
 4159TIP3    H233893   4.845   3.801   3.859  0.6267  1.4517 -1.3217
 4160TIP3   OH233894   6.200   4.236  13.545 -0.2419  0.0755  0.1098
 4160TIP3    H133895   6.234   4.163  13.494 -1.7603 -0.8520  0.3564
 4160TIP3    H233896   6.263   4.306  13.531  0.4894 -0.8117 -1.3396
 4161TIP3   OH233897   5.749   0.698   1.809  0.5565 -0.3174  0.8915
 4161TIP3    H133898   5.737   0.766   1.875  1.9284 -0.6047  1.4707
 4161TIP3    H233899   5.699   0.729   1.733  0.3554  0.8452  1.4790
 4162TIP3   OH233900   5.199   4.301  13.630  0.1551 -0.0027  0.4627
 4162TIP3    H133901   5.216   4.316  13.537 -0.3871 -2.8444 -0.2075
 4162TIP3    H233902   5.284   4.273  13.665  0.0142 -0.4712  0.4357
 4163TIP3   OH233903   0.277   0.492  10.574  0.3780  0.6240  0.3970
 4163TIP3    H133904   0.293   0.578  10.614  1.6229  0.6135 -0.0171
 4163TIP3    H233905   0.279   0.509  10.480  0.8716  0.1127  0.3101
 4164TIP3   OH233906   5.944   6.541   4.037  0.1228 -0.1836 -0.1281
 4164TIP3    H133907   5.905   6.479   3.975  0.9562  0.8827 -1.7955
 4164TIP3    H233908   5.957   6.621   3.986  1.6437  0.4738  1.1971
 4165TIP3   OH233909   5.574   1.332   5.872  0.2104  0.3349  0.0266
 4165TIP3    H133910   5.613   1.322   5.786 -0.0661 -0.4581 -0.0137
 4165TIP3    H233911   5.504   1.396   5.860  0.3371  0.4155 -0.2834
 4166TIP3   OH233912   4.010   3.250  17.038  0.0698 -0.4240  0.0965
 4166TIP3    H133913   3.992   3.271  16.946  0.5228 -3.8916 -0.9174
 4166TIP3    H233914   3.925   3.260  17.081 -0.0734  1.6357 -0.5308
 4167TIP3   OH233915   4.227   5.053  15.802  0.0901 -0.1978  0.3267
 4167TIP3    H133916   4.267   5.133  15.837 -0.3451  0.9413 -1.6682
 4167TIP3    H233917   4.139   5.078  15.778  0.7334 -0.5108 -2.7622
 4168TIP3   OH233918   4.378   1.577   0.676  0.0047  0.2955  0.0931
 4168TIP3    H133919   4.372   1.657   0.728  0.9214 -0.9563  2.2511
 4168TIP3    H233920   4.471   1.565   0.660 -0.0869 -0.4800  0.0649
 4169TIP3   OH233921   6.441   0.941  14.704  0.4507 -0.1928  0.7744
 4169TIP3    H133922   6.429   0.957  14.610  2.2448  1.2679  0.7354
 4169TIP3    H233923   6.427   1.026  14.745  0.9152 -0.5409  1.6816
 4170TIP3   OH233924   1.504   5.580   6.534  0.2542  0.3686 -0.0205
 4170TIP3    H133925   1.452   5.656   6.506 -0.0073  0.1887 -0.0273
 4170TIP3    H233926   1.590   5.616   6.555  0.1148  0.6766  0.0284
 4171TIP3   OH233927   5.175   3.178   3.448 -0.2412 -0.2006 -0.3186
 4171TIP3    H133928   5.245   3.114   3.436 -0.5142 -0.4126 -0.8037
 4171TIP3    H233929   5.157   3.176   3.541  0.9829  0.4740 -0.0423
 4172TIP3   OH233930   1.837   1.939  16.246  0.1922  0.3009 -0.3077
 4172TIP3    H133931   1.891   1.860  16.246 -0.4369 -0.1367 -0.3696
 4172TIP3    H233932   1.839   1.970  16.156  0.8705  0.6609 -0.1716
 4173TIP3   OH233933   4.043   0.067  13.579  0.2668  0.1005  0.0263
 4173TIP3    H133934   4.094   0.148  13.586 -0.2597  0.5760 -1.3647
 4173TIP3    H233935   3.965   0.084  13.633  1.2598 -0.4088  1.6807
 4174TIP3   OH233936   4.547   1.001   3.673 -0.2918 -0.6555 -0.1951
 4174TIP3    H133937   4.466   1.039   3.639 -0.7746 -0.8228  0.7372
 4174TIP3    H233938   4.518   0.932   3.732  0.5036 -0.1078  0.8638
 4175TIP3   OH233939   5.119   2.107  15.154 -0.2303  0.1770 -0.0962
 4175TIP3    H133940   5.076   2.096  15.239 -0.4802  2.0780  0.0721
 4175TIP3    H233941   5.179   2.180  15.167  0.1381  0.1364 -1.4226
 4176TIP3   OH233942   6.103   1.408   4.320 -0.4865 -0.0635  0.1356
 4176TIP3    H133943   6.035   1.427   4.385 -0.4408  0.9439 -0.1078
 4176TIP3    H233944   6.133   1.493   4.290  0.7807 -0.4964  0.1071
 4177TIP3   OH233945   1.561   3.699  11.128 -0.1675 -0.0685 -0.4937
 4177TIP3    H133946   1.483   3.701  11.073 -0.8199 -3.4355  0.1062
 4177TIP3    H233947   1.617   3.632  11.088  0.8682 -0.1546  1.0131
 4178TIP3   OH233948   0.498   5.680   1.952 -0.4649 -0.3786 -0.2443
 4178TIP3    H133949   0.593   5.673   1.958 -0.3403  1.5105  0.5480
 4178TIP3    H233950   0.477   5.765   1.990 -2.5443 -1.0054  0.1587
 4179TIP3   OH233951   2.784   6.640  16.175  0.5007  0.3276  0.3974
 4179TIP3    H133952   2.813   6.629  16.266  1.4472 -2.0783 -0.1131
 4179TIP3    H233953   2.857   6.681  16.131  0.5267  0.3642  0.4753
 4180TIP3   OH233954   0.990   3.319  13.157  0.2362 -0.4207 -0.0972
 4180TIP3    H133955   1.062   3.269  13.118 -1.1926 -2.7408  0.0744
 4180TIP3    H233956   1.030   3.403  13.180  2.6156 -1.2122 -0.9781
 4181TIP3   OH233957   3.885   5.868  16.884 -0.0780 -0.2552 -0.1553
 4181TIP3    H133958   3.856   5.792  16.935 -1.6921 -0.3257 -1.0798
 4181TIP3    H233959   3.936   5.830  16.813 -0.5612 -0.4625 -0.4003
 4182TIP3   OH233960   2.485   5.134  11.720 -0.0289  0.2558  0.5360
 4182TIP3    H133961   2.508   5.103  11.807  0.7788  0.3789  0.3760
 4182TIP3    H233962   2.490   5.056  11.665 -1.1021  0.0626  0.6914
 4183TIP3   OH233963   0.105   5.024  14.113 -0.6936  0.1149 -0.4802
 4183TIP3    H133964   0.182   5.050  14.063 -0.4710 -0.9521 -0.7135
 4183TIP3    H233965   0.118   4.931  14.131 -0.2596  0.6240  2.4124
 4184TIP3   OH233966   5.793   4.084   5.031  0.6004  0.1966 -0.2189
 4184TIP3    H133967   5.736   4.026   4.980 -2.5027  1.6861  1.2792
 4184TIP3    H233968   5.803   4.039   5.115  0.9237  0.3237 -0.1900
 4185TIP3   OH233969   3.609   0.163   0.911 -0.5724  0.2728 -0.2220
 4185TIP3    H133970   3.643   0.077   0.935 -0.3601  0.4205  0.0096
 4185TIP3    H233971   3.539   0.145   0.847  0.3892  0.0064 -1.2184
 4186TIP3   OH233972   1.843   5.459   2.463  0.0245 -0.4410 -0.0248
 4186TIP3    H133973   1.927   5.492   2.429  0.0185 -1.6871 -1.3717
 4186TIP3    H233974   1.866   5.379   2.509 -0.1753  0.4286  1.6517
 4187TIP3   OH233975   2.979   2.358  16.784 -0.3373  0.3211  0.2006
 4187TIP3    H133976   2.959   2.447  16.753  0.8714  0.6885  0.4524
 4187TIP3    H233977   2.932   2.351  16.867  1.2214  1.5139  1.2465
 4188TIP3   OH233978   6.628   4.639   3.835 -0.0568 -0.9409  0.1330
 4188TIP3    H133979   6.592   4.557   3.801  1.2996 -1.9483  1.0180
 4188TIP3    H233980   6.707   4.613   3.884  0.7034  0.9418  0.0125
 4189TIP3   OH233981   4.611   0.965  17.016  0.3238  0.4171 -0.2146
 4189TIP3    H133982   4.612   0.871  17.033 -0.8184  0.3699 -0.3599
 4189TIP3    H233983   4.596   0.973  16.922  0.2104  0.7542 -0.1708
 4190TIP3   OH233984   2.264   0.564   0.945  0.7648 -0.5868 -0.5019
 4190TIP3    H133985   2.243   0.527   1.031 -0.8980  1.3298 -0.0182
 4190TIP3    H233986   2.253   0.490   0.884 -1.0961 -1.2901  0.5847
 4191TIP3   OH233987   4.978   2.108   1.480  0.5883 -0.1806  0.3643
 4191TIP3    H133988   4.999   2.022   1.443  1.1051 -0.0330  0.2981
 4191TIP3    H233989   4.949   2.160   1.405 -1.5457 -0.8315  0.6936
 4192TIP3   OH233990   5.422   6.543   3.639 -0.5699 -0.1604 -0.4106
 4192TIP3    H133991   5.469   6.471   3.598  1.6505  1.2077 -0.3888
 4192TIP3    H233992   5.450   6.542   3.730 -1.7616 -0.2038 -0.0187
 4193TIP3   OH233993   4.149   0.567  15.181 -0.0450 -0.0677 -0.2871
 4193TIP3    H133994   4.105   0.580  15.098  0.8033 -0.0103 -0.7408
 4193TIP3    H233995   4.236   0.604  15.168  1.0432 -2.4425 -0.2597
 4194TIP3   OH233996   4.857   4.696   4.868  0.6436  0.0038  0.3298
 4194TIP3    H133997   4.933   4.642   4.889  0.9011  1.1518  2.8097
 4194TIP3    H233998   4.785   4.655   4.915 -0.8198 -2.0667 -3.3528
 4195TIP3   OH233999   0.331   0.756   2.972 -0.1850 -0.1696 -0.6906
 4195TIP3    H134000   0.343   0.824   3.039 -0.2589 -0.7288 -0.1031
 4195TIP3    H234001   0.355   0.675   3.016  2.0397 -0.3219 -2.0125
 4196TIP3   OH234002   1.818   5.023  14.169 -0.4506  0.0464  0.3962
 4196TIP3    H134003   1.745   4.961  14.176 -0.7182  0.2189 -0.6826
 4196TIP3    H234004   1.894   4.969  14.153 -1.1755  0.0398 -4.1210
 4197TIP3   OH234005   2.682   2.445  11.674 -0.4178 -0.4746  0.3475
 4197TIP3    H134006   2.729   2.527  11.660 -1.1768  0.2693  1.9660
 4197TIP3    H234007   2.736   2.397  11.737 -0.0583 -1.1704 -0.4727
 4198TIP3   OH234008   0.375   6.767   0.497 -0.0002  0.0452  0.7019
 4198TIP3    H134009   0.439   6.711   0.541  1.7810  2.3218  1.2543
 4198TIP3    H234010   0.412   6.784   0.411 -0.2736  0.6757  0.6959
 4199TIP3   OH234011   2.482   0.620  14.571  0.5681 -0.0999 -0.5557
 4199TIP3    H134012   2.445   0.662  14.649 -2.7230 -0.7296 -1.6277
 4199TIP3    H234013   2.544   0.556  14.606  0.8377  1.1439  1.4021
 4200TIP3   OH234014   1.326   1.855  11.732  0.1366  0.6944  0.8510
 4200TIP3    H134015   1.330   1.768  11.692  0.2946  1.1207 -0.0906
 4200TIP3    H234016   1.388   1.908  11.682 -0.1464  1.4182  1.2464
 4201TIP3   OH234017   4.240   1.890  11.483 -0.3904 -0.0752 -0.2120
 4201TIP3    H134018   4.239   1.968  11.539 -0.7306  0.0666 -0.4131
 4201TIP3    H234019   4.177   1.830  11.524 -0.3363 -0.1347 -0.2148
 4202TIP3   OH234020   0.639   3.913  10.822  0.3818 -0.1583  0.4316
 4202TIP3    H134021   0.554   3.888  10.860 -0.1403  2.3183  1.0546
 4202TIP3    H234022   0.623   3.917  10.728  0.0603 -0.6046  0.4655
 4203TIP3   OH234023   2.834   4.441  12.314  0.3499  0.3541 -0.1697
 4203TIP3    H134024   2.823   4.374  12.246 -1.2844  1.0399 -0.6262
 4203TIP3    H234025   2.910   4.491  12.286  1.5131 -1.1831  0.0991
 4204TIP3   OH234026   3.051   3.200  15.494  0.0824  0.3400 -0.6154
 4204TIP3    H134027   3.120   3.267  15.491  0.8943 -0.4036  0.5596
 4204TIP3    H234028   2.971   3.246  15.467  0.9115  1.3905 -1.3132
 4205TIP3   OH234029   3.811   6.473   4.425  0.6198  0.4185  0.1046
 4205TIP3    H134030   3.815   6.419   4.503  1.0808  2.1843  1.3548
 4205TIP3    H234031   3.744   6.539   4.445 -0.2121  0.1289 -1.5319
 4206TIP3   OH234032   0.160   1.526  16.693 -0.4559 -0.3943 -0.1253
 4206TIP3    H134033   0.231   1.527  16.757 -0.8962  1.2556  0.3732
 4206TIP3    H234034   0.093   1.470  16.732 -1.0353  1.1978  1.2563
 4207TIP3   OH234035   1.748   2.536  16.170  0.4253 -0.4213  0.9398
 4207TIP3    H134036   1.739   2.464  16.233  1.1547 -0.9254  0.4844
 4207TIP3    H234037   1.803   2.500  16.101  1.7487  0.9214  1.2462
 4208TIP3   OH234038   0.808   4.844  13.768  0.2408 -0.4818 -0.2095
 4208TIP3    H134039   0.756   4.773  13.807  0.9834 -0.2506  1.2686
 4208TIP3    H234040   0.853   4.884  13.842  3.0518 -1.0777 -1.4830
 4209TIP3   OH234041   1.323   1.852  12.009  0.2620 -0.4169 -0.0239
 4209TIP3    H134042   1.359   1.864  11.921  0.2458  3.1285  0.2923
 4209TIP3    H234043   1.276   1.769  12.005 -0.0973 -0.1909 -3.4835
 4210TIP3   OH234044   1.644   0.773   4.953  0.5677  0.1255  0.0501
 4210TIP3    H134045   1.612   0.829   5.025 -0.0924  0.2607 -0.3399
 4210TIP3    H234046   1.684   0.834   4.891  0.0279  0.1478 -0.2799
 4211TIP3   OH234047   4.595   1.288  11.834  0.8591 -0.7671  0.3930
 4211TIP3    H134048   4.623   1.374  11.865 -0.2312 -0.1111 -0.3722
 4211TIP3    H234049   4.675   1.236  11.830  1.4898  0.1192  1.1369
 4212TIP3   OH234050   5.016   1.993  16.702  0.0141 -0.2600 -0.0440
 4212TIP3    H134051   5.037   1.901  16.715 -1.6358 -0.4803  1.3827
 4212TIP3    H234052   5.006   2.028  16.791 -1.0654  0.8735 -0.5842
 4213TIP3   OH234053   4.489   0.478  12.482  0.1799  0.5131  0.2686
 4213TIP3    H134054   4.491   0.416  12.409  1.9167 -0.8071  1.3479
 4213TIP3    H234055   4.415   0.536  12.463 -0.3546 -0.7383 -1.7332
 4214TIP3   OH234056   6.177   0.734  13.413  0.2589  0.1533 -0.2203
 4214TIP3    H134057   6.256   0.786  13.402  1.4625 -1.9151 -2.5880
 4214TIP3    H234058   6.111   0.779  13.361  0.9176  0.0358 -1.1860
 4215TIP3   OH234059   2.244   3.993   3.804  0.3275  0.2141  0.1765
 4215TIP3    H134060   2.263   4.081   3.770 -0.3818  0.1659 -0.3735
 4215TIP3    H234061   2.315   3.975   3.865  0.0359  1.5142  0.9350
 4216TIP3   OH234062   0.356   0.781  16.267  0.0790  0.0698 -0.3377
 4216TIP3    H134063   0.442   0.811  16.237 -0.3144  0.5280 -1.0440
 4216TIP3    H234064   0.371   0.750  16.356  1.0466 -0.1897 -0.5767
 4217TIP3   OH234065   6.764   1.252  16.366  0.5602  0.5999  0.4296
 4217TIP3    H134066   6.794   1.337  16.333  2.2630 -0.1917 -0.1465
 4217TIP3    H234067   6.844   1.201  16.377 -0.4773 -1.1513  0.1707
 4218TIP3   OH234068   5.529   4.591   3.421  0.0797 -0.9351  0.0167
 4218TIP3    H134069   5.558   4.670   3.375 -0.7578 -0.2186  0.6833
 4218TIP3    H234070   5.596   4.525   3.400  0.0805 -0.4437 -1.6482
 4219TIP3   OH234071   0.301   2.241  15.320 -0.1658 -0.1880  0.0415
 4219TIP3    H134072   0.285   2.295  15.243  0.9627 -0.8790 -0.6990
 4219TIP3    H234073   0.214   2.221  15.354 -0.6340  1.3537 -0.1592
 4220TIP3   OH234074   1.797   2.792  17.098  0.1592 -0.3504  0.2975
 4220TIP3    H134075   1.702   2.785  17.098  0.0933  0.4398  0.0138
 4220TIP3    H234076   1.828   2.702  17.105 -0.6060 -0.6078  0.4710
 4221TIP3   OH234077   4.786   1.331   1.366  0.0642 -1.4493 -0.2029
 4221TIP3    H134078   4.740   1.248   1.378 -1.0222 -0.7701  0.4452
 4221TIP3    H234079   4.717   1.393   1.343  0.8768 -0.7360 -0.7630
 4222TIP3   OH234080   2.780   3.105   6.353 -0.1749  0.2831 -0.1427
 4222TIP3    H134081   2.755   3.031   6.408 -0.0792  0.0261 -0.4390
 4222TIP3    H234082   2.730   3.179   6.388  0.3953  0.2728  0.7095
 4223TIP3   OH234083   2.389   3.086  17.002 -0.3408  0.0052 -0.2122
 4223TIP3    H134084   2.453   3.148  17.037  0.0275 -0.2144 -0.4941
 4223TIP3    H234085   2.306   3.113  17.042 -0.0828  0.3168  0.1228
 4224TIP3   OH234086   5.013   1.081   4.801  0.0550  0.4706  0.0043
 4224TIP3    H134087   4.969   1.031   4.733 -0.6484  0.2039  0.6476
 4224TIP3    H234088   5.097   1.105   4.762 -0.0562 -0.2570 -0.7163
 4225TIP3   OH234089   1.918   4.841  15.973  0.7703  0.0352  0.0997
 4225TIP3    H134090   1.827   4.862  15.954  0.7056  1.2797  1.5501
 4225TIP3    H234091   1.945   4.783  15.903 -0.8935  0.3239 -0.8211
 4226TIP3   OH234092   6.406   5.422   3.808  0.3107  0.0246 -0.3655
 4226TIP3    H134093   6.425   5.436   3.716 -0.1557 -0.0743 -0.4772
 4226TIP3    H234094   6.417   5.328   3.821 -1.3662 -0.2365 -0.7285
 4227TIP3   OH234095   6.042   3.277   2.578 -0.2429  0.5039 -0.5181
 4227TIP3    H134096   5.976   3.346   2.582 -0.2577  0.4439  1.5086
 4227TIP3    H234097   5.994   3.200   2.546 -1.6377  0.0863  2.2074
 4228TIP3   OH234098   4.281   4.760  13.942 -0.0179  0.1377 -0.4472
 4228TIP3    H134099   4.192   4.791  13.927  0.1646  1.4845  0.8892
 4228TIP3    H234100   4.337   4.828  13.903  0.4207 -0.4668 -0.8851
 4229TIP3   OH234101   3.207   1.568   2.769 -0.0985 -0.1285  0.1820
 4229TIP3    H134102   3.274   1.506   2.739  0.5789  0.3382  0.7050
 4229TIP3    H234103   3.191   1.544   2.860 -0.2027  0.1371  0.2347
 4230TIP3   OH234104   1.136   3.286  12.481  0.0918 -0.0742 -0.6580
 4230TIP3    H134105   1.157   3.226  12.409  1.3277 -2.2817  1.3954
 4230TIP3    H234106   1.184   3.366  12.460  0.3573 -0.6186 -2.3040
 4231TIP3   OH234107   4.434   6.800  13.223  0.1791 -0.0621  0.3132
 4231TIP3    H134108   4.510   6.790  13.166  0.5913  0.6803  0.7351
 4231TIP3    H234109   4.464   6.769  13.308 -0.4720 -1.2823  0.1350
 4232TIP3   OH234110   4.867   0.961  16.432 -0.5712  0.3095  0.3764
 4232TIP3    H134111   4.869   0.867  16.417  0.7645  0.0921  1.7072
 4232TIP3    H234112   4.774   0.983  16.433 -0.8826 -0.8630 -0.6528
 4233TIP3   OH234113   0.906   4.788   1.341 -0.3432  0.3504  0.1906
 4233TIP3    H134114   0.873   4.720   1.400  2.7170 -0.7254  0.8624
 4233TIP3    H234115   0.887   4.755   1.253 -1.2062 -0.0930  0.5309
 4234TIP3   OH234116   3.217   0.918  13.752  0.3254 -0.1293  0.3386
 4234TIP3    H134117   3.296   0.962  13.782 -0.3447  2.2382 -1.0641
 4234TIP3    H234118   3.160   0.914  13.829  0.7193  0.7965  0.6864
 4235TIP3   OH234119   5.134   1.820   0.521  0.2633 -0.3858  0.4701
 4235TIP3    H134120   5.096   1.893   0.570 -0.2994 -1.4937  1.7405
 4235TIP3    H234121   5.111   1.742   0.572  0.5076 -1.4996 -1.0506
 4236TIP3   OH234122   1.714   1.741  12.422 -0.7061 -0.7516  0.1817
 4236TIP3    H134123   1.731   1.680  12.493 -0.0758  0.1746  0.8450
 4236TIP3    H234124   1.637   1.790  12.450  0.5105  0.7642  1.0450
 4237TIP3   OH234125   1.626   2.918   1.731  0.1028 -0.0566  1.0772
 4237TIP3    H134126   1.606   2.839   1.781 -0.7157 -1.3143 -1.0820
 4237TIP3    H234127   1.707   2.897   1.684 -0.8427 -0.2144 -0.5796
 4238TIP3   OH234128   5.554   0.168   1.830  0.0006 -0.1590  0.0128
 4238TIP3    H134129   5.609   0.217   1.891  0.2064 -1.2964  0.7759
 4238TIP3    H234130   5.465   0.181   1.863  0.0390 -0.1902  0.1294
 4239TIP3   OH234131   6.473   2.891  15.181  0.1818 -0.1152 -0.0875
 4239TIP3    H134132   6.559   2.933  15.182  1.5416 -2.6782 -1.2907
 4239TIP3    H234133   6.438   2.909  15.269  0.8552  2.9205 -0.3110
 4240TIP3   OH234134   6.081   0.140  12.203  0.0977  0.8156  0.0974
 4240TIP3    H134135   6.134   0.083  12.147 -0.9509  0.5326 -0.6269
 4240TIP3    H234136   6.086   0.099  12.290  1.3800  1.0181  0.1477
 4241TIP3   OH234137   3.404   0.686   4.634 -0.0660 -0.0910 -1.1148
 4241TIP3    H134138   3.373   0.735   4.558  1.7222  2.0141 -0.5733
 4241TIP3    H234139   3.468   0.743   4.676 -0.7775 -1.2799  1.8705
 4242TIP3   OH234140   3.011   4.943   0.910  0.0833 -0.7205 -0.4273
 4242TIP3    H134141   2.920   4.972   0.901  0.2165 -0.6237 -1.6704
 4242TIP3    H234142   3.062   5.013   0.871  0.5013 -1.9199 -2.1802
 4243TIP3   OH234143   3.819   0.088   3.099  0.3529 -0.2957  0.4009
 4243TIP3    H134144   3.833   0.179   3.073 -1.2788  0.0036  0.5025
 4243TIP3    H234145   3.822   0.090   3.195 -2.4236  0.1909  0.5488
 4244TIP3   OH234146   4.083   4.653   2.621 -0.4415  0.1403 -0.7462
 4244TIP3    H134147   4.085   4.739   2.663  0.7839  0.1632 -0.8214
 4244TIP3    H234148   4.039   4.597   2.685  0.0419  0.5148 -0.0703
 4245TIP3   OH234149   1.905   3.559  16.566  0.0454 -0.2173 -0.1931
 4245TIP3    H134150   1.969   3.597  16.506 -0.9269  0.0756 -1.0800
 4245TIP3    H234151   1.888   3.629  16.629 -0.1904  0.0947 -0.5942
 4246TIP3   OH234152   6.176   3.462  11.973  0.5590  0.2946  0.5741
 4246TIP3    H134153   6.143   3.551  11.968  0.4015  0.2463  0.7277
 4246TIP3    H234154   6.217   3.456  12.059 -0.2450 -0.0483  0.9505
 4247TIP3   OH234155   2.693   1.089   6.238  0.1922  0.4961  0.1172
 4247TIP3    H134156   2.598   1.095   6.250  0.1493 -0.1660  0.1789
 4247TIP3    H234157   2.722   1.179   6.229 -0.6240  0.6543 -1.2952
 4248TIP3   OH234158   3.779   1.435   2.587  0.1211 -0.0121 -0.2404
 4248TIP3    H134159   3.864   1.475   2.605  2.1092 -2.6947 -2.7552
 4248TIP3    H234160   3.757   1.388   2.668  1.5896 -0.1821  0.0834
 4249TIP3   OH234161   0.407   5.899  14.080  0.2821  0.0516  0.2791
 4249TIP3    H134162   0.390   5.963  14.148 -0.3642  1.6013 -1.2750
 4249TIP3    H234163   0.335   5.836  14.088  0.1741  0.2492  0.9436
 4250TIP3   OH234164   0.155   4.659  12.566  0.3220 -0.2777 -0.6447
 4250TIP3    H134165   0.124   4.748  12.582 -2.8222 -1.2380 -0.7997
 4250TIP3    H234166   0.130   4.641  12.476 -1.4999 -2.1284  0.1516
 4251TIP3   OH234167   5.703   2.697  13.182 -0.3503 -0.2708 -0.6971
 4251TIP3    H134168   5.641   2.687  13.109 -1.6019 -1.9011  0.5084
 4251TIP3    H234169   5.649   2.725  13.256  1.0525  2.3806 -0.5376
 4252TIP3   OH234170   0.481   5.620  14.189  0.2896 -0.7926  0.2577
 4252TIP3    H134171   0.552   5.654  14.134  0.0304  0.8274  0.8797
 4252TIP3    H234172   0.500   5.655  14.277 -2.5179  1.7461  0.0025
 4253TIP3   OH234173   0.405   4.241  13.382 -0.1438  0.3768 -0.0715
 4253TIP3    H134174   0.411   4.152  13.418  2.4859  0.0289 -1.1018
 4253TIP3    H234175   0.455   4.295  13.444 -2.4078  1.3699  0.9875
 4254TIP3   OH234176   6.290   1.113   1.953 -0.4949  0.2195  0.1862
 4254TIP3    H134177   6.260   1.141   2.039 -0.5952 -0.4981  0.3884
 4254TIP3    H234178   6.220   1.058   1.919 -0.6298  0.8026 -0.5253
 4255TIP3   OH234179   1.567   0.088  10.741  0.6978  0.2835  0.5751
 4255TIP3    H134180   1.554   0.065  10.649  0.2441  1.3340  0.3528
 4255TIP3    H234181   1.624   0.165  10.738  0.2173  0.6694  1.1357
 4256TIP3   OH234182   0.523   1.605  13.630 -0.0556 -0.2771  0.0322
 4256TIP3    H134183   0.465   1.538  13.593 -0.0938  0.8091 -2.0174
 4256TIP3    H234184   0.596   1.554  13.667 -1.4814 -1.5679  1.1964
 4257TIP3   OH234185   5.919   3.147  14.979  0.2505 -0.0634 -0.9338
 4257TIP3    H134186   5.989   3.208  15.002 -0.3511  0.1128  0.5659
 4257TIP3    H234187   5.922   3.141  14.884  2.1149  0.1554 -0.9169
 4258TIP3   OH234188   1.965   0.204  15.031  0.1390  0.0420 -0.1975
 4258TIP3    H134189   1.937   0.265  15.099 -2.1020  0.0848 -1.0894
 4258TIP3    H234190   1.927   0.120  15.057  0.1481 -0.1699 -0.8536
 4259TIP3   OH234191   6.251   4.069   5.030 -0.0904  0.2280  0.1760
 4259TIP3    H134192   6.256   3.974   5.022  0.1676  0.1260  1.3425
 4259TIP3    H234193   6.301   4.089   5.109  2.4237  1.6235 -1.6056
 4260TIP3   OH234194   0.811   4.651   2.642 -0.3441  0.1537 -0.0938
 4260TIP3    H134195   0.878   4.680   2.703  0.1283 -0.8873 -0.0870
 4260TIP3    H234196   0.738   4.712   2.654 -0.6506 -0.5746  2.2030
 4261TIP3   OH234197   0.881   2.003  12.370  0.2115  0.4842  0.5992
 4261TIP3    H134198   0.894   1.935  12.304 -3.6360  0.1618 -0.0675
 4261TIP3    H234199   0.892   1.959  12.454 -0.7721 -0.6499  0.1560
 4262TIP3   OH234200   1.507   4.323  17.051  0.2262  0.8674  0.7631
 4262TIP3    H134201   1.541   4.241  17.086 -0.1904  0.3281 -0.0597
 4262TIP3    H234202   1.575   4.388  17.070  0.3669  0.4281  1.8009
 4263TIP3   OH234203   2.205   1.380  14.104 -0.2087 -0.1696 -0.6759
 4263TIP3    H134204   2.135   1.418  14.158  0.3966  0.1810 -0.1302
 4263TIP3    H234205   2.278   1.442  14.111  0.4966 -1.0082 -0.4667
 4264TIP3   OH234206   5.047   2.872   0.350 -0.2006 -0.1197 -0.2443
 4264TIP3    H134207   5.138   2.894   0.331 -0.3980  2.0528  0.9823
 4264TIP3    H234208   5.001   2.889   0.268  0.0826  1.7279 -0.0662
 4265TIP3   OH234209   3.455   1.325   1.830  0.5509 -0.1130  0.3827
 4265TIP3    H134210   3.541   1.321   1.786 -0.4861 -1.2194 -1.7059
 4265TIP3    H234211   3.431   1.417   1.827  0.4198 -0.1501 -1.7571
 4266TIP3   OH234212   2.611   0.931   0.580  0.5189 -0.3929 -0.2253
 4266TIP3    H134213   2.587   0.850   0.536 -2.6896  0.1310  0.3418
 4266TIP3    H234214   2.530   0.962   0.620  2.0686  2.0837  1.2679
 4267TIP3   OH234215   3.589   3.254  14.934  0.1841  0.1854 -0.0190
 4267TIP3    H134216   3.636   3.331  14.903  2.1227 -0.3698  1.3337
 4267TIP3    H234217   3.523   3.237  14.866  2.1434  0.8274 -2.2172
 4268TIP3   OH234218   5.606   5.001   1.029 -0.0729 -0.6782 -0.6528
 4268TIP3    H134219   5.633   5.080   0.981 -0.9301 -0.3481 -0.6117
 4268TIP3    H234220   5.687   4.969   1.070 -0.0219  1.2128  0.8618
 4269TIP3   OH234221   2.857   2.140   0.220 -0.2447  0.3757 -0.0022
 4269TIP3    H134222   2.859   2.058   0.170  1.5932  0.1321  0.3635
 4269TIP3    H234223   2.905   2.203   0.166 -0.0377  0.6772  0.5169
 4270TIP3   OH234224   5.497   2.503   0.772  0.5229  0.0216 -0.0845
 4270TIP3    H134225   5.587   2.495   0.740  0.8851  0.0268  0.9090
 4270TIP3    H234226   5.481   2.421   0.819  0.2980  0.3610  0.4359
 4271TIP3   OH234227   5.080   2.037  14.606 -0.0816  0.2853 -0.1532
 4271TIP3    H134228   5.033   2.109  14.564 -0.7310  0.7895  1.3447
 4271TIP3    H234229   5.056   1.959  14.556 -0.3061  0.9365 -1.0851
 4272TIP3   OH234230   3.551   6.443   3.780 -0.0695  0.0671  0.2529
 4272TIP3    H134231   3.544   6.356   3.741 -0.5256  0.2373 -0.0516
 4272TIP3    H234232   3.545   6.503   3.705 -2.0944  0.4459  0.6462
 4273TIP3   OH234233   5.536   3.565  15.337 -0.0509 -0.4338 -0.0723
 4273TIP3    H134234   5.493   3.634  15.387  2.5732 -0.6731  2.8023
 4273TIP3    H234235   5.600   3.611  15.283 -0.5629 -0.4202 -0.6781
 4274TIP3   OH234236   3.976   0.885  15.733  0.0283 -0.9314  0.0472
 4274TIP3    H134237   3.943   0.904  15.646 -0.8428 -0.5125  0.4496
 4274TIP3    H234238   4.071   0.886  15.724 -0.0515 -1.3701 -0.9867
 4275TIP3   OH234239   1.028   2.081  16.922  0.1036 -0.4126  0.2398
 4275TIP3    H134240   0.964   2.130  16.871  2.8076  1.3633 -1.7481
 4275TIP3    H234241   1.013   2.109  17.013 -1.4335  0.4706 -0.2487
 4276TIP3   OH234242   3.159   1.544  15.139 -0.2542 -0.1186 -0.2541
 4276TIP3    H134243   3.190   1.502  15.219 -2.3546  1.5271  1.5383
 4276TIP3    H234244   3.236   1.544  15.081  0.6217 -3.7234  0.6703
 4277TIP3   OH234245   1.855   6.486  17.157 -0.1581 -0.4603 -0.1136
 4277TIP3    H134246   1.787   6.471  17.223 -0.8896 -0.8394 -0.9424
 4277TIP3    H234247   1.810   6.481  17.073  0.6870  0.4546 -0.6493
 4278TIP3   OH234248   6.223   0.895   2.375 -0.2605 -0.8853  0.0789
 4278TIP3    H134249   6.305   0.926   2.411 -1.0881  0.7827  0.6173
 4278TIP3    H234250   6.185   0.841   2.446  0.0824 -1.1768  0.0456
 4279TIP3   OH234251   2.565   1.529   2.202 -0.0627 -0.1081  0.3910
 4279TIP3    H134252   2.524   1.615   2.209  0.1143  0.0635 -0.4802
 4279TIP3    H234253   2.533   1.494   2.119 -2.3575 -2.1172  1.9893
 4280TIP3   OH234254   0.456   2.893   1.394  0.0486 -0.3203 -0.3336
 4280TIP3    H134255   0.390   2.961   1.406 -0.3922 -0.9276  0.8322
 4280TIP3    H234256   0.523   2.914   1.459  0.5869 -0.2146 -0.9138
 4281TIP3   OH234257   6.522   4.256  16.169  0.1165 -0.1451 -0.3258
 4281TIP3    H134258   6.553   4.199  16.239  0.2109  0.5859  0.2519
 4281TIP3    H234259   6.507   4.340  16.213  0.4382  0.3983 -1.2408
 4282TIP3   OH234260   3.697   1.980   2.077 -0.1496 -0.0506 -0.2898
 4282TIP3    H134261   3.648   1.964   1.996 -0.4747 -0.0335 -0.0944
 4282TIP3    H234262   3.785   2.003   2.046  0.5083 -2.6700 -0.5865
 4283TIP3   OH234263   4.817   6.700   0.465 -0.4410  0.2174  0.4867
 4283TIP3    H134264   4.765   6.761   0.412  1.9997  0.2393 -2.1383
 4283TIP3    H234265   4.822   6.741   0.551  0.5136  3.4478 -0.9684
 4284TIP3   OH234266   5.057   3.341  16.617  0.1590  0.3099 -0.1719
 4284TIP3    H134267   5.067   3.256  16.661  1.2981  0.9395  0.8701
 4284TIP3    H234268   4.964   3.348  16.599  0.0789 -1.2964 -0.5557
 4285TIP3   OH234269   1.698   3.547   4.678 -0.1082 -0.1798 -0.4514
 4285TIP3    H134270   1.650   3.625   4.651 -1.3396 -0.7700 -0.0731
 4285TIP3    H234271   1.631   3.479   4.683  0.5426 -0.7434  1.3782
 4286TIP3   OH234272   0.829   0.982  13.099  0.0649  0.5562  0.0152
 4286TIP3    H134273   0.864   1.063  13.135  0.2681  0.2144  0.6174
 4286TIP3    H234274   0.745   1.006  13.060 -0.5004  0.8243  1.3578
 4287TIP3   OH234275   3.300   1.790  11.591 -0.1823 -0.3461  0.1930
 4287TIP3    H134276   3.289   1.859  11.656  0.4012 -1.3524  1.3987
 4287TIP3    H234277   3.265   1.828  11.510 -2.4615  0.3784  1.4186
 4288TIP3   OH234278   5.864   0.109   3.142 -0.1678 -0.5382  0.6048
 4288TIP3    H134279   5.769   0.103   3.142 -0.1155 -1.5284  0.7967
 4288TIP3    H234280   5.890   0.082   3.054 -0.1676  2.2902 -0.3750
 4289TIP3   OH234281   6.528   2.438  12.760  0.0637 -0.0138 -0.4224
 4289TIP3    H134282   6.450   2.484  12.791  0.9844 -0.0896  2.3549
 4289TIP3    H234283   6.496   2.351  12.735 -0.7975  0.0174  0.4978
 4290TIP3   OH234284   5.271   0.601   2.770  0.3799  0.1538 -0.0453
 4290TIP3    H134285   5.190   0.601   2.821  1.0252  0.8566  1.0057
 4290TIP3    H234286   5.257   0.669   2.704  0.0762  0.1965  0.0609
 4291TIP3   OH234287   6.140   5.433   5.343  0.2940  0.5042  0.3607
 4291TIP3    H134288   6.156   5.340   5.363  0.2212  0.4941  0.3719
 4291TIP3    H234289   6.049   5.447   5.368  0.4489  0.7033  0.8143
 4292TIP3   OH234290   2.185   0.032  12.092 -0.2646  0.6235  0.0539
 4292TIP3    H134291   2.262   0.003  12.042 -0.1454 -1.2064  1.2108
 4292TIP3    H234292   2.222   0.073  12.170 -0.4455  0.2351  0.3471
 4293TIP3   OH234293   0.010   6.674   5.750 -0.1657  0.1296  0.4602
 4293TIP3    H134294   0.092   6.658   5.797 -0.5810 -1.7713  0.6204
 4293TIP3    H234295   0.031   6.655   5.658 -0.2062  0.5520  0.3600
 4294TIP3   OH234296   4.004   1.407  12.231 -0.0944  0.0602  0.0415
 4294TIP3    H134297   4.015   1.498  12.204 -0.6188  0.1374  0.0575
 4294TIP3    H234298   4.045   1.355  12.163 -1.5858  0.2379 -1.0403
 4295TIP3   OH234299   2.168   4.952   2.395 -0.0154  0.2957  0.2768
 4295TIP3    H134300   2.227   4.999   2.454 -0.5557  3.9778 -1.7922
 4295TIP3    H234301   2.084   4.996   2.406 -0.3382  0.5487 -2.5135
 4296TIP3   OH234302   4.623   6.625   4.329 -0.4630  0.1453  0.7101
 4296TIP3    H134303   4.619   6.585   4.243  3.4347  0.3921  0.2021
 4296TIP3    H234304   4.628   6.719   4.312 -0.4423  0.2452  1.2301
 4297TIP3   OH234305   4.024   0.560  14.897 -0.0831  0.3388 -0.2289
 4297TIP3    H134306   4.003   0.472  14.866  1.2848 -0.3092  0.5953
 4297TIP3    H234307   3.939   0.603  14.907 -0.7542 -0.7632 -0.9729
 4298TIP3   OH234308   3.604   5.427   3.406 -0.4808  0.3517 -0.0079
 4298TIP3    H134309   3.524   5.466   3.443  0.1154 -0.2049  1.9769
 4298TIP3    H234310   3.596   5.442   3.312 -3.3637 -0.4939  0.0160
 4299TIP3   OH234311   0.330   4.292  12.385  0.2876 -0.7671  0.3854
 4299TIP3    H134312   0.324   4.234  12.309 -0.2144 -3.4289  2.3103
 4299TIP3    H234313   0.408   4.345  12.369 -0.2256 -0.6840 -2.2873
 4300TIP3   OH234314   4.263   1.550   2.160  0.2410  0.4958 -0.5062
 4300TIP3    H134315   4.200   1.620   2.177 -0.5775 -0.1162 -0.9725
 4300TIP3    H234316   4.227   1.473   2.204  1.6440  0.5739  0.8713
 4301TIP3   OH234317   3.968   5.933   0.254 -0.3575  0.5005  0.0054
 4301TIP3    H134318   3.914   5.958   0.329  0.0702 -1.2139  0.9417
 4301TIP3    H234319   3.963   5.837   0.252  0.1678  0.4771 -1.7717
 4302TIP3   OH234320   4.385   6.431  13.484 -0.3540 -0.9212  0.5558
 4302TIP3    H134321   4.341   6.363  13.535 -1.8053 -0.4270  0.0213
 4302TIP3    H234322   4.314   6.485  13.450  0.5334 -1.2546 -2.0422
 4303TIP3   OH234323   2.022   6.582   5.829 -0.0025 -1.0368 -0.2188
 4303TIP3    H134324   2.099   6.599   5.774  0.1869 -1.2223 -0.0112
 4303TIP3    H234325   2.048   6.614   5.915 -0.0472 -1.3842 -0.0785
 4304TIP3   OH234326   0.728   4.249   4.257 -0.2590 -0.2825  0.3366
 4304TIP3    H134327   0.739   4.155   4.275  0.0926 -0.1953  0.5902
 4304TIP3    H234328   0.675   4.281   4.330 -2.6705 -0.7800 -1.0941
 4305TIP3   OH234329   2.092   2.917   6.489 -0.4906 -0.0971 -0.5046
 4305TIP3    H134330   2.064   2.844   6.434  0.5246 -1.0064  0.1343
 4305TIP3    H234331   2.013   2.968   6.503 -1.3061 -1.2638 -0.6945
 4306TIP3   OH234332   2.987   2.357   0.056  0.2615  0.1093 -0.1230
 4306TIP3    H134333   2.941   2.313  -0.015  0.0747  0.2587 -0.0923
 4306TIP3    H234334   2.965   2.450   0.046  0.2180  0.1279  0.1417
 4307TIP3   OH234335   1.659   5.530   3.947  0.1615 -0.1910  0.1229
 4307TIP3    H134336   1.573   5.561   3.920  0.5382  1.3955  0.6277
 4307TIP3    H234337   1.650   5.435   3.952 -1.0070 -0.2161 -1.6765
 4308TIP3   OH234338   6.473   2.947  13.549 -0.4566  0.2706 -0.1552
 4308TIP3    H134339   6.392   2.897  13.555 -1.2494  1.3346 -1.3857
 4308TIP3    H234340   6.538   2.893  13.594 -1.9920 -0.2590  1.5643
 4309TIP3   OH234341   3.072   1.030   0.370 -0.0978 -0.3284  0.6907
 4309TIP3    H134342   3.013   1.070   0.433  1.3446 -0.5668  2.2760
 4309TIP3    H234343   3.099   0.948   0.411 -0.1268 -1.1445 -0.8475
 4310TIP3   OH234344   2.277   1.756  12.123  0.1600  0.2886  0.3412
 4310TIP3    H134345   2.282   1.690  12.053  1.4349 -0.0236  0.6942
 4310TIP3    H234346   2.221   1.825  12.087  0.1663 -0.2264 -0.6879
 4311TIP3   OH234347   4.205   1.234  16.992 -0.0648 -0.0707 -0.1385
 4311TIP3    H134348   4.137   1.174  17.023  0.3999 -0.3911  0.2924
 4311TIP3    H234349   4.159   1.315  16.974 -0.6770 -0.5046 -0.5626
 4312TIP3   OH234350   1.264   4.652  16.116 -0.1099  0.2634 -0.0721
 4312TIP3    H134351   1.282   4.681  16.205  0.6156 -0.2543 -0.0386
 4312TIP3    H234352   1.312   4.570  16.107 -0.4313  0.1443 -0.8383
 4313TIP3   OH234353   5.458   6.355   0.412 -0.1277 -0.4933  0.0815
 4313TIP3    H134354   5.367   6.352   0.384  0.6140 -0.4146 -2.5315
 4313TIP3    H234355   5.468   6.280   0.470 -1.6999 -0.8240 -0.0381
 4314TIP3   OH234356   2.112   3.633   4.381 -0.0657  0.3553 -0.5755
 4314TIP3    H134357   2.187   3.693   4.375 -0.8844  1.3527 -1.1848
 4314TIP3    H234358   2.037   3.690   4.398 -0.7682 -0.5849 -0.4379
 4315TIP3   OH234359   0.569   1.578   0.007  0.4787 -0.2622  0.3593
 4315TIP3    H134360   0.637   1.628  -0.038  0.4125  0.5261  1.1080
 4315TIP3    H234361   0.616   1.508   0.052  0.8710  0.5810  1.2904
 4316TIP3   OH234362   6.473   4.475   0.101  0.8005  0.3873 -0.5886
 4316TIP3    H134363   6.444   4.467   0.192 -0.4612  0.0854 -1.0116
 4316TIP3    H234364   6.443   4.561   0.074  1.1846  0.4800 -0.7243
 4317TIP3   OH234365   3.615   6.764   3.893  0.2602 -0.0901  0.0863
 4317TIP3    H134366   3.555   6.729   3.958 -0.2134 -2.2700 -1.4127
 4317TIP3    H234367   3.563   6.825   3.842 -0.7135 -1.8402 -1.0977
 4318TIP3   OH234368   6.331   2.848   5.801  0.6478 -0.1236  0.1297
 4318TIP3    H134369   6.290   2.832   5.886  0.1610 -0.4761 -0.1641
 4318TIP3    H234370   6.368   2.763   5.777 -1.3793 -0.7199 -1.1440
 4319TIP3   OH234371   0.638   6.460  12.626 -0.4219 -0.3645  0.2344
 4319TIP3    H134372   0.718   6.486  12.580 -1.0099  2.7619  0.7279
 4319TIP3    H234373   0.577   6.531  12.609 -1.5062 -0.2762  3.7061
 4320TIP3   OH234374   6.288   6.110   3.947  0.2731  0.1281 -0.7873
 4320TIP3    H134375   6.314   6.030   3.993 -2.0278 -1.4006 -1.9532
 4320TIP3    H234376   6.286   6.085   3.855  0.0579  1.7136 -1.2428
 4321TIP3   OH234377   6.693   2.339   0.856  0.1398  0.2556 -0.3069
 4321TIP3    H134378   6.621   2.310   0.801  0.2567  0.9404 -0.8425
 4321TIP3    H234379   6.655   2.406   0.913  0.6899  1.9258 -1.8044
 4322TIP3   OH234380   5.030   3.535  12.617 -0.0785  0.4670  0.2191
 4322TIP3    H134381   4.977   3.460  12.644  1.0192  0.2805  2.0487
 4322TIP3    H234382   4.975   3.611  12.633 -0.9583  0.1228 -1.0192
 4323TIP3   OH234383   6.662   5.408   0.281  0.3626 -0.2465  0.3500
 4323TIP3    H134384   6.627   5.475   0.340 -1.5734  0.4913 -1.4913
 4323TIP3    H234385   6.656   5.448   0.194  2.3040 -1.6098 -0.4803
 4324TIP3   OH234386   0.747   6.699  14.942  0.0684  0.3797 -0.1303
 4324TIP3    H134387   0.687   6.636  14.900  0.7088 -2.5824  2.9885
 4324TIP3    H234388   0.834   6.674  14.910  0.1091  2.3677 -1.8559
 4325TIP3   OH234389   3.137   4.536   5.184 -0.3893 -0.7333  0.2403
 4325TIP3    H134390   3.139   4.449   5.145  1.7517 -0.2848 -0.8595
 4325TIP3    H234391   3.230   4.561   5.189 -0.9554  1.5401  0.3264
 4326TIP3   OH234392   1.659   2.714  15.200 -0.2060  0.8804  0.3140
 4326TIP3    H134393   1.703   2.717  15.115  0.0917  1.2709  0.4818
 4326TIP3    H234394   1.673   2.625  15.231 -1.6013  0.2624 -0.7186
 4327TIP3   OH234395   2.372   2.156  11.818  0.0209 -0.7248  0.3054
 4327TIP3    H134396   2.363   2.206  11.899  0.8011  0.9479 -0.5979
 4327TIP3    H234397   2.320   2.205  11.754  2.1903 -0.0192 -1.0200
 4328TIP3   OH234398   1.931   1.321  11.018 -0.0138 -0.2557  0.7156
 4328TIP3    H134399   1.849   1.274  11.032 -1.0361  1.3060  0.1886
 4328TIP3    H234400   1.941   1.376  11.095  0.9881 -1.0253  1.1591
 4329TIP3   OH234401   0.770   1.129   0.233 -0.1674 -0.2532  0.0499
 4329TIP3    H134402   0.689   1.078   0.241  0.7208 -1.7451  0.0563
 4329TIP3    H234403   0.818   1.086   0.162  0.6889  0.5169  0.1480
 4330TIP3   OH234404   2.745   0.756  14.753  0.6540  0.5326  0.1131
 4330TIP3    H134405   2.769   0.847  14.739  0.2925  0.9883  2.1902
 4330TIP3    H234406   2.650   0.758  14.768  0.4779 -0.3254 -0.7647
 4331TIP3   OH234407   3.448   0.156   3.767 -0.0047  0.2111  0.1477
 4331TIP3    H134408   3.417   0.197   3.848 -0.5331 -0.9479  0.5551
 4331TIP3    H234409   3.382   0.178   3.702  0.3176  0.9789  0.0756
 4332TIP3   OH234410   6.605   2.466  15.949 -0.0703 -0.3995  0.0347
 4332TIP3    H134411   6.553   2.506  15.878 -1.7965  0.5102  1.7153
 4332TIP3    H234412   6.584   2.372  15.943  1.0528 -0.5904 -1.5934
 4333TIP3   OH234413   3.087   5.292  12.109 -0.2178 -0.1413 -0.3050
 4333TIP3    H134414   3.036   5.302  12.189  0.0038  1.5376 -0.3459
 4333TIP3    H234415   3.178   5.305  12.137 -0.1722  0.8303 -0.8765
 4334TIP3   OH234416   3.777   4.386  12.260 -0.6819 -0.0854 -0.4581
 4334TIP3    H134417   3.745   4.413  12.174 -1.0481 -0.7205 -0.5240
 4334TIP3    H234418   3.869   4.364  12.245 -0.8250 -0.4872 -0.7515
 4335TIP3   OH234419   0.556   1.724  12.668  0.0514  0.1439 -0.4489
 4335TIP3    H134420   0.611   1.740  12.744 -1.4724 -0.5952  0.8514
 4335TIP3    H234421   0.616   1.688  12.602  0.9784 -1.4397  1.1949
 4336TIP3   OH234422   5.983   2.662  12.872 -0.1782  0.2131  0.1037
 4336TIP3    H134423   5.899   2.708  12.877 -0.1558  0.2698 -0.0349
 4336TIP3    H234424   5.978   2.594  12.940 -0.8897 -0.7020 -0.8313
 4337TIP3   OH234425   2.752   6.289  12.402 -0.0330  0.5517  0.0507
 4337TIP3    H134426   2.818   6.350  12.368  0.4937  0.5576  1.0409
 4337TIP3    H234427   2.780   6.203  12.371  0.9534  0.4380  1.1603
 4338TIP3   OH234428   5.827   0.493  14.160  0.5586  0.2980  0.0310
 4338TIP3    H134429   5.821   0.525  14.070  1.3890  0.9467  0.1983
 4338TIP3    H234430   5.868   0.407  14.152 -1.6586 -0.7803 -0.4183
 4339TIP3   OH234431   0.391   5.421   5.955  0.0281  0.4871  0.3036
 4339TIP3    H134432   0.469   5.451   5.909 -0.0681  1.1779  0.5898
 4339TIP3    H234433   0.417   5.417   6.047 -0.2404  0.6063  0.3845
 4340TIP3   OH234434   0.882   6.668   2.321  0.4472  0.0036  0.2256
 4340TIP3    H134435   0.843   6.584   2.296  0.1767 -0.0086  0.6702
 4340TIP3    H234436   0.931   6.648   2.401  3.8632 -0.6623 -1.8092
 4341TIP3   OH234437   2.100   1.715   1.224 -0.4505 -0.2267  0.0179
 4341TIP3    H134438   2.059   1.777   1.163 -1.2461  0.7604  1.5131
 4341TIP3    H234439   2.027   1.661   1.255 -0.1211 -0.4307  0.4444
 4342TIP3   OH234440   4.119   4.930  16.580 -1.1781  0.5128 -0.3478
 4342TIP3    H134441   4.180   4.904  16.511 -1.1786 -0.5519  0.0370
 4342TIP3    H234442   4.054   4.984  16.535 -0.7055  0.5437 -1.0157
 4343TIP3   OH234443   6.246   3.763  11.743  0.8766  0.4420  0.1283
 4343TIP3    H134444   6.310   3.696  11.767  1.3789  0.1497 -1.8670
 4343TIP3    H234445   6.176   3.715  11.700 -0.6793  0.7796  2.1411
 4344TIP3   OH234446   1.557   3.718   5.826 -0.0688 -0.8204 -0.2597
 4344TIP3    H134447   1.638   3.677   5.796  1.3259  0.2926  1.7026
 4344TIP3    H234448   1.497   3.645   5.841  0.8877 -1.7596 -0.8774
 4345TIP3   OH234449   2.698   6.404  12.658 -0.4032 -0.2171 -0.5197
 4345TIP3    H134450   2.716   6.377  12.568 -0.6856 -2.5636  0.0543
 4345TIP3    H234451   2.749   6.343  12.712 -1.0100  0.5045  0.9309
 4346TIP3   OH234452   5.986   4.702   0.576  0.2944  0.9470  0.0238
 4346TIP3    H134453   5.935   4.634   0.621  0.9905  0.2861 -0.1650
 4346TIP3    H234454   5.964   4.783   0.622 -1.9451  0.9311 -0.8573
 4347TIP3   OH234455   6.097   1.624   3.960 -0.5749  0.1523  0.5229
 4347TIP3    H134456   6.053   1.699   3.921  0.0099  0.1966 -0.0734
 4347TIP3    H234457   6.028   1.559   3.971 -0.7632  0.1261 -0.6319
 4348TIP3   OH234458   6.094   5.747   5.946 -0.2966 -0.1706 -0.5170
 4348TIP3    H134459   6.025   5.681   5.937  0.4242 -1.0573  0.2334
 4348TIP3    H234460   6.050   5.823   5.984 -0.6111 -1.2019  1.2742
 4349TIP3   OH234461   3.941   1.340   3.866 -0.2296  0.2331  0.2534
 4349TIP3    H134462   3.917   1.430   3.845  0.3488  0.2873 -0.1980
 4349TIP3    H234463   3.866   1.287   3.837 -0.9022  0.6232  1.2094
 4350TIP3   OH234464   5.235   5.443  11.983 -0.3458 -0.0942 -0.4430
 4350TIP3    H134465   5.281   5.359  11.987 -0.7925 -0.3443 -0.5112
 4350TIP3    H234466   5.244   5.470  11.892 -1.8349 -1.0013 -0.8880
 4351TIP3   OH234467   0.304   4.676   1.747 -0.0652  0.4512  0.3363
 4351TIP3    H134468   0.380   4.664   1.804 -0.0972  2.5080  0.9011
 4351TIP3    H234469   0.229   4.673   1.806 -0.5005 -1.7994 -0.2499
 4352TIP3   OH234470   2.436   2.810   0.101  0.0050  0.1954 -0.1123
 4352TIP3    H134471   2.431   2.904   0.119  1.1062  0.3030 -0.2809
 4352TIP3    H234472   2.387   2.798   0.019 -1.4014  0.3729  0.6763
 4353TIP3   OH234473   0.051   4.448   6.472  0.5296  0.2142  0.1034
 4353TIP3    H134474   0.128   4.411   6.428  0.2907  0.5415 -0.6014
 4353TIP3    H234475   0.080   4.534   6.501 -0.0072  0.9583 -1.4920
 4354TIP3   OH234476   4.194   0.841   0.301 -0.2808  0.8110 -0.6045
 4354TIP3    H134477   4.173   0.858   0.209 -1.6633 -0.7222 -0.6231
 4354TIP3    H234478   4.244   0.760   0.300 -1.7587 -0.1451  0.0859
 4355TIP3   OH234479   1.283   6.151   5.517 -0.1429 -0.2592  0.4056
 4355TIP3    H134480   1.237   6.192   5.444 -1.7593  1.3907  2.2569
 4355TIP3    H234481   1.256   6.059   5.513  1.0367 -0.5754 -1.9260
 4356TIP3   OH234482   2.821   2.672  11.531 -0.2562 -0.2654 -0.0902
 4356TIP3    H134483   2.765   2.649  11.456  0.6190 -1.2982 -0.4384
 4356TIP3    H234484   2.900   2.708  11.491 -0.6337  1.1801  0.4033
 4357TIP3   OH234485   5.032   2.962   1.839 -0.3286 -0.5418  0.2836
 4357TIP3    H134486   4.958   2.920   1.883 -0.7319  1.2414  1.3805
 4357TIP3    H234487   5.075   3.013   1.908  1.4235 -0.8461 -0.5346
 4358TIP3   OH234488   1.799   3.416   5.941 -0.1416  0.0974  0.1321
 4358TIP3    H134489   1.725   3.432   5.999 -0.7438 -1.9252 -0.0148
 4358TIP3    H234490   1.812   3.499   5.895 -3.5835 -0.0081 -1.2914
 4359TIP3   OH234491   0.478   1.257  12.306 -0.1206 -0.0322 -0.3586
 4359TIP3    H134492   0.466   1.312  12.228 -0.6080 -0.8121 -0.8411
 4359TIP3    H234493   0.430   1.303  12.375 -1.3116 -0.3200 -0.9808
 4360TIP3   OH234494   4.859   1.843  14.137  0.4237 -0.6757  0.4061
 4360TIP3    H134495   4.877   1.778  14.069 -0.2259 -0.7621  0.3097
 4360TIP3    H234496   4.805   1.796  14.201 -1.0223  0.0661 -0.2270
 4361TIP3   OH234497   5.993   3.337   2.857 -0.5826  0.0006  0.3615
 4361TIP3    H134498   5.963   3.329   2.948 -0.9661 -1.7572  0.1086
 4361TIP3    H234499   5.946   3.268   2.810 -1.2725  1.5989 -1.4320
 4362TIP3   OH234500   2.907   4.837   5.099 -0.1257 -0.1927 -0.4294
 4362TIP3    H134501   2.936   4.789   5.176  0.5673  0.4290 -0.2879
 4362TIP3    H234502   2.845   4.902   5.134 -1.3604 -1.1971 -0.6678
 4363TIP3   OH234503   0.167   5.188   0.093 -0.5707 -0.1849 -0.0744
 4363TIP3    H134504   0.210   5.178   0.179  0.8088 -1.9746 -0.9057
 4363TIP3    H234505   0.235   5.227   0.037 -1.2521  0.3692 -0.5307
 4364TIP3   OH234506   5.826   5.271   3.654  0.0760  0.3900  0.5900
 4364TIP3    H134507   5.756   5.335   3.645 -0.6711 -0.3408  1.1284
 4364TIP3    H234508   5.791   5.204   3.713 -0.2085 -1.8850 -1.9394
 4365TIP3   OH234509   3.206   1.277   0.523  0.2711 -0.5668  0.2965
 4365TIP3    H134510   3.217   1.189   0.558  0.2330 -1.8168 -2.5628
 4365TIP3    H234511   3.294   1.305   0.499 -0.0166 -1.2588 -1.8016
 4366TIP3   OH234512   1.950   3.505   0.430  0.1582 -0.3018  0.0218
 4366TIP3    H134513   1.966   3.461   0.514  0.3517 -0.2857 -0.0070
 4366TIP3    H234514   1.924   3.594   0.455  1.4736  0.0918  0.0302
 4367TIP3   OH234515   1.046   3.076  15.058 -0.3333 -0.4602  0.1436
 4367TIP3    H134516   1.094   2.994  15.046  1.9867  0.5232  2.0619
 4367TIP3    H234517   1.010   3.070  15.146 -1.5686 -0.0710 -0.3177
 4368TIP3   OH234518   5.336   0.486   0.937  0.1375  0.2908  0.1284
 4368TIP3    H134519   5.253   0.451   0.971 -0.1629 -0.0773 -0.9514
 4368TIP3    H234520   5.401   0.419   0.957  0.0227  0.2188  0.2621
 4369TIP3   OH234521   6.634   4.846  12.677  0.5855 -0.1363  0.3967
 4369TIP3    H134522   6.548   4.886  12.683  0.6135  0.3243 -1.6612
 4369TIP3    H234523   6.619   4.754  12.698 -0.0191  0.3251  2.0990
 4370TIP3   OH234524   4.270   2.276  15.007  0.6239 -0.5074  0.6963
 4370TIP3    H134525   4.343   2.250  14.951  0.7595 -0.3767  0.8103
 4370TIP3    H234526   4.206   2.315  14.948  1.4765  1.1673  0.8444
 4371TIP3   OH234527   1.815   0.884   0.387 -0.6121  0.3129 -0.0592
 4371TIP3    H134528   1.797   0.845   0.301 -1.6885  2.1522 -0.7042
 4371TIP3    H234529   1.729   0.892   0.429 -0.2711  0.8655  0.5564
 4372TIP3   OH234530   4.675   1.718   0.657  0.1043  0.1343 -0.5067
 4372TIP3    H134531   4.757   1.715   0.608  0.2845 -0.9484 -0.1747
 4372TIP3    H234532   4.608   1.736   0.591  0.3054 -1.5692 -1.2368
 4373TIP3   OH234533   6.537   6.502  12.830  0.1800 -0.3038 -0.1779
 4373TIP3    H134534   6.548   6.473  12.920  1.5260 -0.6123 -0.4174
 4373TIP3    H234535   6.523   6.597  12.837 -1.5931 -0.5856  0.4452
 4374TIP3   OH234536   3.244   6.244  15.783 -0.0415 -0.2383 -0.6380
 4374TIP3    H134537   3.238   6.340  15.776  0.0902 -0.2856 -1.5910
 4374TIP3    H234538   3.158   6.217  15.812  0.1826  0.2350  0.5124
 4375TIP3   OH234539   1.534   3.649  13.355  0.4295 -0.5106  0.1654
 4375TIP3    H134540   1.442   3.675  13.350  0.8436  0.8928 -0.8306
 4375TIP3    H234541   1.580   3.729  13.379  1.5257 -0.8666 -0.6602
 4376TIP3   OH234542   4.615   1.743   5.249  0.4951 -0.0109 -0.3346
 4376TIP3    H134543   4.675   1.749   5.175 -0.2801 -2.0405 -1.1884
 4376TIP3    H234544   4.550   1.811   5.233  1.7890  1.3246 -0.0910
 4377TIP3   OH234545   2.103   1.995  15.419 -0.0196 -0.0764  0.4809
 4377TIP3    H134546   2.109   1.979  15.325 -2.0469  1.5529 -0.0122
 4377TIP3    H234547   2.073   2.086  15.426  0.6672  0.0472  2.7302
 4378TIP3   OH234548   4.365   6.239   6.135  0.0312  0.3880 -0.3654
 4378TIP3    H134549   4.336   6.225   6.045  0.8742 -0.2655 -0.5530
 4378TIP3    H234550   4.399   6.328   6.136  0.3278  0.2841 -0.7891
 4379TIP3   OH234551   1.189   2.054   1.286  0.0107 -0.4624 -0.0210
 4379TIP3    H134552   1.099   2.082   1.307 -0.7491 -2.4446 -0.4197
 4379TIP3    H234553   1.177   1.977   1.230  1.9875 -0.0502 -1.0691
 4380TIP3   OH234554   2.192   2.840  11.497  0.2536 -0.1431 -0.1558
 4380TIP3    H134555   2.241   2.912  11.458  0.2383  0.1684  0.3972
 4380TIP3    H234556   2.104   2.848  11.460 -0.0468  0.7746  0.7176
 4381TIP3   OH234557   5.410   0.315   2.152 -0.2524  0.0472 -0.2155
 4381TIP3    H134558   5.387   0.368   2.076  0.2257 -1.1389 -1.2238
 4381TIP3    H234559   5.487   0.358   2.189  0.1199  0.0892 -1.0122
 4382TIP3   OH234560   6.674   4.897  17.082  0.5593 -0.2447  0.3691
 4382TIP3    H134561   6.609   4.956  17.045 -0.3853 -1.9506 -0.8065
 4382TIP3    H234562   6.739   4.886  17.013  2.7949  2.2675  1.8785
 4383TIP3   OH234563   4.158   2.268  10.931 -0.0417  0.0797  0.4563
 4383TIP3    H134564   4.223   2.303  10.992  0.0254 -0.1151  0.4966
 4383TIP3    H234565   4.210   2.235  10.857 -0.0575 -0.5489  0.7227
 4384TIP3   OH234566   3.599   0.146  13.955  0.1013  0.0136 -0.1046
 4384TIP3    H134567   3.644   0.083  14.010  0.7486  0.4531 -0.1227
 4384TIP3    H234568   3.527   0.178  14.010 -0.7488 -1.3206 -0.3792
 4385TIP3   OH234569   1.562   2.128  16.427  0.2064  0.0591 -0.2012
 4385TIP3    H134570   1.627   2.154  16.492  0.5649 -0.4631 -0.3486
 4385TIP3    H234571   1.505   2.204  16.418  0.7872  0.5090 -0.0626
 4386TIP3   OH234572   6.186   4.789   2.458 -0.4270 -0.2383  0.4838
 4386TIP3    H134573   6.103   4.816   2.496 -0.5445 -0.4327  0.3708
 4386TIP3    H234574   6.179   4.815   2.366  0.0298  0.6237  0.6838
 4387TIP3   OH234575   5.004   2.329   4.593 -0.0807 -0.6041 -0.6821
 4387TIP3    H134576   4.909   2.327   4.592 -0.0894 -2.5094 -2.5658
 4387TIP3    H234577   5.031   2.252   4.543  2.4429  0.5750 -1.3209
 4388TIP3   OH234578   6.503   3.512   0.694 -0.8337  0.4899 -0.3561
 4388TIP3    H134579   6.570   3.464   0.646 -0.2870 -1.4189  2.0785
 4388TIP3    H234580   6.553   3.565   0.757 -1.4898  3.3991 -2.1072
 4389TIP3   OH234581   1.682   1.587   6.140  0.1339  0.4617 -0.8075
 4389TIP3    H134582   1.751   1.522   6.142  0.7638  1.1285 -0.0381
 4389TIP3    H234583   1.655   1.597   6.232 -1.4236 -0.2272 -1.1512
 4390TIP3   OH234584   6.327   6.621   3.477  0.0876 -0.7289 -0.5180
 4390TIP3    H134585   6.251   6.668   3.513  0.7561  0.9071 -1.1305
 4390TIP3    H234586   6.333   6.541   3.529 -1.3755 -0.3484  0.2901
 4391TIP3   OH234587   0.403   3.216   3.243 -0.9156  0.1477 -0.6061
 4391TIP3    H134588   0.431   3.125   3.256 -2.3766 -0.2197  0.1746
 4391TIP3    H234589   0.479   3.258   3.202  1.1948 -0.5061  2.3182
 4392TIP3   OH234590   5.344   5.743   1.646 -0.4017 -0.6083  0.0044
 4392TIP3    H134591   5.295   5.665   1.673 -3.8544  2.1706  2.6324
 4392TIP3    H234592   5.386   5.773   1.726  1.1831  0.1048 -1.0585
 4393TIP3   OH234593   4.248   1.866   1.805  0.2042 -0.2144  0.2130
 4393TIP3    H134594   4.174   1.921   1.777 -1.4055 -1.5790  1.5514
 4393TIP3    H234595   4.207   1.788   1.841  2.2266 -0.2868  2.6459
 4394TIP3   OH234596   6.023   0.944  13.259  0.8083  0.1299  0.2493
 4394TIP3    H134597   5.941   0.940  13.210 -0.1330  0.9403  1.6861
 4394TIP3    H234598   6.091   0.927  13.194 -0.5001 -0.7170 -0.9443
 4395TIP3   OH234599   1.448   5.423  11.754 -0.6749  0.3112 -0.5390
 4395TIP3    H134600   1.419   5.477  11.680 -2.6160  0.1442  0.0441
 4395TIP3    H234601   1.412   5.336  11.736  1.8458 -0.6813 -1.1200
 4396TIP3   OH234602   1.278   4.369   2.945  0.2154 -0.4861  0.5225
 4396TIP3    H134603   1.269   4.332   2.857 -1.5577  1.4007 -0.1415
 4396TIP3    H234604   1.275   4.293   3.003  0.0309 -1.6512 -0.9597
 4397TIP3   OH234605   3.275   3.430   5.783  0.8731  0.2065 -0.3217
 4397TIP3    H134606   3.313   3.432   5.695  0.7245 -0.3267 -0.4043
 4397TIP3    H234607   3.290   3.340   5.812  3.8374  1.1242  1.4803
 4398TIP3   OH234608   1.876   0.654   5.664 -0.7989 -0.0579 -0.7890
 4398TIP3    H134609   1.895   0.608   5.746  1.1298 -1.2512 -1.8290
 4398TIP3    H234610   1.921   0.738   5.673  0.0316 -0.4825 -0.8894
 4399TIP3   OH234611   6.084   0.164   1.040 -0.4010  0.0669  0.0306
 4399TIP3    H134612   6.164   0.116   1.017  1.2641  2.5996  0.1899
 4399TIP3    H234613   6.017   0.127   0.982  1.0276 -1.6342 -0.6435
 4400TIP3   OH234614   4.801   0.678   0.332  0.3683  0.4437 -0.2440
 4400TIP3    H134615   4.815   0.661   0.425  0.7769  0.8822 -0.2210
 4400TIP3    H234616   4.772   0.769   0.328 -1.8509 -0.2055 -0.3588
 4401TIP3   OH234617   6.773   0.443   3.805 -0.0645  0.1869  0.4723
 4401TIP3    H134618   6.861   0.455   3.769  0.2285 -0.1639  1.0389
 4401TIP3    H234619   6.716   0.435   3.729  0.6425 -1.3124  0.0502
 4402TIP3   OH234620   3.755   4.162  16.466 -0.3131  0.0725  0.0799
 4402TIP3    H134621   3.799   4.223  16.525  0.5108  0.4580 -0.8990
 4402TIP3    H234622   3.758   4.078  16.511  2.6929 -0.2459 -0.5073
 4403TIP3   OH234623   0.311   2.473   5.046 -0.6954  0.9160 -0.3850
 4403TIP3    H134624   0.355   2.389   5.032 -2.6920 -0.9065  2.9032
 4403TIP3    H234625   0.382   2.535   5.059  0.8751 -0.7631 -0.4687
 4404TIP3   OH234626   3.998   0.379  11.783 -0.4713  0.3355 -0.1300
 4404TIP3    H134627   4.017   0.471  11.801 -0.2148  0.5313 -1.3131
 4404TIP3    H234628   4.083   0.340  11.766 -0.4684 -0.3723  1.3393
 4405TIP3   OH234629   0.082   1.759  15.682  0.2933 -0.0116  0.0492
 4405TIP3    H134630   0.034   1.712  15.614 -0.3737 -0.0034  0.5025
 4405TIP3    H234631   0.087   1.849  15.649  0.6455 -0.1630 -0.3297
 4406TIP3   OH234632   5.155   6.733   2.076  0.0294  0.2071 -1.2399
 4406TIP3    H134633   5.079   6.791   2.062 -1.4618 -1.7307 -1.6201
 4406TIP3    H234634   5.148   6.668   2.006 -0.5284 -2.5727  1.2167
 4407TIP3   OH234635   4.608   4.395   0.442 -0.1258 -0.0271 -0.3361
 4407TIP3    H134636   4.677   4.437   0.495 -0.6299 -0.2015  0.4858
 4407TIP3    H234637   4.643   4.393   0.354  1.6717 -1.7128  0.3564
 4408TIP3   OH234638   0.764   5.666   5.334  0.1655  0.0862  0.3336
 4408TIP3    H134639   0.824   5.611   5.385  0.5237 -0.6904 -0.8746
 4408TIP3    H234640   0.753   5.618   5.252 -1.2473  0.7695  0.0985
 4409TIP3   OH234641   3.093   2.182   0.957  0.0996  0.3538  0.0502
 4409TIP3    H134642   3.174   2.164   0.909 -0.2783 -0.8511 -0.1677
 4409TIP3    H234643   3.087   2.112   1.021 -1.6553 -0.6283 -1.1152
 4410TIP3   OH234644   6.341   1.480   6.341  0.3075  0.4677 -0.2008
 4410TIP3    H134645   6.299   1.484   6.255  0.7668  0.5277 -0.4220
 4410TIP3    H234646   6.350   1.386   6.359 -0.3748  0.4434  0.0758
 4411TIP3   OH234647   2.559   4.555  11.422  0.5386  0.0154 -0.5064
 4411TIP3    H134648   2.508   4.574  11.343  0.6186  0.1881 -0.5150
 4411TIP3    H234649   2.590   4.465  11.409 -0.3612 -0.3587 -0.1818
 4412TIP3   OH234650   0.813   2.961  13.935  0.1707 -0.1443 -0.0412
 4412TIP3    H134651   0.866   2.932  13.861 -1.7313 -1.0215 -1.1258
 4412TIP3    H234652   0.791   2.879  13.981  1.4560  0.3905  1.6561
 4413TIP3   OH234653   3.106   4.849  16.285 -0.0357  1.0602 -0.0779
 4413TIP3    H134654   3.011   4.852  16.299 -0.6609 -0.7132 -3.0858
 4413TIP3    H234655   3.127   4.936  16.250 -0.5845  1.4164  0.4635
 4414TIP3   OH234656   4.161   2.042  16.409  0.0403  0.2820 -0.4396
 4414TIP3    H134657   4.206   1.967  16.448 -0.1481  0.9224  1.0912
 4414TIP3    H234658   4.191   2.044  16.319  0.2396 -1.4759 -0.4427
 4415TIP3   OH234659   2.234   1.616  12.501  0.2722 -0.3693 -0.7289
 4415TIP3    H134660   2.321   1.587  12.530 -0.6134 -2.9144 -0.3505
 4415TIP3    H234661   2.227   1.586  12.411 -0.9994 -2.3070 -0.0563
 4416TIP3   OH234662   5.292   3.981  15.022  0.3305  0.4907 -0.0838
 4416TIP3    H134663   5.352   4.051  14.996  0.3672  0.6352  0.3913
 4416TIP3    H234664   5.245   3.959  14.941  0.5395  0.8456 -0.3040
 4417TIP3   OH234665   3.137   2.783   3.140 -0.1306  0.1559 -0.4210
 4417TIP3    H134666   3.223   2.744   3.132  0.2937  0.8669  0.4906
 4417TIP3    H234667   3.104   2.753   3.224  0.3492  1.9688  0.4743
 4418TIP3   OH234668   0.758   5.163   0.052  0.1774 -0.1486  0.0293
 4418TIP3    H134669   0.749   5.148   0.147 -3.0127  1.3810  0.1108
 4418TIP3    H234670   0.810   5.243   0.046  1.2222 -0.7835  0.4285
 4419TIP3   OH234671   4.964   6.569  16.000 -0.3688 -0.2363  0.1273
 4419TIP3    H134672   4.918   6.500  16.048 -0.4012 -0.6606 -0.5030
 4419TIP3    H234673   4.999   6.526  15.922  0.3055  0.2848  0.1256
 4420TIP3   OH234674   5.705   4.586   5.525  0.9017 -0.2132 -0.5831
 4420TIP3    H134675   5.711   4.681   5.520 -2.1844  0.0420 -2.0416
 4420TIP3    H234676   5.678   4.559   5.437 -1.9061 -1.9613  0.6629
 4421TIP3   OH234677   1.947   0.816  12.337  0.0861  0.1587  0.3733
 4421TIP3    H134678   1.934   0.906  12.306  1.6255  0.3826  0.2813
 4421TIP3    H234679   2.013   0.824  12.406 -1.4776 -0.6383  2.0383
 4422TIP3   OH234680   5.258   2.090  13.071  0.5376  0.1366  0.0243
 4422TIP3    H134681   5.281   2.023  13.136 -2.4455 -0.7186  0.3082
 4422TIP3    H234682   5.202   2.151  13.119 -1.8655 -0.5929 -1.6931
 4423TIP3   OH234683   5.579   3.776  16.078 -0.3521 -0.0678  0.1170
 4423TIP3    H134684   5.655   3.744  16.030 -0.1032 -0.1827  0.5778
 4423TIP3    H234685   5.569   3.866  16.049 -0.8634 -0.4571 -0.9530
 4424TIP3   OH234686   3.414   6.024  16.137 -0.5934 -0.2832  0.6163
 4424TIP3    H134687   3.433   6.114  16.110 -1.9012  1.6935  5.3167
 4424TIP3    H234688   3.322   6.012  16.115 -0.0729 -1.1593 -1.3186
 4425TIP3   OH234689   5.141   5.736  14.847  0.1742  0.2737  0.2316
 4425TIP3    H134690   5.142   5.736  14.752 -1.5938 -0.0625  0.1756
 4425TIP3    H234691   5.164   5.826  14.872  2.2752 -0.0249 -0.4103
 4426TIP3   OH234692   2.995   3.453  15.842 -0.3407 -0.6884 -0.2162
 4426TIP3    H134693   2.979   3.478  15.751 -1.3068 -1.5994 -0.3168
 4426TIP3    H234694   3.090   3.451  15.850 -0.2165 -1.7626 -1.5526
 4427TIP3   OH234695   0.597   4.684  12.724 -0.1014  0.1244 -0.0608
 4427TIP3    H134696   0.672   4.686  12.664  0.7953  0.8055  1.0315
 4427TIP3    H234697   0.545   4.609  12.696  2.0154 -1.6094  0.3393
 4428TIP3   OH234698   6.242   3.904  14.634  0.3053 -0.0062  0.0320
 4428TIP3    H134699   6.176   3.906  14.565  2.1136 -0.9701 -1.8448
 4428TIP3    H234700   6.296   3.981  14.617  0.2650  0.2362  0.9483
 4429TIP3   OH234701   6.042   2.110  13.941  0.7478  0.0897  0.1993
 4429TIP3    H134702   6.055   2.183  14.003  0.0590 -1.5509  2.4112
 4429TIP3    H234703   6.023   2.153  13.858 -0.0790  2.4692  1.5046
 4430TIP3   OH234704   0.996   1.951  13.438  0.2410 -0.5474 -0.0620
 4430TIP3    H134705   1.065   1.910  13.490  0.9832  0.0176 -0.5754
 4430TIP3    H234706   0.959   2.018  13.496  1.2337  0.2509 -0.3214
 4431TIP3   OH234707   6.225   1.706  15.970  0.5828 -0.1577 -0.0411
 4431TIP3    H134708   6.283   1.776  16.001 -0.5103  0.8760 -0.2280
 4431TIP3    H234709   6.240   1.634  16.031  2.8891 -0.3776 -0.7684
 4432TIP3   OH234710   4.709   0.478  13.658  0.6574 -0.4241  0.0398
 4432TIP3    H134711   4.720   0.516  13.745 -2.6891 -3.0776  1.8862
 4432TIP3    H234712   4.619   0.499  13.634  0.9876 -1.1495 -2.0786
 4433TIP3   OH234713   3.674   2.695   4.874 -0.3541  0.2468 -0.6577
 4433TIP3    H134714   3.594   2.680   4.823 -0.1243  0.8875 -1.2266
 4433TIP3    H234715   3.743   2.650   4.824 -0.1396  0.8250 -0.9043
 4434TIP3   OH234716   4.021   2.877  15.184  0.4157 -0.0821 -0.0551
 4434TIP3    H134717   3.951   2.813  15.197  0.8104 -0.6402 -0.6164
 4434TIP3    H234718   4.079   2.865  15.259  0.2761 -0.1035  0.0489
 4435TIP3   OH234719   4.973   6.474  11.399  0.7662 -0.3316  0.1836
 4435TIP3    H134720   4.890   6.429  11.415  0.3712  0.8274  1.6309
 4435TIP3    H234721   4.959   6.563  11.431  2.6855 -0.2082  0.8195
 4436TIP3   OH234722   5.481   4.238  13.647  0.8748 -0.6044 -0.3463
 4436TIP3    H134723   5.498   4.264  13.556 -1.4729  2.8813  0.0116
 4436TIP3    H234724   5.537   4.296  13.699  0.1308 -0.5813  0.4479
 4437TIP3   OH234725   6.769   5.535   3.158 -0.2990  0.1783 -0.2167
 4437TIP3    H134726   6.864   5.532   3.170 -0.3627 -1.0519  0.2247
 4437TIP3    H234727   6.736   5.579   3.236 -0.2085 -1.3878  0.7650
 4438TIP3   OH234728   6.745   1.008  12.592 -0.0090 -0.4659  0.0229
 4438TIP3    H134729   6.721   1.099  12.609 -0.9170 -0.8929  1.1649
 4438TIP3    H234730   6.679   0.977  12.529  1.5574  0.2353 -2.0854
 4439TIP3   OH234731   4.502   6.734  12.850 -0.0795  0.5077  0.6155
 4439TIP3    H134732   4.577   6.788  12.824 -0.3641  1.0056  0.8173
 4439TIP3    H234733   4.538   6.671  12.912  0.3081  0.2861  0.1747
 4440TIP3   OH234734   0.529   1.836  13.914 -0.2837  0.0413  0.5045
 4440TIP3    H134735   0.516   1.792  13.998  1.8444 -1.4226  0.1440
 4440TIP3    H234736   0.592   1.906  13.934 -0.0437 -0.0853  0.1879
 4441TIP3   OH234737   0.397   3.130  16.947 -0.1781 -0.3761  0.4044
 4441TIP3    H134738   0.366   3.146  17.036 -0.7611 -2.5667  0.6498
 4441TIP3    H234739   0.321   3.147  16.891  0.4982  2.1468  0.1339
 4442TIP3   OH234740   3.962   6.317  13.301  0.6748  0.4084  0.3329
 4442TIP3    H134741   4.047   6.287  13.268 -1.2116 -3.4558 -1.6620
 4442TIP3    H234742   3.967   6.301  13.396  2.2793  0.7289  0.3326
 4443TIP3   OH234743   6.287   2.752   5.475 -0.0341  0.0912  0.2032
 4443TIP3    H134744   6.275   2.657   5.479  3.9097 -0.5577  1.2181
 4443TIP3    H234745   6.249   2.785   5.556 -2.0917 -0.4649 -0.4954
 4444TIP3   OH234746   5.899   4.534  16.589 -0.3951 -0.0967 -0.1322
 4444TIP3    H134747   5.971   4.477  16.618  1.3650  3.0853  2.4587
 4444TIP3    H234748   5.916   4.548  16.496  2.5499  0.6589  0.4197
 4445TIP3   OH234749   0.364   1.035  10.848 -0.6284  0.5848 -0.2140
 4445TIP3    H134750   0.362   1.130  10.844  0.6061  0.5696 -2.3557
 4445TIP3    H234751   0.453   1.011  10.825 -1.2987 -1.1196 -1.2553
 4446TIP3   OH234752   1.567   2.274   1.981 -0.0873  0.1285 -0.3764
 4446TIP3    H134753   1.563   2.180   1.965  0.3025  0.1779 -0.7876
 4446TIP3    H234754   1.600   2.282   2.070  0.8917 -0.1179 -0.7024
 4447TIP3   OH234755   2.931   5.254  15.839 -0.1189  0.2587 -0.4390
 4447TIP3    H134756   2.877   5.187  15.796 -0.4841 -1.1443  2.0584
 4447TIP3    H234757   2.875   5.288  15.909  1.4515  0.3899  0.7851
 4448TIP3   OH234758   1.944   4.571  15.430  0.3687 -0.1096 -0.0739
 4448TIP3    H134759   1.890   4.492  15.423  1.4487 -0.8490 -0.3881
 4448TIP3    H234760   2.034   4.538  15.432  0.7942  0.8673  3.0419
 4449TIP3   OH234761   2.427   1.811   0.707 -0.5054  0.6950 -0.0030
 4449TIP3    H134762   2.423   1.787   0.614  0.8786  0.3776 -0.0012
 4449TIP3    H234763   2.519   1.799   0.731 -0.9357  0.2778  1.5466
 4450TIP3   OH234764   5.976   0.700  15.573  0.2793  0.0847  0.1346
 4450TIP3    H134765   5.932   0.621  15.606 -0.4902  0.7210  0.6642
 4450TIP3    H234766   5.919   0.772  15.600  0.4814  0.7588 -1.1795
 4451TIP3   OH234767   5.627   1.243  14.349  0.1394  0.6740  0.3209
 4451TIP3    H134768   5.663   1.236  14.261 -1.4630  0.0261 -0.3211
 4451TIP3    H234769   5.693   1.292  14.398  0.9411  1.2802 -1.2925
 4452TIP3   OH234770   2.616   0.717  12.761  0.5806 -0.4752  0.0971
 4452TIP3    H134771   2.693   0.748  12.808 -0.3910 -1.3799  2.4550
 4452TIP3    H234772   2.592   0.636  12.806 -0.5127 -1.3491 -1.9486
 4453TIP3   OH234773   2.850   1.989   5.413 -0.2489  0.1322  0.2498
 4453TIP3    H134774   2.870   1.929   5.341  1.8594 -1.3065  1.9484
 4453TIP3    H234775   2.788   1.941   5.468  2.1528 -0.9989  2.1084
 4454TIP3   OH234776   1.204   4.713  13.925 -0.0210 -0.1593 -0.5510
 4454TIP3    H134777   1.184   4.753  13.840 -0.8489 -1.4182 -0.9779
 4454TIP3    H234778   1.288   4.752  13.950  0.2387  0.2497 -1.9388
 4455TIP3   OH234779   6.637   3.934  10.777 -0.1264 -0.1484 -0.1628
 4455TIP3    H134780   6.636   3.846  10.813 -2.4008 -0.8739 -1.8060
 4455TIP3    H234781   6.656   3.923  10.684  0.5948  1.2105 -0.2121
 4456TIP3   OH234782   3.106   0.762   0.870 -0.1207  0.5001  0.0156
 4456TIP3    H134783   3.064   0.684   0.834 -0.4049  0.4680  0.4180
 4456TIP3    H234784   3.048   0.834   0.844 -1.0554  0.3363  1.5510
 4457TIP3   OH234785   4.931   5.628  15.042  0.4524  0.7119 -0.0112
 4457TIP3    H134786   4.998   5.679  14.996  0.9526  0.8227  0.8188
 4457TIP3    H234787   4.860   5.690  15.057  0.3869  0.7381 -0.4048
 4458TIP3   OH234788   5.422   1.242   5.488 -0.2395  0.2913  0.4569
 4458TIP3    H134789   5.364   1.276   5.420 -0.6628  1.5674  1.4285
 4458TIP3    H234790   5.411   1.301   5.562  2.2087  0.5177  0.7325
 4459TIP3   OH234791   1.699   4.257  15.988 -0.2978  0.0368 -0.1843
 4459TIP3    H134792   1.690   4.330  16.050  0.7793 -0.2223  0.3038
 4459TIP3    H234793   1.612   4.217  15.985 -0.8879  1.2787 -0.3985
 4460TIP3   OH234794   5.440   4.680  12.774 -0.4540 -0.0937 -0.2306
 4460TIP3    H134795   5.351   4.708  12.752 -0.4133  2.1394  1.9411
 4460TIP3    H234796   5.429   4.624  12.851 -0.1287 -2.2725 -1.6912
 4461TIP3   OH234797   1.188   0.686  14.377 -0.5744  0.1107 -0.1438
 4461TIP3    H134798   1.259   0.750  14.381 -1.6694  1.5220 -1.6643
 4461TIP3    H234799   1.233   0.602  14.365  0.8493  0.9363 -0.9327
 4462TIP3   OH234800   6.111   1.646   1.398  0.5279 -0.1606  0.1039
 4462TIP3    H134801   6.015   1.652   1.402  0.2104 -1.6156 -2.9825
 4462TIP3    H234802   6.134   1.581   1.465 -0.7733 -0.7595 -0.0051
 4463TIP3   OH234803   2.068   6.369  14.014 -0.3081 -0.0464  0.2962
 4463TIP3    H134804   2.145   6.416  13.983 -0.8775  1.0580  0.4945
 4463TIP3    H234805   2.004   6.438  14.035 -1.0108 -0.8857  1.0405
 4464TIP3   OH234806   6.148   3.539  13.625 -0.0638 -0.4072 -0.1051
 4464TIP3    H134807   6.055   3.560  13.614 -0.3557 -2.0294 -1.0532
 4464TIP3    H234808   6.157   3.522  13.719 -0.7921 -0.5668 -0.0583
 4465TIP3   OH234809   2.456   0.755  14.836 -0.1817 -0.4631  0.0327
 4465TIP3    H134810   2.408   0.828  14.877  2.8122  1.4820  0.3294
 4465TIP3    H234811   2.472   0.695  14.909 -1.7338 -0.9719  0.0035
 4466TIP3   OH234812   2.116   4.636  12.809 -0.5630 -0.1945  0.2891
 4466TIP3    H134813   2.156   4.647  12.895 -1.4677  2.2576  0.4985
 4466TIP3    H234814   2.023   4.622  12.828 -0.5475 -1.1276 -0.2786
 4467TIP3   OH234815   0.026   1.995   3.369  0.3520  0.5323  0.0623
 4467TIP3    H134816   0.100   1.966   3.422  0.2356  1.0527  0.5136
 4467TIP3    H234817   0.067   2.043   3.296  0.5263 -0.4408 -0.5073
 4468TIP3   OH234818   2.346   2.069   6.018  0.3005 -0.5836 -0.3476
 4468TIP3    H134819   2.396   2.066   6.100  0.4741  0.4709 -0.4012
 4468TIP3    H234820   2.292   2.147   6.026 -0.1280 -0.8016 -0.9997
 4469TIP3   OH234821   4.580   6.255  12.495 -0.0599  0.0566  0.1508
 4469TIP3    H134822   4.498   6.234  12.539 -0.6035  1.9945  0.1332
 4469TIP3    H234823   4.612   6.334  12.540 -1.5677  3.3125 -3.9247
 4470TIP3   OH234824   5.522   5.384   2.064 -0.4745 -0.2903  0.3979
 4470TIP3    H134825   5.507   5.295   2.097  0.7089 -0.2010  1.2312
 4470TIP3    H234826   5.496   5.441   2.136  0.2709 -0.0277  0.4743
 4471TIP3   OH234827   1.734   0.460  15.500 -0.3818  0.0470 -0.4925
 4471TIP3    H134828   1.775   0.546  15.509  0.0893  0.0118 -2.0800
 4471TIP3    H234829   1.680   0.451  15.579  1.7723  0.5733  1.1181
 4472TIP3   OH234830   4.760   4.794   2.309  0.1945  0.6560  0.4942
 4472TIP3    H134831   4.806   4.833   2.383 -1.0855  1.0799  1.0812
 4472TIP3    H234832   4.685   4.749   2.347  0.3017 -0.3244 -0.4168
 4473TIP3   OH234833   1.707   4.893  17.143  0.3564  0.2888 -0.5151
 4473TIP3    H134834   1.745   4.980  17.138 -0.7237  0.7733 -0.6653
 4473TIP3    H234835   1.679   4.884  17.234  0.8786 -0.0915 -0.3873
 4474TIP3   OH234836   6.092   2.498  13.744 -0.3051  0.4211  0.3562
 4474TIP3    H134837   6.029   2.517  13.813 -1.2195 -1.3301  0.0565
 4474TIP3    H234838   6.175   2.488  13.790 -0.5753  0.9851  0.9813
 4475TIP3   OH234839   6.709   2.719  15.794  0.1652 -0.4025  0.5446
 4475TIP3    H134840   6.727   2.754  15.707  0.3415 -0.1868  0.6663
 4475TIP3    H234841   6.619   2.688  15.789  1.0405 -3.0242 -0.5794
 4476TIP3   OH234842   4.436   6.704  15.550  0.2694  0.3959 -0.4708
 4476TIP3    H134843   4.424   6.795  15.523  0.2776  0.5479  0.0274
 4476TIP3    H234844   4.494   6.709  15.626  1.8975 -0.1942 -1.6397
 4477TIP3   OH234845   0.984   5.322  14.094  0.4367 -0.2633 -0.3468
 4477TIP3    H134846   1.073   5.316  14.058  1.1446 -0.4547  1.3576
 4477TIP3    H234847   0.973   5.242  14.146 -0.1481  0.4864  0.7151
 4478TIP3   OH234848   5.914   6.360  13.255 -0.3116 -0.0963  0.3283
 4478TIP3    H134849   5.923   6.399  13.342 -0.6817  0.5187  0.0981
 4478TIP3    H234850   5.934   6.267  13.268 -0.5960 -0.0569  1.1140
 4479TIP3   OH234851   2.088   5.098  13.454 -0.5386 -0.0559 -0.2036
 4479TIP3    H134852   2.093   5.014  13.500 -0.2765 -0.5857 -1.1605
 4479TIP3    H234853   2.063   5.161  13.521 -0.9998 -0.9447  0.4805
 4480TIP3   OH234854   6.101   4.918   4.089  0.5431  0.1266 -0.1400
 4480TIP3    H134855   6.178   4.918   4.146  1.1086  0.4086 -0.8800
 4480TIP3    H234856   6.137   4.932   4.001 -0.3600  0.3146 -0.4895
 4481TIP3   OH234857   0.045   3.165   6.122 -0.0030 -0.6661 -0.0233
 4481TIP3    H134858  -0.033   3.196   6.168  0.9078  0.6280  0.7276
 4481TIP3    H234859   0.095   3.118   6.189  0.7172  0.1159  0.0091
 4482TIP3   OH234860   3.917   3.807   5.788  0.0473 -0.2095  0.3268
 4482TIP3    H134861   3.900   3.780   5.878  1.6174  0.2471  0.7908
 4482TIP3    H234862   3.942   3.727   5.742 -3.3926 -0.9780 -0.4747
 4483TIP3   OH234863   3.121   4.053  13.546  0.3989  0.1340 -0.1347
 4483TIP3    H134864   3.042   4.107  13.542  0.7214  0.5664 -0.5980
 4483TIP3    H234865   3.128   4.028  13.638 -0.9589 -0.9145 -0.2796
 4484TIP3   OH234866   3.903   1.983   1.072 -0.2426 -0.2318  0.4937
 4484TIP3    H134867   3.994   1.971   1.044 -0.9381  0.5274 -2.4140
 4484TIP3    H234868   3.861   1.899   1.056 -0.4544 -0.0522  0.1007
 4485TIP3   OH234869   6.139   1.138  12.809  0.8233  0.0466 -0.0015
 4485TIP3    H134870   6.085   1.204  12.765 -0.3173 -0.3662  0.7304
 4485TIP3    H234871   6.110   1.054  12.772  1.0010 -0.1769  0.3520
 4486TIP3   OH234872   1.611   1.946  12.927  0.3573  0.5022 -0.0676
 4486TIP3    H134873   1.599   1.947  13.022 -0.3386 -1.3260 -0.0912
 4486TIP3    H234874   1.687   1.888  12.913 -0.9111 -1.0784 -0.6895
 4487TIP3   OH234875   4.839   5.026  12.803  0.2444 -0.5955  0.3604
 4487TIP3    H134876   4.876   5.018  12.891 -0.2433 -1.4542  0.4998
 4487TIP3    H234877   4.818   5.119  12.794  0.8784 -0.3869  0.9070
 4488TIP3   OH234878   0.415   0.102   0.265 -0.1689  0.3657  0.1983
 4488TIP3    H134879   0.355   0.167   0.303  1.1642  1.1735  1.0215
 4488TIP3    H234880   0.502   0.135   0.287  0.5543 -1.7762  0.7077
 4489TIP3   OH234881   0.904   3.493   0.500  0.1239 -0.5542 -0.5094
 4489TIP3    H134882   0.873   3.560   0.440  2.3270  1.1896  0.1783
 4489TIP3    H234883   0.998   3.511   0.511  0.4123 -2.6135  1.1473
 4490TIP3   OH234884   0.255   1.434   2.508 -0.5447 -0.3668 -0.2872
 4490TIP3    H134885   0.340   1.450   2.467  1.4205  0.1294  3.6022
 4490TIP3    H234886   0.205   1.514   2.491  0.4103  0.0775 -1.1222
 4491TIP3   OH234887   2.781   3.947  10.623 -0.2252  0.1844 -0.8300
 4491TIP3    H134888   2.775   3.852  10.632  2.0614 -0.0994 -1.6161
 4491TIP3    H234889   2.694   3.974  10.591 -0.6518 -1.7369 -1.4158
 4492TIP3   OH234890   3.736   6.158  16.449  0.0155 -0.4884  0.1272
 4492TIP3    H134891   3.738   6.211  16.529  0.0928 -0.2751 -0.0173
 4492TIP3    H234892   3.823   6.166  16.411 -0.0334 -0.5557 -0.0031
 4493TIP3   OH234893   3.117   4.174  15.247 -0.0474 -0.4611 -0.1200
 4493TIP3    H134894   3.122   4.093  15.196  0.3954 -1.2506  1.1266
 4493TIP3    H234895   3.207   4.193  15.269 -0.1177  0.5867 -0.6872
 4494TIP3   OH234896   5.509   3.712  15.002  0.4518  0.3002  0.2159
 4494TIP3    H134897   5.515   3.779  15.070  0.7709 -0.6735  1.1815
 4494TIP3    H234898   5.423   3.724  14.963  0.5190  1.2840  0.3438
 4495TIP3   OH234899   4.506   3.817   4.944 -0.2644  0.1118 -0.5312
 4495TIP3    H134900   4.448   3.811   4.868 -0.1918  1.1052 -0.6665
 4495TIP3    H234901   4.578   3.758   4.923 -0.3247  0.2591 -1.1666
 4496TIP3   OH234902   5.900   6.471   3.205  0.0898 -0.0991  0.0840
 4496TIP3    H134903   5.894   6.428   3.290 -0.9557  0.4332  0.2951
 4496TIP3    H234904   5.821   6.525   3.200 -0.4320 -0.9590 -1.6864
 4497TIP3   OH234905   4.878   5.934  12.882  0.3573 -0.5458 -0.4086
 4497TIP3    H134906   4.808   5.997  12.899 -0.6539 -1.6053 -0.5431
 4497TIP3    H234907   4.888   5.934  12.787 -0.3958 -1.3441 -0.5049
 4498TIP3   OH234908   5.096   2.350   0.277  0.9377 -0.8995 -0.3790
 4498TIP3    H134909   5.054   2.267   0.301  1.4484 -0.7625  1.1412
 4498TIP3    H234910   5.023   2.408   0.254  0.1802 -0.6205  2.3661
 4499TIP3   OH234911   3.613   2.064  15.739 -0.7044 -0.3033  0.0480
 4499TIP3    H134912   3.633   2.119  15.814  2.1351 -0.9329 -0.1165
 4499TIP3    H234913   3.617   2.123  15.664 -1.6964 -0.0234  0.2018
 4500TIP3   OH234914   3.817   3.381   5.125  0.6120 -0.1511  0.0017
 4500TIP3    H134915   3.759   3.369   5.200  1.1620 -0.5435  0.3676
 4500TIP3    H234916   3.769   3.442   5.068  0.7872  1.2767  1.3188
 4501TIP3   OH234917   4.487   1.419   1.344 -0.6322 -0.5079  0.1287
 4501TIP3    H134918   4.479   1.376   1.429 -1.1366  0.0467  0.3691
 4501TIP3    H234919   4.496   1.512   1.365 -0.5848 -0.3842 -0.4182
 4502TIP3   OH234920   5.700   0.831  15.506 -0.5680 -0.8403  0.0645
 4502TIP3    H134921   5.715   0.845  15.599  0.9486  0.3020 -0.3119
 4502TIP3    H234922   5.679   0.917  15.471  1.1744 -0.8056 -1.0140
 4503TIP3   OH234923   0.525   3.119   2.931 -0.5669 -0.2140 -0.1169
 4503TIP3    H134924   0.569   3.191   2.977 -3.3549  0.8674  1.0742
 4503TIP3    H234925   0.537   3.138   2.838  2.3057 -0.5804  0.1065
 4504TIP3   OH234926   1.184   3.094   6.027  0.2099  0.5996 -0.1220
 4504TIP3    H134927   1.270   3.136   6.031  0.7347 -0.3035 -1.1297
 4504TIP3    H234928   1.182   3.035   6.102  1.5795 -1.2839 -1.4627
 4505TIP3   OH234929   0.930   0.448  15.949 -0.7267  0.1135  0.1113
 4505TIP3    H134930   0.978   0.505  15.887 -0.5903 -2.0378 -1.9015
 4505TIP3    H234931   0.885   0.385  15.893 -1.0346 -1.6424  2.2180
 4506TIP3   OH234932   1.229   2.843   4.689  0.2571  0.5357  0.5438
 4506TIP3    H134933   1.247   2.896   4.767  0.7886  1.7542 -0.3762
 4506TIP3    H234934   1.273   2.760   4.706  2.8644  1.7933  0.3536
 4507TIP3   OH234935   2.602   5.714  12.001  0.8415  0.7016  0.5042
 4507TIP3    H134936   2.622   5.622  12.015  0.8674  0.2194 -2.2457
 4507TIP3    H234937   2.536   5.715  11.932  0.1815  2.7477  1.0627
 4508TIP3   OH234938   2.110   5.863  11.446 -0.1810  0.3453 -0.1297
 4508TIP3    H134939   2.038   5.871  11.383 -1.4719 -1.2443  1.0701
 4508TIP3    H234940   2.184   5.831  11.393 -1.2009 -0.8675 -0.8727
 4509TIP3   OH234941   2.194   6.481  13.216 -0.2984  0.2240 -0.3981
 4509TIP3    H134942   2.223   6.391  13.230 -4.8425 -1.6042 -0.9793
 4509TIP3    H234943   2.193   6.520  13.304  0.4283 -0.7509  0.0595
 4510TIP3   OH234944   5.424   1.140   2.157  0.0872  0.1788  0.5124
 4510TIP3    H134945   5.477   1.070   2.195 -0.9518  0.0241  1.7478
 4510TIP3    H234946   5.450   1.219   2.205  1.3692  0.7208 -0.9801
 4511TIP3   OH234947   6.189   1.651  14.223 -0.6255 -0.2273 -0.5334
 4511TIP3    H134948   6.200   1.575  14.281 -0.0303 -1.4351 -2.1281
 4511TIP3    H234949   6.267   1.650  14.168 -0.5752  1.6238 -0.5454
 4512TIP3   OH234950   4.525   4.000   0.322 -0.0397 -0.3560 -0.1142
 4512TIP3    H134951   4.548   3.917   0.280 -1.4485  0.0128 -1.7162
 4512TIP3    H234952   4.604   4.025   0.369  0.9683 -1.7900 -0.9424
 4513TIP3   OH234953   0.786   1.712  15.460 -0.4605 -0.1034 -0.4440
 4513TIP3    H134954   0.749   1.760  15.534 -0.9888  0.9735 -1.3793
 4513TIP3    H234955   0.749   1.624  15.468 -1.3135  0.2777  0.0117
 4514TIP3   OH234956   6.529   6.378  13.113 -0.6837 -0.0147 -0.7152
 4514TIP3    H134957   6.530   6.456  13.168 -1.0472  0.7016 -1.6888
 4514TIP3    H234958   6.513   6.306  13.173  0.9406  0.4908  0.3860
 4515TIP3   OH234959   3.717   1.533  16.334  0.3810 -0.5262  0.2511
 4515TIP3    H134960   3.791   1.557  16.389  1.0419 -1.2422 -0.2977
 4515TIP3    H234961   3.669   1.466  16.384  0.7458 -0.8760  0.1356
 4516TIP3   OH234962   5.871   4.692   3.393  0.3868  0.4450 -0.8139
 4516TIP3    H134963   5.840   4.727   3.309  1.0204  1.2443 -0.7357
 4516TIP3    H234964   5.964   4.716   3.395  0.0869  1.5975  0.6813
 4517TIP3   OH234965   1.075   3.767   5.542 -0.4349 -0.2627  0.3065
 4517TIP3    H134966   1.130   3.797   5.615  0.8013 -0.3974 -0.5400
 4517TIP3    H234967   0.985   3.776   5.574  0.0836 -0.2781  1.8231
 4518TIP3   OH234968   2.837   1.260  13.816  0.1937 -0.7798  0.3175
 4518TIP3    H134969   2.757   1.274  13.867  0.9650 -0.2158  1.4129
 4518TIP3    H234970   2.861   1.348  13.785 -0.7591 -1.2131 -1.8511
 4519TIP3   OH234971   4.926   2.805  11.753  0.9243 -0.5181 -0.0121
 4519TIP3    H134972   5.004   2.811  11.809 -0.6414  0.6124  2.2500
 4519TIP3    H234973   4.880   2.888  11.768 -1.0993 -1.4637 -0.6329
 4520TIP3   OH234974   0.606   5.883   5.402 -0.4520  0.1011  0.5111
 4520TIP3    H134975   0.531   5.859   5.348 -0.3064 -1.9648  1.1471
 4520TIP3    H234976   0.671   5.815   5.385  0.6958  0.9728  1.1708
 4521TIP3   OH234977   3.642   5.394   1.165  0.2066  0.2017 -0.3221
 4521TIP3    H134978   3.665   5.484   1.142 -0.1266  0.0606 -1.2429
 4521TIP3    H234979   3.570   5.403   1.228  1.1393  0.5907  0.7304
 4522TIP3   OH234980   2.919   6.480  13.617  0.6013  0.4847  0.3594
 4522TIP3    H134981   2.970   6.559  13.596  1.1424  0.0960  0.2038
 4522TIP3    H234982   2.966   6.409  13.574 -0.5378  0.2230 -0.4825
 4523TIP3   OH234983   0.218   2.901  14.816 -0.2519 -0.3077 -0.7276
 4523TIP3    H134984   0.184   2.989  14.833 -0.6567 -0.9656  2.4611
 4523TIP3    H234985   0.144   2.855  14.775 -1.1507 -0.0009  0.4852
 4524TIP3   OH234986   3.745   6.311   0.597  0.2204 -0.5615 -0.7602
 4524TIP3    H134987   3.770   6.363   0.521 -0.3339  1.2673  0.2485
 4524TIP3    H234988   3.818   6.251   0.611  2.2047  1.8033 -0.3672
 4525TIP3   OH234989   2.499   2.427  10.551  0.6728 -0.4336 -0.5218
 4525TIP3    H134990   2.573   2.370  10.574  1.2060  0.8285  1.0574
 4525TIP3    H234991   2.461   2.452  10.635  0.4782  1.5411 -1.1486
 4526TIP3   OH234992   6.316   1.444   3.610  0.6075 -0.3490  0.4167
 4526TIP3    H134993   6.263   1.501   3.665  1.0959  0.8404 -0.3125
 4526TIP3    H234994   6.399   1.489   3.601  1.2801 -1.5378  0.4243
 4527TIP3   OH234995   2.731   0.306   0.089 -0.0001  0.2576 -0.1178
 4527TIP3    H134996   2.729   0.233   0.027 -3.2096 -0.3603  0.5452
 4527TIP3    H234997   2.735   0.384   0.034  0.9416 -0.3355 -0.9255
 4528TIP3   OH234998   6.016   0.194   4.180 -0.0113 -0.4255 -0.2869
 4528TIP3    H134999   5.922   0.199   4.195 -0.2419  2.4608 -2.0067
 4528TIP3    H235000   6.053   0.174   4.266 -2.1388 -1.6757  0.4085
 4529TIP3   OH235001   0.072   1.289  15.612  0.3463  0.6260  0.3217
 4529TIP3    H135002   0.010   1.359  15.632 -2.0576 -0.6949 -1.8515
 4529TIP3    H235003   0.074   1.287  15.516  1.7893 -1.0947  0.3491
 4530TIP3   OH235004   1.966   5.856  12.839 -0.2007  0.0592  0.1702
 4530TIP3    H135005   2.021   5.810  12.902 -1.8261  0.6046  2.0915
 4530TIP3    H235006   1.884   5.807  12.838  0.3230 -1.0355 -3.0077
 4531TIP3   OH235007   3.630   2.204  12.464  0.0317  0.4147  0.2498
 4531TIP3    H135008   3.610   2.289  12.426 -0.9205  0.6413  1.2376
 4531TIP3    H235009   3.568   2.144  12.423  1.7343 -0.1660 -1.6664
 4532TIP3   OH235010   0.319   5.433   0.510  0.0782  0.0116 -0.1633
 4532TIP3    H135011   0.329   5.364   0.445  0.6551 -0.8037  0.7577
 4532TIP3    H235012   0.313   5.386   0.594 -3.2818  0.8434  0.2134
 4533TIP3   OH235013   6.641   5.342  14.947  0.2244 -0.0503  0.5914
 4533TIP3    H135014   6.668   5.293  15.025 -0.5719  0.7864  1.4208
 4533TIP3    H235015   6.565   5.295  14.913  1.3339 -1.1616 -0.4794
 4534TIP3   OH235016   5.478   4.036   0.418  0.2933  0.2431 -0.0973
 4534TIP3    H135017   5.465   3.947   0.451 -1.6826  0.5289 -0.0182
 4534TIP3    H235018   5.555   4.029   0.361 -0.2762 -1.6974 -0.6950
 4535TIP3   OH235019   6.709   4.333   2.256  0.1527  0.0133 -0.2573
 4535TIP3    H135020   6.670   4.379   2.330  0.4330 -1.2694  0.7206
 4535TIP3    H235021   6.713   4.399   2.186 -1.2762  0.8922  0.4521
 4536TIP3   OH235022   2.178   4.014   4.201  0.7759  0.0111  0.3432
 4536TIP3    H135023   2.244   4.052   4.143 -1.2843  2.3612 -0.6144
 4536TIP3    H235024   2.150   3.934   4.155  0.3545  0.9661 -1.1261
 4537TIP3   OH235025   0.796   3.672   1.262  0.3357  0.1935 -0.0647
 4537TIP3    H135026   0.888   3.668   1.287 -0.0093 -0.3093  1.1824
 4537TIP3    H235027   0.775   3.582   1.235 -0.0351  0.0660  0.6153
 4538TIP3   OH235028   4.217   5.313  15.155 -0.1246  0.3220 -0.2481
 4538TIP3    H135029   4.291   5.337  15.099  0.0343 -0.0520 -0.1991
 4538TIP3    H235030   4.154   5.271  15.095 -0.3037  0.6463 -0.2914
 4539TIP3   OH235031   5.658   4.670   4.621 -0.6716  0.5315 -0.4701
 4539TIP3    H135032   5.622   4.706   4.539  0.9328 -0.7388 -1.8105
 4539TIP3    H235033   5.635   4.578   4.618  0.0501  0.3244  0.1420
 4540TIP3   OH235034   2.302   2.056   0.766  0.4769 -0.1929  0.1655
 4540TIP3    H135035   2.322   1.963   0.755 -0.8693 -0.4454 -0.3916
 4540TIP3    H235036   2.332   2.077   0.854  0.3822 -1.2650  0.4657
 4541TIP3   OH235037   2.415   6.311  14.123  0.5307 -0.2983 -0.0830
 4541TIP3    H135038   2.393   6.312  14.030  0.0578 -0.5335  0.0246
 4541TIP3    H235039   2.332   6.330  14.168  0.6969 -0.4592  0.2989
 4542TIP3   OH235040   4.898   4.019  15.057  0.5726  0.0272 -0.0361
 4542TIP3    H135041   4.839   4.070  15.002  0.5176 -1.0648 -1.0272
 4542TIP3    H235042   4.951   4.084  15.103 -1.2298  1.0335  0.7280
 4543TIP3   OH235043   3.204   0.070   1.563  0.2686  0.2402 -0.3069
 4543TIP3    H135044   3.162   0.151   1.591  0.2838 -0.1741  0.9819
 4543TIP3    H235045   3.132   0.007   1.554  0.4850 -0.2100  0.9540
 4544TIP3   OH235046   0.293   3.490  14.853 -0.4265 -0.1298  0.7882
 4544TIP3    H135047   0.207   3.511  14.816 -0.5728  0.3352  1.3754
 4544TIP3    H235048   0.322   3.571  14.894  0.4762 -0.1781  0.2643
 4545TIP3   OH235049   3.798   4.571   1.905 -0.0151  1.1041 -0.2228
 4545TIP3    H135050   3.815   4.517   1.828  0.5560  1.3694 -0.2845
 4545TIP3    H235051   3.774   4.508   1.973 -0.7202  0.8850 -0.6634
 4546TIP3   OH235052   4.861   1.701  13.408 -0.0360 -0.6168  0.2425
 4546TIP3    H135053   4.937   1.671  13.458 -0.3278 -1.1480  0.3707
 4546TIP3    H235054   4.796   1.724  13.475  0.2881  0.5969  0.1566
 4547TIP3   OH235055   0.994   5.118   3.022 -0.2960  0.3545 -0.0289
 4547TIP3    H135056   1.046   5.091   3.098 -1.1446 -0.3795  0.3149
 4547TIP3    H235057   0.931   5.181   3.057 -0.3889  0.3663 -0.2175
 4548TIP3   OH235058   3.968   5.523  14.285 -0.3822  0.4657  0.0315
 4548TIP3    H135059   3.926   5.596  14.238 -0.1137 -0.4416 -1.6810
 4548TIP3    H235060   4.059   5.526  14.257 -0.2810 -0.2659  0.2738
 4549TIP3   OH235061   4.396   1.888  13.607 -0.1906 -0.4185  0.7360
 4549TIP3    H135062   4.478   1.898  13.656 -0.2422  2.9643  0.3505
 4549TIP3    H235063   4.330   1.933  13.659 -1.0488 -0.0377 -0.6291
 4550TIP3   OH235064   4.398   1.394  12.925  0.0735  0.0373  0.4060
 4550TIP3    H135065   4.391   1.454  12.851  0.0156 -0.2705  0.1591
 4550TIP3    H235066   4.330   1.423  12.986  0.0297  0.2060  0.2769
 4551TIP3   OH235067   1.159   2.832  14.187  0.6474 -0.2061 -0.4455
 4551TIP3    H135068   1.094   2.786  14.135  2.5605 -0.2679 -2.9534
 4551TIP3    H235069   1.108   2.889  14.245 -1.6404 -2.0788 -0.4952
 4552TIP3   OH235070   0.372   5.007  15.129  0.0439 -0.1597 -0.1275
 4552TIP3    H135071   0.461   5.024  15.098 -0.0688  0.3537 -0.1775
 4552TIP3    H235072   0.383   4.945  15.201  0.4928  0.4005  0.2896
 4553TIP3   OH235073   1.860   0.163   1.770 -0.8127 -0.0978 -0.0422
 4553TIP3    H135074   1.773   0.158   1.731  0.1058 -0.6958 -2.1322
 4553TIP3    H235075   1.878   0.074   1.801 -0.8300 -0.0390  0.1374
 4554TIP3   OH235076   4.712   1.269   0.194  0.2511 -0.4726  0.1734
 4554TIP3    H135077   4.623   1.301   0.179  1.1508  1.7588 -0.9626
 4554TIP3    H235078   4.732   1.297   0.283 -0.1121 -0.8619  0.3839
 4555TIP3   OH235079   4.974   1.357   1.021  0.0572  0.7434  0.3205
 4555TIP3    H135080   4.898   1.334   1.073  0.1769  2.2113  1.1963
 4555TIP3    H235081   5.019   1.274   1.005 -0.1114  0.2245  2.3552
 4556TIP3   OH235082   2.421   1.211   2.431  0.2707  0.0283 -0.2521
 4556TIP3    H135083   2.340   1.221   2.381  0.2915  1.1349 -0.0909
 4556TIP3    H235084   2.457   1.127   2.403 -1.7249 -1.2637  0.8539
 4557TIP3   OH235085   6.068   0.219   1.967 -0.3393 -0.0960  0.6140
 4557TIP3    H135086   5.983   0.176   1.975 -0.1517 -0.6594 -0.2626
 4557TIP3    H235087   6.049   0.313   1.976 -1.2063 -0.1395 -0.5068
 4558TIP3   OH235088   4.139   2.577   3.290  0.2131  0.4505 -0.1463
 4558TIP3    H135089   4.052   2.588   3.326 -0.5472  0.3501 -1.8616
 4558TIP3    H235090   4.172   2.666   3.279 -0.2356  0.5502 -0.7559
 4559TIP3   OH235091   1.975   4.655   3.525 -0.0902 -0.0677 -0.5475
 4559TIP3    H135092   1.994   4.720   3.592 -1.2794  0.7995 -0.9995
 4559TIP3    H235093   1.980   4.703   3.443  0.9822 -1.0278 -1.0659
 4560TIP3   OH235094   6.678   4.224  14.902  0.0536 -0.0354  0.0407
 4560TIP3    H135095   6.731   4.266  14.833 -0.9956 -0.7966 -1.2780
 4560TIP3    H235096   6.678   4.287  14.974  0.6151  1.0961 -0.9170
 4561TIP3   OH235097   1.986   3.561   2.690  0.2027  0.3359 -0.0290
 4561TIP3    H135098   2.009   3.650   2.663  0.6744  0.3706  0.4728
 4561TIP3    H235099   1.890   3.557   2.681  0.1567  0.9595  0.1449
 4562TIP3   OH235100   3.772   5.791  15.461  0.0608 -0.5866 -0.3082
 4562TIP3    H135101   3.725   5.872  15.481  0.4465 -0.6827  1.0915
 4562TIP3    H235102   3.716   5.721  15.496  0.6893 -0.7783  0.3309
 4563TIP3   OH235103   0.236   1.407   1.730 -0.5050 -0.4110 -0.2955
 4563TIP3    H135104   0.266   1.443   1.646 -0.9858 -0.5055 -0.5081
 4563TIP3    H235105   0.252   1.313   1.723  2.4586 -0.1222  0.9447
 4564TIP3   OH235106   4.401   2.846  15.165 -0.0066 -0.5931 -0.0952
 4564TIP3    H135107   4.331   2.780  15.170 -1.1006  0.3581 -2.0304
 4564TIP3    H235108   4.472   2.802  15.118 -0.4400 -0.6385 -0.7103
 4565TIP3   OH235109   1.784   6.791  13.024  0.2597  0.5934  0.4600
 4565TIP3    H135110   1.780   6.760  12.934 -2.5714  3.4821 -0.6273
 4565TIP3    H235111   1.712   6.745  13.069 -1.4458  2.5238 -0.1428
 4566TIP3   OH235112   6.120   2.862   1.702 -0.1046  0.4773  0.1149
 4566TIP3    H135113   6.084   2.904   1.624 -0.9435  0.0151  0.2435
 4566TIP3    H235114   6.067   2.783   1.714 -0.8597  1.1895  1.8894
 4567TIP3   OH235115   4.740   0.267  15.167 -0.5825  0.6820 -0.2969
 4567TIP3    H135116   4.821   0.280  15.215 -0.8106  2.4763 -0.3207
 4567TIP3    H235117   4.671   0.294  15.228 -1.0615  0.4909 -0.7394
 4568TIP3   OH235118   1.007   5.501  12.807  0.8832  0.0187  0.0945
 4568TIP3    H135119   1.078   5.495  12.871  0.2832  1.9701  1.0067
 4568TIP3    H235120   0.940   5.442  12.841 -0.5771  3.0041  2.9448
 4569TIP3   OH235121   5.982   5.769  14.536  0.4628  0.2202  0.0170
 4569TIP3    H135122   5.955   5.751  14.626 -0.7152  0.2047 -0.3224
 4569TIP3    H235123   5.993   5.864  14.533 -0.2120  0.3077  0.0078
 4570TIP3   OH235124   5.093   1.725  16.724 -1.1082 -0.1926 -0.2746
 4570TIP3    H135125   5.082   1.650  16.783 -1.1949 -0.0275 -0.0783
 4570TIP3    H235126   5.152   1.694  16.656  0.3453  0.1099  0.7983
 4571TIP3   OH235127   2.169   6.242   1.293  0.0967 -0.6772 -0.3098
 4571TIP3    H135128   2.195   6.278   1.377 -2.8846  1.2549 -0.1132
 4571TIP3    H235129   2.091   6.190   1.311 -0.9516  0.2420 -1.9100
 4572TIP3   OH235130   0.273   0.801   0.472  0.3281  0.2060  0.0738
 4572TIP3    H135131   0.300   0.893   0.469  0.4448  0.2266  1.3720
 4572TIP3    H235132   0.287   0.770   0.382  2.3317  0.8825  0.0903
 4573TIP3   OH235133   2.727   1.299  10.413 -0.3249 -0.0837  1.1288
 4573TIP3    H135134   2.729   1.370  10.349 -2.1958 -1.4915 -0.6265
 4573TIP3    H235135   2.738   1.342  10.498  0.1645  2.0806  0.0231
 4574TIP3   OH235136   6.612   6.157   3.774 -0.1029 -0.5884 -0.4451
 4574TIP3    H135137   6.535   6.170   3.829  0.1081 -2.4923  0.3745
 4574TIP3    H235138   6.583   6.184   3.686 -1.0473  0.6274  0.2073
 4575TIP3   OH235139   3.668   2.529   3.178  0.3293 -0.0008  0.4408
 4575TIP3    H135140   3.707   2.513   3.092 -0.7827 -0.3916 -0.0057
 4575TIP3    H235141   3.655   2.624   3.181  0.0835 -0.0204  0.0460
 4576TIP3   OH235142   2.243   3.789   6.218  0.1760 -0.0530  0.5152
 4576TIP3    H135143   2.167   3.835   6.254  0.1362 -0.5354  1.0528
 4576TIP3    H235144   2.299   3.772   6.293 -0.0120 -1.2668  0.3966
 4577TIP3   OH235145   5.045   4.221  12.819  0.0108 -0.3434 -0.5587
 4577TIP3    H135146   5.005   4.283  12.880  3.2233  1.5396 -0.1058
 4577TIP3    H235147   4.982   4.149  12.812 -1.4706  0.3598  3.2799
 4578TIP3   OH235148   1.006   5.958  16.928  0.4467 -0.0834 -0.2522
 4578TIP3    H135149   1.075   5.967  16.994 -0.1427 -0.7954  0.4767
 4578TIP3    H235150   1.007   5.865  16.905 -1.8299 -0.6205  1.5303
 4579TIP3   OH235151   0.932   5.517  13.456 -0.1056 -0.5068  0.8723
 4579TIP3    H135152   0.943   5.541  13.548 -0.6122 -1.5886  1.2295
 4579TIP3    H235153   0.838   5.528  13.440  0.0644  0.2333  0.3087
 4580TIP3   OH235154   5.227   0.480  16.935 -0.6323  0.5989  0.4871
 4580TIP3    H135155   5.247   0.560  16.984 -0.1933  1.4220 -0.9539
 4580TIP3    H235156   5.309   0.459  16.891 -1.1062  0.1009 -0.1718
 4581TIP3   OH235157   1.672   6.116   5.824  0.3052  0.1658 -0.0812
 4581TIP3    H135158   1.582   6.149   5.827  0.3483  0.3245 -0.4632
 4581TIP3    H235159   1.677   6.067   5.742  0.0352 -1.4118  0.8080
 4582TIP3   OH235160   4.234   1.965  14.455 -0.0783 -0.0693  0.4257
 4582TIP3    H135161   4.262   1.874  14.443  0.0810 -0.0411  0.5850
 4582TIP3    H235162   4.189   1.964  14.540 -0.3153 -0.0551  0.3033
 4583TIP3   OH235163   3.709   3.117  16.693  0.0134  0.1761  0.1106
 4583TIP3    H135164   3.785   3.061  16.710 -0.1691  0.3696  1.7255
 4583TIP3    H235165   3.635   3.057  16.693  0.0237  0.1625 -0.1375
 4584TIP3   OH235166   0.580   1.921   4.090  0.0979 -0.6721  0.7704
 4584TIP3    H135167   0.590   1.978   4.167 -0.3269  1.2087 -0.5160
 4584TIP3    H235168   0.670   1.898   4.066  0.4958  1.6090 -0.1898
 4585TIP3   OH235169   3.271   4.232   2.896 -0.0866 -0.2793 -0.0491
 4585TIP3    H135170   3.181   4.207   2.920 -0.6397  2.4053  1.0779
 4585TIP3    H235171   3.321   4.222   2.978  0.1078  0.3118 -0.0887
 4586TIP3   OH235172   3.272   5.870   5.650  0.1510 -0.9410 -0.4100
 4586TIP3    H135173   3.346   5.815   5.677 -0.7655 -1.4862  1.1807
 4586TIP3    H235174   3.254   5.924   5.728  0.2841  0.8256 -1.5416
 4587TIP3   OH235175   0.797   5.018   1.999 -0.4934 -0.2718  0.0997
 4587TIP3    H135176   0.832   5.090   2.050 -1.5653  0.4665 -0.1938
 4587TIP3    H235177   0.723   4.985   2.049 -0.5595 -0.5981 -0.2018
 4588TIP3   OH235178   4.830   2.718   3.349 -0.5711 -0.4997  0.2331
 4588TIP3    H135179   4.833   2.812   3.330  0.1646 -0.5583  0.0476
 4588TIP3    H235180   4.839   2.713   3.444  2.8845 -0.4976  0.0319
 4589TIP3   OH235181   3.625   5.858  11.113  0.6095  0.3755 -0.0710
 4589TIP3    H135182   3.598   5.816  11.195  0.6213 -2.0560 -1.2093
 4589TIP3    H235183   3.660   5.943  11.140  2.2892 -1.0346  2.6811
 4590TIP3   OH235184   5.844   2.390   0.518  0.4584 -0.0631 -0.0054
 4590TIP3    H135185   5.887   2.357   0.597 -2.8249 -0.8606  1.6195
 4590TIP3    H235186   5.876   2.480   0.510  1.3757 -0.1593  1.8803
 4591TIP3   OH235187   0.919   1.147   3.878 -0.9413 -0.0808 -0.1010
 4591TIP3    H135188   0.837   1.108   3.848 -0.1729  0.0999 -2.6840
 4591TIP3    H235189   0.932   1.222   3.820  1.0361 -0.0932  0.2582
 4592TIP3   OH235190   0.337   1.838   5.913  0.1195  0.2381 -0.4528
 4592TIP3    H135191   0.374   1.777   5.849 -0.0963  0.5240 -0.8592
 4592TIP3    H235192   0.410   1.892   5.941  0.6708 -1.2708  1.1670
 4593TIP3   OH235193   1.286   2.999  16.167 -0.4025 -0.4316  0.0697
 4593TIP3    H135194   1.200   2.990  16.207 -0.1533  1.2646  1.0543
 4593TIP3    H235195   1.345   3.018  16.240  0.8537 -1.6810 -0.5640
 4594TIP3   OH235196   3.228   1.657  13.682 -0.4073 -0.2877 -0.2161
 4594TIP3    H135197   3.222   1.677  13.588 -2.1830  0.5107  0.0307
 4594TIP3    H235198   3.171   1.722  13.724  1.2671  0.1298  1.5561
 4595TIP3   OH235199   6.531   3.096   1.495  0.1202  0.2729  0.2171
 4595TIP3    H135200   6.614   3.096   1.542  0.4727 -1.4859 -0.3299
 4595TIP3    H235201   6.470   3.051   1.554 -0.1763  0.6299  0.1848
 4596TIP3   OH235202   2.378   6.680   2.023  0.4439  0.3867 -0.3991
 4596TIP3    H135203   2.333   6.764   2.022  0.9294  0.6497 -0.6224
 4596TIP3    H235204   2.437   6.685   2.098 -0.9428 -0.5377  0.8189
 4597TIP3   OH235205   2.892   2.457   3.462  0.2598  0.0090  0.2540
 4597TIP3    H135206   2.809   2.411   3.468  0.3957 -0.1678  0.9683
 4597TIP3    H235207   2.894   2.512   3.540  1.5491 -1.2722  1.1846
 4598TIP3   OH235208   4.308   5.265   2.118 -0.1880 -0.6927 -0.0161
 4598TIP3    H135209   4.305   5.226   2.206  0.1201 -0.0541  0.2875
 4598TIP3    H235210   4.231   5.230   2.074 -1.9288  1.0909  1.4225
 4599TIP3   OH235211   0.661   0.536  15.206 -0.1627 -0.5668 -0.0711
 4599TIP3    H135212   0.631   0.627  15.197  0.7406 -0.0649  1.5857
 4599TIP3    H235213   0.592   0.492  15.255  1.2310  0.3809  3.0035
 4600TIP3   OH235214   5.201   5.132   4.471  0.4862 -0.6208  0.5941
 4600TIP3    H135215   5.265   5.068   4.502 -1.2956 -0.8936  4.3180
 4600TIP3    H235216   5.141   5.143   4.545 -0.9784  3.2224 -0.8998
 4601TIP3   OH235217   5.436   4.836   3.679 -0.5671 -0.0780  0.1011
 4601TIP3    H135218   5.529   4.818   3.674 -0.3293  1.3739 -1.8289
 4601TIP3    H235219   5.398   4.758   3.720  1.1682 -1.8326 -1.4728
 4602TIP3   OH235220   4.165   2.828   5.661  0.5330  0.0850  0.2438
 4602TIP3    H135221   4.201   2.865   5.742 -0.5144  0.1625  0.6930
 4602TIP3    H235222   4.078   2.797   5.686  0.8224 -1.3948 -0.4649
 4603TIP3   OH235223   2.272   3.472  12.375 -0.0466  0.1588 -0.5573
 4603TIP3    H135224   2.323   3.526  12.316 -1.7244  2.8182  0.2670
 4603TIP3    H235225   2.306   3.493  12.462 -1.0484  0.3030 -0.1855
 4604TIP3   OH235226   1.358   6.060  16.331 -0.7760 -0.1550 -0.1544
 4604TIP3    H135227   1.324   6.141  16.369 -0.2645 -0.6136  1.3840
 4604TIP3    H235228   1.442   6.084  16.293 -0.7200  0.0918  0.1224
 4605TIP3   OH235229   4.209   5.747  15.957 -0.2659  0.8346  0.2029
 4605TIP3    H135230   4.172   5.659  15.957  0.0536  0.6884  0.9686
 4605TIP3    H235231   4.241   5.761  15.868  1.5721 -0.6375  0.5759
 4606TIP3   OH235232   5.389   6.685  13.230  0.2318 -0.3166 -0.4358
 4606TIP3    H135233   5.344   6.738  13.296  0.0520  0.4066 -1.1098
 4606TIP3    H235234   5.482   6.698  13.247  0.2038 -1.3869  0.6317
 4607TIP3   OH235235   4.230   5.944  12.841  0.3595 -0.0276  0.2910
 4607TIP3    H135236   4.312   5.939  12.792  0.4941  0.5490  0.4525
 4607TIP3    H235237   4.257   5.962  12.931  0.0242  1.2954  0.1513
 4608TIP3   OH235238   0.434   6.264  15.779 -0.0318  0.1492  0.1873
 4608TIP3    H135239   0.418   6.337  15.719  1.4366  0.0897 -0.3371
 4608TIP3    H235240   0.479   6.198  15.725  0.9740 -0.0684  1.2383
 4609TIP3   OH235241   6.528   1.692   0.970 -0.9997 -0.1243 -0.5184
 4609TIP3    H135242   6.533   1.780   1.007  0.7772 -1.2458  2.3077
 4609TIP3    H235243   6.581   1.696   0.890 -0.0298  1.1596  0.1526
 4610TIP3   OH235244   4.317   4.056   1.518  0.1710  0.2332 -0.4934
 4610TIP3    H135245   4.324   3.980   1.460 -1.0483 -0.1599 -0.1598
 4610TIP3    H235246   4.408   4.083   1.533  0.6398 -1.1750 -0.6006
 4611TIP3   OH235247   0.142   6.002   2.018  0.0504  0.5906  0.1485
 4611TIP3    H135248   0.148   6.096   2.037  1.6878  0.4963  0.1846
 4611TIP3    H235249   0.232   5.972   2.017 -0.4926 -1.2376  1.3389
 4612TIP3   OH235250   6.244   6.390   3.869 -0.6459 -0.4918  0.5104
 4612TIP3    H135251   6.327   6.409   3.913 -2.3670  1.4872  3.2002
 4612TIP3    H235252   6.219   6.304   3.902  0.2791 -1.1003 -0.3162
 4613TIP3   OH235253   2.042   6.103  15.873 -0.7526 -0.1957 -0.1277
 4613TIP3    H135254   2.130   6.122  15.841 -0.6718 -0.7086 -0.2158
 4613TIP3    H235255   2.014   6.185  15.915 -0.3433  0.0549 -0.3367
 4614TIP3   OH235256   5.473   6.409  11.340 -0.8871 -0.3239 -0.2280
 4614TIP3    H135257   5.556   6.386  11.380 -0.9678 -2.0623 -0.9586
 4614TIP3    H235258   5.409   6.407  11.411 -0.3520  0.9652  0.3232
 4615TIP3   OH235259   0.057   0.269   1.048 -0.6967  0.0266 -0.8198
 4615TIP3    H135260   0.074   0.199   1.111 -1.0633 -1.1904 -2.0335
 4615TIP3    H235261   0.133   0.268   0.991 -0.4935  0.9437 -0.5801
 4616TIP3   OH235262   5.015   0.522   0.780 -0.6413 -0.1664 -1.0311
 4616TIP3    H135263   4.998   0.526   0.874  0.2204  0.4706 -0.9000
 4616TIP3    H235264   5.039   0.430   0.764 -0.6069 -0.2325 -0.6039
 4617TIP3   OH235265   5.022   0.662   5.611 -0.0429  0.4039  0.1237
 4617TIP3    H135266   5.037   0.573   5.580  0.6702  1.1712 -1.8986
 4617TIP3    H235267   4.928   0.676   5.599 -0.8352 -1.0234  3.3760
 4618TIP3   OH235268   3.274   3.335   5.131 -0.6468 -0.0099  0.3399
 4618TIP3    H135269   3.353   3.382   5.106 -1.2788  1.3433  0.7687
 4618TIP3    H235270   3.225   3.398   5.184 -2.8541 -0.1419 -1.4000
 4619TIP3   OH235271   3.266   4.736   3.337  0.4847  0.5848 -0.4835
 4619TIP3    H135272   3.204   4.708   3.404  0.9124  0.4920 -0.1258
 4619TIP3    H235273   3.222   4.717   3.254  0.7095 -1.0302 -0.2584
 4620TIP3   OH235274   0.657   2.672  14.712  0.0624  0.6763 -0.7073
 4620TIP3    H135275   0.561   2.673  14.708  0.0692 -0.5245 -1.5307
 4620TIP3    H235276   0.685   2.676  14.621  0.7065 -2.4810 -0.7380
 4621TIP3   OH235277   5.626   4.511   1.513  0.1624 -0.4578 -0.1913
 4621TIP3    H135278   5.571   4.530   1.589  2.1025  1.6593  0.7778
 4621TIP3    H235279   5.569   4.527   1.438 -1.6377 -2.0737  0.7297
 4622TIP3   OH235280   5.456   3.611  11.326  0.2453 -0.1896  0.0389
 4622TIP3    H135281   5.435   3.521  11.301  3.0796 -1.0426  0.3521
 4622TIP3    H235282   5.525   3.636  11.264  0.2536  1.3770  0.6624
 4623TIP3   OH235283   4.896   6.214   2.906  0.1015  0.1261  0.0768
 4623TIP3    H135284   4.893   6.304   2.941 -0.8802 -0.3841  1.3956
 4623TIP3    H235285   4.861   6.160   2.977 -0.5028 -1.1687 -1.1626
 4624TIP3   OH235286   0.716   0.488  13.840  0.6027  0.0893 -0.1933
 4624TIP3    H135287   0.725   0.434  13.761  1.1298 -0.4269  0.2144
 4624TIP3    H235288   0.791   0.548  13.837 -0.5173  1.5319 -1.1741
 4625TIP3   OH235289   2.045   5.348  17.079  0.1202 -0.0877  0.1087
 4625TIP3    H135290   2.060   5.420  17.018 -1.5898 -0.6225 -1.0363
 4625TIP3    H235291   1.965   5.306  17.046 -0.6408 -0.6390  2.5088
 4626TIP3   OH235292   5.438   6.283   1.027 -0.2538 -0.0328  0.0563
 4626TIP3    H135293   5.386   6.358   1.055 -0.9789 -0.6343  0.3772
 4626TIP3    H235294   5.525   6.300   1.062 -0.4235  0.6365  0.1696
 4627TIP3   OH235295   6.306   6.714  11.574 -0.0117  0.1589 -0.1649
 4627TIP3    H135296   6.286   6.807  11.562 -1.8505 -0.0124  1.2817
 4627TIP3    H235297   6.282   6.674  11.490  0.2255  0.8883 -0.5911
 4628TIP3   OH235298   0.868   2.614  10.453  0.3929 -0.0526 -0.9134
 4628TIP3    H135299   0.813   2.540  10.479  0.2778  0.3391 -0.0090
 4628TIP3    H235300   0.957   2.580  10.455  0.5115  0.2597  1.2011
 4629TIP3   OH235301   2.860   1.053  11.259 -0.1739 -0.1099 -0.2027
 4629TIP3    H135302   2.918   1.127  11.269  0.7512 -0.9262  0.6791
 4629TIP3    H235303   2.835   1.029  11.348  0.2360 -1.3779 -0.4025
 4630TIP3   OH235304   2.179   5.184   3.662 -0.0037  0.7014  0.2313
 4630TIP3    H135305   2.274   5.181   3.672  0.0733  0.2738 -0.5296
 4630TIP3    H235306   2.163   5.264   3.613  0.0380  0.3830 -0.3111
 4631TIP3   OH235307   2.055   4.382   4.233 -0.1016 -0.1423 -0.1398
 4631TIP3    H135308   2.070   4.346   4.146 -0.8517 -0.4905 -0.1362
 4631TIP3    H235309   1.982   4.330   4.268  0.0035  0.1832  0.5806
 4632TIP3   OH235310   1.730   5.591  10.883 -0.0132  0.3730 -0.3260
 4632TIP3    H135311   1.651   5.546  10.854  1.3445 -0.5347 -2.9785
 4632TIP3    H235312   1.800   5.529  10.866  1.4388  1.6887  0.6015
 4633TIP3   OH235313   2.379   0.325  13.738 -0.1609  0.6112  0.3218
 4633TIP3    H135314   2.304   0.346  13.793 -0.7332  1.5934 -0.7756
 4633TIP3    H235315   2.371   0.386  13.664  1.3771  0.3074 -0.1139
 4634TIP3   OH235316   3.767   4.926   5.120  0.4102  0.2773  0.4423
 4634TIP3    H135317   3.680   4.893   5.141  0.7079  0.7095  2.5803
 4634TIP3    H235318   3.826   4.878   5.178  1.4549  0.8870 -0.0834
 4635TIP3   OH235319   4.774   6.581  13.602  0.4724  0.4805  0.0943
 4635TIP3    H135320   4.718   6.652  13.634 -0.4850  1.1141 -2.7363
 4635TIP3    H235321   4.842   6.625  13.551  0.7769 -0.5529 -0.4174
 4636TIP3   OH235322   2.126   1.318   1.420  1.0761 -0.1619 -0.6453
 4636TIP3    H135323   2.153   1.286   1.334 -0.2639  1.0773 -1.5691
 4636TIP3    H235324   2.179   1.396   1.435  0.9796 -0.1141 -0.5531
 4637TIP3   OH235325   5.025   2.233   3.861 -0.0596  0.0886  0.2082
 4637TIP3    H135326   5.034   2.327   3.874 -0.3062  0.0475  0.6991
 4637TIP3    H235327   4.983   2.202   3.941  0.9439 -0.5819  0.4975
 4638TIP3   OH235328   4.364   4.615   0.739  0.0792 -0.0809  0.2056
 4638TIP3    H135329   4.371   4.709   0.752 -0.7146 -0.0117  0.1787
 4638TIP3    H235330   4.325   4.605   0.653 -2.3029 -0.3529  1.2349
 4639TIP3   OH235331   5.258   0.954   3.141 -0.6629 -0.2239  0.3557
 4639TIP3    H135332   5.260   0.859   3.134 -1.8418 -0.3669  1.5690
 4639TIP3    H235333   5.168   0.975   3.164 -0.4438  1.2001  0.0085
 4640TIP3   OH235334   1.749   1.610  16.816 -0.3671  0.1065 -0.2017
 4640TIP3    H135335   1.764   1.653  16.732 -1.1127  0.6490 -0.0618
 4640TIP3    H235336   1.817   1.647  16.874 -1.4875  1.7572  0.1416
 4641TIP3   OH235337   6.533   6.291  10.320  0.2585 -0.6348  0.9582
 4641TIP3    H135338   6.452   6.242  10.330 -0.3202  0.0843 -0.0809
 4641TIP3    H235339   6.547   6.333  10.405  1.8005 -4.0280  2.5960
 4642TIP3   OH235340   4.432   4.351   3.044 -0.0600  0.1369 -0.1983
 4642TIP3    H135341   4.391   4.361   2.958  1.1413  2.0103 -0.5978
 4642TIP3    H235342   4.523   4.378   3.031  0.9649 -2.3530  1.0233
 4643TIP3   OH235343   0.970   5.470  11.219 -0.0307  0.8932  0.0202
 4643TIP3    H135344   1.012   5.406  11.276 -0.2506 -0.0925 -0.8938
 4643TIP3    H235345   0.907   5.514  11.275  2.8579  3.2350  1.7787
 4644TIP3   OH235346   0.843   2.057  13.057  0.2344  0.1127 -0.4660
 4644TIP3    H135347   0.913   2.107  13.100 -0.2052  0.0839  0.2975
 4644TIP3    H235348   0.806   2.002  13.127  1.3471 -2.0348 -1.4555
 4645TIP3   OH235349   0.267   4.337  14.048  0.2933  0.1154  0.1707
 4645TIP3    H135350   0.340   4.374  14.097  0.7271 -0.3298 -0.1202
 4645TIP3    H235351   0.255   4.396  13.974  0.6891 -0.0783 -0.0504
 4646TIP3   OH235352   1.499   3.955  11.994 -0.2536  0.2486  0.9800
 4646TIP3    H135353   1.485   3.889  12.062  2.4099 -1.0680  0.3620
 4646TIP3    H235354   1.591   3.977  12.000 -0.7253  2.7599  0.0695
 4647TIP3   OH235355   1.877   4.923  11.495 -0.6726 -0.1227 -0.3532
 4647TIP3    H135356   1.893   4.936  11.589  0.4584 -0.5941 -0.4632
 4647TIP3    H235357   1.956   4.880  11.463 -1.2544 -0.4308 -1.4322
 4648TIP3   OH235358   5.492   2.609  15.030  0.6814  0.2160  0.5175
 4648TIP3    H135359   5.459   2.684  15.080 -0.4650 -1.3023  2.1433
 4648TIP3    H235360   5.557   2.568  15.088 -1.4684 -2.2239  1.3804
 4649TIP3   OH235361   5.015   5.676   5.094 -0.5203 -0.1407 -0.4584
 4649TIP3    H135362   5.062   5.687   5.011  1.6498 -1.3156  0.5568
 4649TIP3    H235363   5.001   5.766   5.125 -0.1260  0.2657 -1.4215
 4650TIP3   OH235364   2.730   0.184   2.247 -0.1599 -0.0324  0.2863
 4650TIP3    H135365   2.722   0.278   2.265 -0.7704  0.0800 -0.5038
 4650TIP3    H235366   2.720   0.177   2.152 -0.2721 -0.9113  0.3576
 4651TIP3   OH235367   0.383   6.194  13.080  0.2693  0.1678  0.0140
 4651TIP3    H135368   0.313   6.130  13.094  1.3207 -1.7901 -2.8879
 4651TIP3    H235369   0.369   6.227  12.992  3.1310 -0.5913 -0.8416
 4652TIP3   OH235370   6.232   3.578  13.144 -0.5050 -0.0855  0.3471
 4652TIP3    H135371   6.207   3.614  13.229 -0.1606 -1.9371  1.2864
 4652TIP3    H235372   6.164   3.513  13.125  0.5687 -1.2508  0.3099
 4653TIP3   OH235373   6.530   1.755   6.380 -0.2146  0.3841 -0.2870
 4653TIP3    H135374   6.470   1.824   6.406 -0.7109 -0.6354  1.5144
 4653TIP3    H235375   6.499   1.678   6.428  2.6415 -0.1286  0.9376
 4654TIP3   OH235376   5.274   5.027   2.764 -0.3297 -0.1962  0.1982
 4654TIP3    H135377   5.225   5.091   2.815 -0.1162  0.0825  0.0518
 4654TIP3    H235378   5.255   4.943   2.807 -0.2105  0.0272  0.6873
 4655TIP3   OH235379   3.275   1.783  14.375  0.5385 -0.6556 -0.7892
 4655TIP3    H135380   3.337   1.730  14.426 -0.1998 -0.0060  0.8479
 4655TIP3    H235381   3.318   1.868  14.365  0.2345 -0.4382 -0.2884
 4656TIP3   OH235382   3.248   6.444  10.998  0.1944  0.3964  0.7776
 4656TIP3    H135383   3.166   6.460  10.952  0.9709 -0.8706 -1.1611
 4656TIP3    H235384   3.307   6.512  10.967  0.7448 -0.5117 -0.2693
 4657TIP3   OH235385   4.570   0.192   6.046  0.3783  0.0877 -0.0555
 4657TIP3    H135386   4.656   0.234   6.034  0.3988  0.6899  1.8989
 4657TIP3    H235387   4.510   0.265   6.063  0.0229 -0.5110  1.3718
 4658TIP3   OH235388   0.597   4.691   2.402  0.0646 -0.3227 -0.2796
 4658TIP3    H135389   0.566   4.604   2.429  2.0958 -0.4999  1.8580
 4658TIP3    H235390   0.612   4.737   2.485  1.0630  1.3099 -1.3211
 4659TIP3   OH235391   0.844   2.628   4.838  0.2989 -0.0850  0.8049
 4659TIP3    H135392   0.910   2.668   4.895  1.2252 -0.4367  0.0115
 4659TIP3    H235393   0.855   2.534   4.852 -0.2734 -0.1363  0.9185
 4660TIP3   OH235394   1.885   0.169   2.893 -0.4455 -0.2283  0.0737
 4660TIP3    H135395   1.867   0.256   2.858  0.5998 -0.2460 -0.5170
 4660TIP3    H235396   1.844   0.109   2.831  0.8342 -0.2343 -0.7900
 4661TIP3   OH235397   6.626   2.771   0.505  0.3347  0.2246  0.0938
 4661TIP3    H135398   6.616   2.677   0.523 -1.5465  0.0197 -1.6683
 4661TIP3    H235399   6.651   2.774   0.412 -0.1725  1.4805 -0.0129
 4662TIP3   OH235400   1.459   5.288   1.085  0.1296 -0.4257  0.4937
 4662TIP3    H135401   1.395   5.236   1.038  0.6182 -0.4055 -0.2167
 4662TIP3    H235402   1.434   5.281   1.177 -0.6138 -0.7839  0.2672
 4663TIP3   OH235403   4.153   5.314  15.418  0.8539  0.3583 -0.4207
 4663TIP3    H135404   4.115   5.402  15.430  0.4927  0.4396 -1.9079
 4663TIP3    H235405   4.170   5.308  15.324  0.0811 -1.4768 -0.4908
 4664TIP3   OH235406   2.469   3.933   4.894 -0.2061  0.9673 -0.0122
 4664TIP3    H135407   2.506   3.979   4.970 -0.9729 -0.3740  1.2272
 4664TIP3    H235408   2.396   3.883   4.930 -0.8426  0.6028 -1.7281
 4665TIP3   OH235409   4.590   4.037   2.625  0.3922  0.1646 -0.1591
 4665TIP3    H135410   4.522   4.043   2.558  0.0012 -1.0178  0.1079
 4665TIP3    H235411   4.659   4.095   2.594 -0.6663  1.2903 -0.5079
 4666TIP3   OH235412   2.807   3.897  12.772 -0.2174 -0.9211  0.2460
 4666TIP3    H135413   2.886   3.948  12.752 -0.4012 -1.4652 -2.2518
 4666TIP3    H235414   2.829   3.848  12.851  1.2337  0.3798  0.6988
 4667TIP3   OH235415   5.418   6.152   5.439 -0.1672 -0.1950 -0.4662
 4667TIP3    H135416   5.348   6.134   5.502  0.6803  0.1253  0.5991
 4667TIP3    H235417   5.499   6.134   5.487  0.5179  0.4365 -1.3389
 4668TIP3   OH235418   3.073   1.860  14.050 -0.4147 -0.2656 -0.6014
 4668TIP3    H135419   3.116   1.940  14.081  0.7169 -0.4129 -1.6746
 4668TIP3    H235420   3.074   1.868  13.954  0.8669 -2.0755 -0.8157
 4669TIP3   OH235421   5.450   1.736   5.516 -0.1032  0.6782  0.4652
 4669TIP3    H135422   5.398   1.751   5.437  2.2883  2.5740 -0.8591
 4669TIP3    H235423   5.447   1.819   5.563 -0.7624 -0.1595  1.9530
 4670TIP3   OH235424   0.025   6.128  17.084 -0.0076 -0.0569  0.0440
 4670TIP3    H135425   0.035   6.129  16.989 -0.5703 -0.2841 -0.0229
 4670TIP3    H235426   0.104   6.083  17.116  1.0710  1.5903 -0.1737
 4671TIP3   OH235427   4.432   2.020   3.518 -0.4523 -0.2732 -0.3703
 4671TIP3    H135428   4.495   1.951   3.498  0.1013  0.2510 -0.4500
 4671TIP3    H235429   4.466   2.061   3.598  0.2164  1.0806 -1.3110
 4672TIP3   OH235430   1.488   4.056   0.240 -0.7740 -0.1344 -0.1274
 4672TIP3    H135431   1.496   3.962   0.224  0.1710  0.1484 -1.5602
 4672TIP3    H235432   1.522   4.097   0.160  1.6830  1.4596  1.5784
 4673TIP3   OH235433   4.409   1.901  11.824 -0.3592  0.0931 -0.1379
 4673TIP3    H135434   4.320   1.892  11.857 -0.2199  2.5980  1.1880
 4673TIP3    H235435   4.404   1.973  11.761  0.7126  0.2407 -0.0705
 4674TIP3   OH235436   6.400   0.943   4.887 -0.3610 -0.3319  0.3429
 4674TIP3    H135437   6.407   0.967   4.979 -0.1084 -0.1414  0.2760
 4674TIP3    H235438   6.410   1.026   4.840  1.6752 -0.6936  0.0618
 4675TIP3   OH235439   6.161   2.235   3.598 -0.0807 -0.2453 -0.5191
 4675TIP3    H135440   6.231   2.249   3.662 -0.2661 -1.1693 -0.0973
 4675TIP3    H235441   6.093   2.298   3.621 -0.6320 -1.3172  0.9255
 4676TIP3   OH235442   5.696   5.400   3.431 -0.4537 -0.0531 -0.6299
 4676TIP3    H135443   5.620   5.426   3.483 -1.0146 -0.2377 -1.3471
 4676TIP3    H235444   5.660   5.356   3.354  0.2715  1.7391 -2.0666
 4677TIP3   OH235445   0.350   1.146   2.798  0.5807  0.2060 -0.1910
 4677TIP3    H135446   0.304   1.089   2.735  0.8696  0.7601 -0.9222
 4677TIP3    H235447   0.291   1.220   2.810  0.2522 -0.1877  0.6812
 4678TIP3   OH235448   3.348   4.218   4.040  0.0959 -0.3047 -0.3516
 4678TIP3    H135449   3.378   4.307   4.059 -0.2646 -0.6169  1.9744
 4678TIP3    H235450   3.428   4.168   4.027  0.5070 -0.3263  1.9026
 4679TIP3   OH235451   5.695   6.333  12.794  0.2661 -0.2743 -0.0931
 4679TIP3    H135452   5.615   6.334  12.846  0.7956  2.1371  0.8000
 4679TIP3    H235453   5.766   6.325  12.858  0.8192 -2.2543 -0.8582
 4680TIP3   OH235454   5.947   6.762   4.645  0.1545 -0.1931  0.7442
 4680TIP3    H135455   5.982   6.704   4.577  0.1806  0.7936 -0.1108
 4680TIP3    H235456   5.980   6.725   4.727  3.0118  0.4887  0.0342
 4681TIP3   OH235457   1.129   6.395   4.568  0.2264  0.1489 -0.2113
 4681TIP3    H135458   1.095   6.485   4.569  2.2727  1.0692 -2.4706
 4681TIP3    H235459   1.051   6.340   4.569 -1.2713  2.0424 -2.0418
 4682TIP3   OH235460   6.300   4.010   2.803 -0.1463  1.3348 -0.2676
 4682TIP3    H135461   6.220   4.059   2.819 -0.5002  1.0634 -1.1474
 4682TIP3    H235462   6.370   4.069   2.832 -0.6733  1.3875  0.9428
 4683TIP3   OH235463   1.271   0.686  11.994  0.1053 -0.2715  0.3035
 4683TIP3    H135464   1.244   0.605  11.949 -1.5646 -0.0755  0.8853
 4683TIP3    H235465   1.330   0.729  11.932 -0.2132 -1.1942 -0.6707
 4684TIP3   OH235466   6.734   0.762  15.750  0.9035  0.4959 -0.1700
 4684TIP3    H135467   6.686   0.690  15.791  0.5237 -0.0956 -1.6126
 4684TIP3    H235468   6.667   0.817  15.710  1.2733  1.0333 -0.0665
 4685TIP3   OH235469   0.350   2.369  13.119 -0.1059  0.1345  0.0705
 4685TIP3    H135470   0.433   2.350  13.076 -0.5133  0.3968 -0.8371
 4685TIP3    H235471   0.296   2.293  13.100 -0.2421  0.1858  0.2514
 4686TIP3   OH235472   3.057   6.689   5.178  0.9670  0.7055  0.2163
 4686TIP3    H135473   3.057   6.598   5.148 -1.9445  0.8243 -0.4416
 4686TIP3    H235474   3.148   6.718   5.169  1.2424 -0.8328 -3.6373
 4687TIP3   OH235475   4.691   0.050  13.455 -0.6220  0.0521 -0.2835
 4687TIP3    H135476   4.649   0.098  13.526 -1.4003 -0.9924 -0.0212
 4687TIP3    H235477   4.648  -0.036  13.454  1.0022 -0.7975 -0.4843
 4688TIP3   OH235478   5.316   4.271  15.224 -0.2482  0.8604  0.1133
 4688TIP3    H135479   5.382   4.315  15.171  0.1136 -0.1180 -0.2743
 4688TIP3    H235480   5.366   4.217  15.286 -0.6740  1.1100  0.6846
 4689TIP3   OH235481   4.485   6.501   1.634  0.0481 -0.0092  0.0896
 4689TIP3    H135482   4.417   6.452   1.588  0.7983  0.0169 -1.0883
 4689TIP3    H235483   4.540   6.434   1.674  0.2478 -0.0920 -0.3157
 4690TIP3   OH235484   5.694   1.598   4.689 -0.1864 -0.7928  0.4986
 4690TIP3    H135485   5.659   1.572   4.603 -0.5912  0.0030  0.4211
 4690TIP3    H235486   5.788   1.611   4.673 -0.6544  1.9261 -0.4747
 4691TIP3   OH235487   2.532   0.651   2.151 -0.0066  0.4071 -0.0554
 4691TIP3    H135488   2.531   0.635   2.057 -0.8661 -2.4251  0.3360
 4691TIP3    H235489   2.444   0.683   2.171 -0.1821 -0.0493 -0.0841
 4692TIP3   OH235490   2.723   1.991  11.323  0.1497  0.4585 -0.0318
 4692TIP3    H135491   2.769   2.054  11.378  1.1831  1.6745 -2.1632
 4692TIP3    H235492   2.676   2.045  11.259  1.4542 -0.8486 -2.2346
 4693TIP3   OH235493   0.986   5.634  10.624 -0.1958 -0.4753  0.4840
 4693TIP3    H135494   1.078   5.656  10.606 -0.5853  1.4727  0.6439
 4693TIP3    H235495   0.968   5.559  10.567  0.5017  1.3222 -2.2913
 4694TIP3   OH235496   1.320   6.124  15.379 -0.1794 -0.1114  0.6170
 4694TIP3    H135497   1.314   6.220  15.382  0.2879 -0.0927  1.0182
 4694TIP3    H235498   1.335   6.098  15.469 -0.3332 -0.5700  0.5120
 4695TIP3   OH235499   2.194   3.863  11.060  1.0094 -0.5601  0.3211
 4695TIP3    H135500   2.162   3.859  10.970  1.5105  0.7610  0.0554
 4695TIP3    H235501   2.289   3.870  11.050  1.1160 -1.0538  0.9817
 4696TIP3   OH235502   3.980   2.919   4.126  0.3897 -0.3909 -0.7332
 4696TIP3    H135503   4.046   2.856   4.155 -0.0407 -0.1291  0.9009
 4696TIP3    H235504   3.915   2.920   4.196 -0.7402  0.2459 -1.7634
 4697TIP3   OH235505   4.648   0.841   3.111 -0.2448  0.4943  0.4073
 4697TIP3    H135506   4.698   0.896   3.050 -1.1439 -0.5812 -1.3694
 4697TIP3    H235507   4.662   0.752   3.080 -2.5806  0.0954  0.3326
 4698TIP3   OH235508   2.285   1.531  15.533  0.0968 -0.1800 -0.3398
 4698TIP3    H135509   2.205   1.582  15.550  0.8624  1.0227 -0.1698
 4698TIP3    H235510   2.282   1.512  15.440 -1.4071 -2.0092  0.0081
 4699TIP3   OH235511   5.076   1.219   0.321 -0.1023 -0.1295 -0.5322
 4699TIP3    H135512   5.148   1.212   0.258 -1.0362  2.2810 -2.0083
 4699TIP3    H235513   5.078   1.311   0.350 -2.8938  0.1857 -1.0564
 4700TIP3   OH235514   1.248   3.856   3.172 -0.0179 -0.1100  0.1992
 4700TIP3    H135515   1.277   3.858   3.080  0.3799 -0.5971  0.3111
 4700TIP3    H235516   1.154   3.840   3.167 -0.1310  0.6104 -0.1437
 4701TIP3   OH235517   1.372   2.901   3.582 -0.2133  0.0070  0.1837
 4701TIP3    H135518   1.419   2.911   3.665  2.9679  0.7581 -1.5134
 4701TIP3    H235519   1.409   2.822   3.543 -1.5117 -0.2369 -0.6223
 4702TIP3   OH235520   1.431   0.262  11.255 -0.2308 -0.5806  0.2623
 4702TIP3    H135521   1.426   0.260  11.160  1.5823  2.4917 -0.0036
 4702TIP3    H235522   1.524   0.273  11.275 -0.7069  0.3164  2.2974
 4703TIP3   OH235523   5.075   2.865   3.762 -0.2145 -0.3161 -0.3033
 4703TIP3    H135524   5.131   2.829   3.693  1.0123  0.8746  0.0370
 4703TIP3    H235525   5.010   2.918   3.714 -0.4659 -0.9081 -0.6334
 4704TIP3   OH235526   3.242   6.437   0.935 -0.4320  0.1370  0.2467
 4704TIP3    H135527   3.149   6.457   0.937 -0.3318  0.8231 -1.0806
 4704TIP3    H235528   3.284   6.518   0.907  0.2858 -0.8632 -1.8587
 4705TIP3   OH235529   5.115   2.394   0.637 -0.2172 -0.3451 -0.6840
 4705TIP3    H135530   5.200   2.377   0.594 -0.1879  0.1870 -0.8415
 4705TIP3    H235531   5.136   2.455   0.708 -0.3950 -0.5890 -0.4225
 4706TIP3   OH235532   1.207   4.598  13.354 -0.3990  0.2761 -0.1284
 4706TIP3    H135533   1.251   4.616  13.271 -2.1840  0.6609 -1.0433
 4706TIP3    H235534   1.158   4.678  13.373  0.3169  0.3521  1.5471
 4707TIP3   OH235535   1.551   0.102  15.814 -0.2584  0.5584 -0.7271
 4707TIP3    H135536   1.626   0.157  15.792 -0.4641  1.3406  0.4367
 4707TIP3    H235537   1.542   0.109  15.909 -1.7889  0.4754 -0.8278
 4708TIP3   OH235538   4.318   4.623  10.544 -0.1249 -0.1578 -0.0362
 4708TIP3    H135539   4.240   4.671  10.573 -0.4587 -0.0060 -1.1528
 4708TIP3    H235540   4.359   4.680  10.479  1.5618  0.2607  1.3236
 4709TIP3   OH235541   0.856   3.127   2.639 -0.2704 -0.0080  0.0864
 4709TIP3    H135542   0.858   3.130   2.543  1.1848  1.3110  0.1064
 4709TIP3    H235543   0.796   3.197   2.664  1.2533  1.3654  0.1116
 4710TIP3   OH235544   4.950   5.272   3.529  0.1906 -0.2674  0.1636
 4710TIP3    H135545   4.889   5.343   3.550 -0.2593  0.5236 -3.2142
 4710TIP3    H235546   4.895   5.197   3.507  0.5637 -0.6423  0.4712
 4711TIP3   OH235547   2.065   6.715   1.545  0.0636 -0.0082 -0.1845
 4711TIP3    H135548   2.010   6.636   1.554 -0.8596  0.5216 -0.9229
 4711TIP3    H235549   2.151   6.688   1.576 -0.9333 -0.4783  2.4201
 4712TIP3   OH235550   5.561   1.719  15.180 -0.1235 -0.4773 -0.1983
 4712TIP3    H135551   5.499   1.790  15.167 -0.4212 -0.9125 -1.3309
 4712TIP3    H235552   5.561   1.672  15.096 -0.9203 -2.5921  0.9163
 4713TIP3   OH235553   4.281   4.386   2.770 -0.2494  0.0518 -0.3250
 4713TIP3    H135554   4.198   4.421   2.800 -0.1095 -0.8231  1.1945
 4713TIP3    H235555   4.288   4.301   2.812  2.5949  1.1770  1.8279
 4714TIP3   OH235556   1.997   3.053   6.963 -0.1189  0.1359  0.0167
 4714TIP3    H135557   1.908   3.074   6.934  0.4720  1.1263 -1.1534
 4714TIP3    H235558   2.042   3.023   6.884  0.7242  0.1322  0.4858
 4715TIP3   OH235559   3.672   4.535   4.982  0.1571 -0.5393  0.2446
 4715TIP3    H135560   3.658   4.590   5.060  0.2923  0.8384 -0.6724
 4715TIP3    H235561   3.584   4.509   4.956  0.1013 -0.9137  0.7785
 4716TIP3   OH235562   4.642   0.438   3.836  0.0783  0.0916  0.6111
 4716TIP3    H135563   4.550   0.437   3.864 -0.0334  0.3741  0.2613
 4716TIP3    H235564   4.662   0.347   3.815 -0.3790  0.1526 -0.1238
 4717TIP3   OH235565   6.579   4.631  16.817 -0.1596 -0.0677  0.8322
 4717TIP3    H135566   6.617   4.610  16.902 -0.2300  0.2361  0.9413
 4717TIP3    H235567   6.602   4.723  16.802  1.4084 -0.6052 -0.3110
 4718TIP3   OH235568   3.181   3.673  11.602 -0.7010 -0.0907  0.1147
 4718TIP3    H135569   3.153   3.600  11.657 -0.0604  0.5305  1.3155
 4718TIP3    H235570   3.252   3.637  11.549 -1.7637 -0.8740 -0.8197
 4719TIP3   OH235571   0.767   1.698   2.521  0.8083  0.2768  0.0380
 4719TIP3    H135572   0.827   1.689   2.447 -0.4240  1.0935 -1.1159
 4719TIP3    H235573   0.712   1.620   2.517  0.3777  0.5917 -0.2639
 4720TIP3   OH235574   1.135   4.317   0.276 -0.0488 -0.0455  0.4387
 4720TIP3    H135575   1.135   4.325   0.180  1.6203 -0.2589  0.4013
 4720TIP3    H235576   1.189   4.391   0.306 -0.8654  0.2418  1.2552
 4721TIP3   OH235577   1.116   2.113  15.745 -0.4690 -0.4189  0.0230
 4721TIP3    H135578   1.103   2.020  15.723  1.2259 -1.0251  1.3095
 4721TIP3    H235579   1.166   2.111  15.826 -2.5055  1.6648  1.4508
 4722TIP3   OH235580   2.854   1.787   2.435  0.3189  0.3099 -0.6169
 4722TIP3    H135581   2.775   1.754   2.477  0.8111 -2.6449 -1.8047
 4722TIP3    H235582   2.828   1.872   2.399 -1.5156  0.5983  1.2391
 4723TIP3   OH235583   0.919   3.680  13.229  0.0275  0.0767  0.3572
 4723TIP3    H135584   0.827   3.695  13.252 -0.0788 -0.8269  0.5816
 4723TIP3    H235585   0.915   3.639  13.143  0.2414  0.3208  0.2311
 4724TIP3   OH235586   3.908   3.687  14.826 -0.0066  0.0146  0.4810
 4724TIP3    H135587   3.958   3.652  14.752  0.3547 -0.6104  1.0222
 4724TIP3    H235588   3.973   3.702  14.894 -0.6947 -2.0726  1.6787
 4725TIP3   OH235589   3.563   5.089   4.091 -0.7097 -0.5159  0.0713
 4725TIP3    H135590   3.645   5.136   4.075 -0.4575 -0.6507  0.9446
 4725TIP3    H235591   3.581   5.035   4.168 -2.1278  0.7303  1.3352
 4726TIP3   OH235592   1.576   0.107  12.620 -0.3177  0.3761  0.5102
 4726TIP3    H135593   1.654   0.065  12.657 -0.3751 -0.3526 -0.1678
 4726TIP3    H235594   1.547   0.047  12.552 -1.6950  0.4591  0.9967
 4727TIP3   OH235595   3.526   6.609  12.966 -0.1785 -0.4565 -0.0882
 4727TIP3    H135596   3.582   6.533  12.985 -0.8582 -0.8188  0.4932
 4727TIP3    H235597   3.490   6.590  12.879  0.8823 -0.0373 -0.6454
 4728TIP3   OH235598   1.620   2.276  15.891  0.0412 -0.2198  0.2548
 4728TIP3    H135599   1.622   2.214  15.818 -2.6177 -1.2956  1.0012
 4728TIP3    H235600   1.711   2.280  15.921  0.9170 -0.9326 -2.1084
 4729TIP3   OH235601   6.726   0.384   1.461 -0.3410 -0.1175  0.2323
 4729TIP3    H135602   6.671   0.413   1.388 -1.2657 -1.8961  0.1529
 4729TIP3    H235603   6.664   0.346   1.524  0.4120  1.5055  2.0566
 4730TIP3   OH235604   2.586   5.464   4.237 -0.0019 -0.4985  0.4601
 4730TIP3    H135605   2.545   5.516   4.168  0.3010  1.3883  1.6346
 4730TIP3    H235606   2.552   5.500   4.319  1.0675 -1.4239  1.3544
 4731TIP3   OH235607   2.972   5.724   2.683  0.5543 -0.2053 -0.3405
 4731TIP3    H135608   2.989   5.818   2.684  0.9765 -0.2592  1.2934
 4731TIP3    H235609   3.051   5.685   2.721 -0.9472 -0.8933  2.4151
 4732TIP3   OH235610   3.796   3.726   3.846  0.4687  0.3328  0.3205
 4732TIP3    H135611   3.736   3.791   3.809  2.5835  1.6910 -0.9830
 4732TIP3    H235612   3.822   3.672   3.771  0.0250 -0.9844  1.0838
 4733TIP3   OH235613   4.729   3.830   4.282  0.1554  0.4624 -0.5698
 4733TIP3    H135614   4.684   3.772   4.220 -0.0834  0.9358 -0.8458
 4733TIP3    H235615   4.798   3.776   4.320  0.2788  0.1522 -1.2204
 4734TIP3   OH235616   0.845   1.510   5.588  0.0442  0.6819  0.7475
 4734TIP3    H135617   0.880   1.548   5.508  0.4130 -0.1499  0.4991
 4734TIP3    H235618   0.755   1.485   5.565  0.4502 -0.4121  0.2899
 4735TIP3   OH235619   2.125   1.445  14.766  0.0521 -0.2134  0.0231
 4735TIP3    H135620   2.115   1.525  14.715  0.1315 -0.5103 -0.4617
 4735TIP3    H235621   2.066   1.456  14.841 -1.7623 -0.7083 -1.2812
 4736TIP3   OH235622   4.474   0.972  11.054 -0.2265  0.3347  0.7334
 4736TIP3    H135623   4.498   0.917  11.129 -0.5179  1.3027  1.5501
 4736TIP3    H235624   4.419   1.041  11.091 -0.2613  0.9091 -0.3522
 4737TIP3   OH235625   0.458   1.359  11.935 -0.0483  0.0665  0.7107
 4737TIP3    H135626   0.442   1.288  11.872 -0.1859 -0.8946  1.7996
 4737TIP3    H235627   0.372   1.398  11.948 -0.2516 -0.5401  1.2332
 4738TIP3   OH235628   0.299   6.265   3.760  0.1252  0.0599  0.7024
 4738TIP3    H135629   0.311   6.176   3.726 -0.2339 -0.1060  0.9993
 4738TIP3    H235630   0.225   6.300   3.710 -1.2469 -0.6405  2.1377
 4739TIP3   OH235631   5.769   3.197   1.046 -0.3136 -0.2547  0.1172
 4739TIP3    H135632   5.779   3.166   1.136  1.5237  3.3654  1.3305
 4739TIP3    H235633   5.858   3.220   1.018 -0.8977 -0.8004 -2.5084
 4740TIP3   OH235634   3.484   2.682   1.970  0.2921  0.7779  0.6537
 4740TIP3    H135635   3.521   2.763   1.934  2.0337  0.3277  1.3262
 4740TIP3    H235636   3.471   2.701   2.063 -0.5040  0.6791  0.5706
 4741TIP3   OH235637   1.729   5.132  12.877 -0.4827  0.3025  0.0731
 4741TIP3    H135638   1.781   5.087  12.811 -0.7657  1.7812 -1.2204
 4741TIP3    H235639   1.787   5.140  12.953  1.0627  1.4974 -1.1674
 4742TIP3   OH235640   2.869   4.509  13.336  0.8415 -0.2192 -0.3794
 4742TIP3    H135641   2.811   4.437  13.361 -1.5131  1.3896 -0.8661
 4742TIP3    H235642   2.864   4.512  13.240 -0.8661  1.8282 -0.3147
 4743TIP3   OH235643   5.738   1.744   0.315  0.1852 -0.4811  0.4913
 4743TIP3    H135644   5.675   1.787   0.257  0.2685 -1.9111 -0.6959
 4743TIP3    H235645   5.819   1.795   0.305  0.5424 -1.3704 -1.5816
 4744TIP3   OH235646   5.774   5.405   4.386  0.3336 -0.5267 -0.0008
 4744TIP3    H135647   5.843   5.471   4.379  0.8753 -1.1207 -0.3791
 4744TIP3    H235648   5.731   5.423   4.470 -0.2826  1.0240 -0.6169
 4745TIP3   OH235649   3.899   4.831  14.895 -0.2362  0.1913  0.1945
 4745TIP3    H135650   3.823   4.778  14.875  1.0134 -1.3517 -0.6716
 4745TIP3    H235651   3.868   4.894  14.961 -1.7172 -1.7886  1.5063
 4746TIP3   OH235652   1.535   4.499   1.564  0.0353  0.2330 -0.5081
 4746TIP3    H135653   1.486   4.421   1.538  0.1396  0.1230 -0.3754
 4746TIP3    H235654   1.469   4.557   1.603 -0.4551  1.1054 -2.4828
 4747TIP3   OH235655   6.707   2.602  15.102  0.8642 -0.0484  0.5372
 4747TIP3    H135656   6.754   2.677  15.066  1.1147  0.0982  1.1658
 4747TIP3    H235657   6.617   2.614  15.071  1.0071  0.2478  0.2278
 4748TIP3   OH235658   1.137   0.173  16.012  0.0747 -0.0217 -0.1024
 4748TIP3    H135659   1.121   0.242  16.077 -2.0921 -1.5559  1.1349
 4748TIP3    H235660   1.219   0.132  16.039  1.4748  2.0336 -0.9287
 4749TIP3   OH235661   0.418   6.155   1.994  0.4594 -0.5179 -0.0234
 4749TIP3    H135662   0.420   6.244   1.961 -1.7942  0.1631  1.4338
 4749TIP3    H235663   0.416   6.165   2.089  1.1036 -2.1624  0.1898
 4750TIP3   OH235664   5.214   6.622   4.605 -0.2506  0.5352  0.1984
 4750TIP3    H135665   5.224   6.543   4.659  2.2685  0.6839  0.0677
 4750TIP3    H235666   5.146   6.672   4.650 -1.2790 -1.2672  0.7886
 4751TIP3   OH235667   5.448   3.327  17.099 -0.4427 -0.0395 -0.3204
 4751TIP3    H135668   5.501   3.378  17.037 -0.7802  1.7583  0.7951
 4751TIP3    H235669   5.402   3.393  17.150  0.1228 -1.4464  2.1432
 4752TIP3   OH235670   4.904   3.704  15.598 -0.1567 -0.0530  0.0444
 4752TIP3    H135671   4.911   3.757  15.519  1.5744 -2.6037 -1.7006
 4752TIP3    H235672   4.810   3.690  15.609 -0.4672  0.8749 -1.2049
 4753TIP3   OH235673   2.130   6.610  14.974 -0.0952 -0.0684  0.9882
 4753TIP3    H135674   2.080   6.531  14.953  1.9440 -1.3162  0.4830
 4753TIP3    H235675   2.075   6.682  14.944 -1.0666 -1.4030 -0.6402
 4754TIP3   OH235676   3.883   4.698  13.562 -0.2766 -0.0307  0.1923
 4754TIP3    H135677   3.826   4.634  13.604 -0.7033 -0.4196 -0.9378
 4754TIP3    H235678   3.830   4.777  13.556  0.0411  0.2565  1.0372
 4755TIP3   OH235679   5.457   4.922  13.185  0.5592 -1.1999 -0.4437
 4755TIP3    H135680   5.503   4.855  13.134  1.0945 -2.3145  1.4100
 4755TIP3    H235681   5.526   4.974  13.225  0.1422  0.6178 -1.9864
 4756TIP3   OH235682   6.241   5.003  12.973  0.5412 -0.4278  0.5618
 4756TIP3    H135683   6.153   4.975  12.999  0.3729 -0.0971  0.3495
 4756TIP3    H235684   6.228   5.058  12.897  0.7566  1.2049  1.6509
 4757TIP3   OH235685   3.509   1.181   5.049  0.0957  0.3420 -0.8312
 4757TIP3    H135686   3.515   1.256   4.989  0.9454 -0.4954 -1.8503
 4757TIP3    H235687   3.465   1.215   5.127  2.2847  2.4678 -0.4018
 4758TIP3   OH235688   2.191   5.435  15.502  0.2051 -0.4836  0.3889
 4758TIP3    H135689   2.252   5.382  15.554  1.3612  0.6278  0.2155
 4758TIP3    H235690   2.108   5.388  15.508  0.6984 -1.2476  1.9064
 4759TIP3   OH235691   3.716   1.857  14.080 -0.2310 -0.2863  0.0132
 4759TIP3    H135692   3.737   1.897  13.995  1.1276  1.2888  1.0294
 4759TIP3    H235693   3.623   1.873  14.092  0.1550  2.1363  0.1123
 4760TIP3   OH235694   0.937   2.600   2.554 -0.6061 -0.4247  0.0518
 4760TIP3    H135695   1.020   2.555   2.561 -0.5104 -0.0776  1.6925
 4760TIP3    H235696   0.924   2.641   2.640 -1.2284  1.7042 -0.9650
 4761TIP3   OH235697   5.273   6.104  12.008 -0.1817 -0.0042 -0.3932
 4761TIP3    H135698   5.316   6.122  12.091  1.4955 -1.0224 -0.9983
 4761TIP3    H235699   5.192   6.059  12.032 -0.0967  0.4065  0.7038
 4762TIP3   OH235700   2.631   1.147   0.971 -0.0537 -0.0704  0.4662
 4762TIP3    H135701   2.549   1.137   1.019 -0.5313 -0.0993 -0.3454
 4762TIP3    H235702   2.618   1.223   0.915 -0.4891 -1.5341 -1.5392
 4763TIP3   OH235703   3.145   3.905  12.888 -0.1479 -0.4913  0.3131
 4763TIP3    H135704   3.182   3.823  12.853 -0.2559 -1.2218  1.8160
 4763TIP3    H235705   3.195   3.921  12.968 -0.2407  0.8601  0.1206
 4764TIP3   OH235706   5.145   5.990  13.023 -0.2458  0.2266  0.0681
 4764TIP3    H135707   5.051   6.004  13.015 -0.2807  0.5001  0.9146
 4764TIP3    H235708   5.161   5.978  13.117  0.6572  0.8787  0.0169
 4765TIP3   OH235709   6.349   4.993   2.534 -0.8422  0.4086 -0.1390
 4765TIP3    H135710   6.359   5.011   2.441  0.2729  0.2403 -0.0630
 4765TIP3    H235711   6.295   4.914   2.538  0.1534 -0.3221 -0.6884
 4766TIP3   OH235712   0.685   3.885   6.064 -0.4285  0.0813  0.7683
 4766TIP3    H135713   0.723   3.883   6.151 -0.8458 -1.3151  0.9334
 4766TIP3    H235714   0.597   3.921   6.077  0.3037  2.0706  0.5658
 4767TIP3   OH235715   3.213   1.667  12.258  0.0147 -0.1264 -0.4537
 4767TIP3    H135716   3.175   1.705  12.338 -2.3354 -1.0276 -1.0488
 4767TIP3    H235717   3.232   1.576  12.281  0.2067 -0.1395 -0.6617
 4768TIP3   OH235718   4.669   4.610   3.373 -0.7671 -0.1358  0.1180
 4768TIP3    H135719   4.628   4.691   3.341  1.2918 -0.0963 -2.7811
 4768TIP3    H235720   4.682   4.625   3.466 -1.6274  2.3511 -0.0859
 4769TIP3   OH235721   3.318   3.907   1.963  0.4190  0.1358 -0.5707
 4769TIP3    H135722   3.282   3.906   2.052  1.9714 -1.8141  0.1064
 4769TIP3    H235723   3.383   3.977   1.964 -0.0967  0.6172 -0.4140
 4770TIP3   OH235724   0.213   3.623   4.278  0.3010  0.2219  0.0646
 4770TIP3    H135725   0.233   3.603   4.369  1.2598 -0.3752 -0.2618
 4770TIP3    H235726   0.250   3.710   4.263  0.8824 -0.0271  0.0268
 4771TIP3   OH235727   1.879   1.715   2.206  0.7327  0.0038 -0.5171
 4771TIP3    H135728   1.972   1.736   2.202  0.4589  1.5356  0.3923
 4771TIP3    H235729   1.851   1.743   2.293 -0.3766 -1.4320 -0.3601
 4772TIP3   OH235730   4.851   1.457   3.157  0.2687 -0.2581  0.5752
 4772TIP3    H135731   4.929   1.445   3.102 -0.9118 -0.3646 -1.1269
 4772TIP3    H235732   4.795   1.382   3.135 -0.6768  0.2633  1.1570
 4773TIP3   OH235733   0.422   5.608   2.418  0.4463 -0.1422 -0.2799
 4773TIP3    H135734   0.381   5.608   2.331  1.0867  1.6167 -0.6088
 4773TIP3    H235735   0.510   5.574   2.403  0.2429 -0.7448 -0.1403
 4774TIP3   OH235736   0.114   1.892  13.501  0.5423  0.4600 -0.1715
 4774TIP3    H135737   0.122   1.979  13.460  1.6751  1.9669  2.9405
 4774TIP3    H235738   0.185   1.841  13.462  0.7424  1.3690 -1.0518
 4775TIP3   OH235739   3.016   1.922   1.452  0.3285  0.0712 -0.2560
 4775TIP3    H135740   3.062   2.004   1.433 -0.1704  0.6416  0.8854
 4775TIP3    H235741   2.963   1.905   1.374  1.5280  0.0414 -1.0949
 4776TIP3   OH235742   6.150   6.759   0.311  0.2127  0.0335 -0.0867
 4776TIP3    H135743   6.139   6.854   0.303  1.0096  0.1978  0.6786
 4776TIP3    H235744   6.064   6.728   0.341  0.1222  0.5888  0.2503
 4777TIP3   OH235745   1.775   0.466   5.271  0.1254  0.3693 -0.1464
 4777TIP3    H135746   1.829   0.513   5.334 -0.0125  0.5044 -0.1281
 4777TIP3    H235747   1.780   0.518   5.191  1.5879 -0.6260 -0.7496
 4778TIP3   OH235748   0.564   3.374   4.662  0.6374 -1.4634  0.1495
 4778TIP3    H135749   0.658   3.369   4.646  0.4210 -0.6931 -1.5827
 4778TIP3    H235750   0.526   3.307   4.605  0.0949 -1.3755  0.4006
 4779TIP3   OH235751   1.641   2.376  14.036 -0.4446 -0.0810 -0.4685
 4779TIP3    H135752   1.730   2.411  14.034 -0.1163 -0.8999 -0.8027
 4779TIP3    H235753   1.649   2.288  13.999 -1.1183 -0.7723  0.9320
 4780TIP3   OH235754   0.157   0.203  15.455  0.4373 -0.1552 -0.2651
 4780TIP3    H135755   0.206   0.191  15.536 -1.1876  1.2959  1.0035
 4780TIP3    H235756   0.157   0.116  15.414  0.5427 -1.1539  1.7308
 4781TIP3   OH235757   2.846   1.050   4.128  0.5050 -0.6564 -0.6060
 4781TIP3    H135758   2.771   0.995   4.150  0.5899 -0.3900  0.4319
 4781TIP3    H235759   2.922   0.998   4.154  0.6393 -0.5551 -0.7940
 4782TIP3   OH235760   5.244   0.240   5.680  0.4468  0.2019 -0.2478
 4782TIP3    H135761   5.290   0.314   5.640 -0.9593  0.7695 -0.8386
 4782TIP3    H235762   5.315   0.185   5.715  1.5609  1.2445 -0.7832
 4783TIP3   OH235763   2.266   5.088  12.428  0.2850  0.2108  0.4380
 4783TIP3    H135764   2.212   5.079  12.507  0.1817  1.8787  0.5892
 4783TIP3    H235765   2.208   5.128  12.364  0.6219 -0.3412 -0.2214
 4784TIP3   OH235766   2.172   5.692  12.713  0.3694 -0.1042 -0.2187
 4784TIP3    H135767   2.198   5.680  12.804  0.6692 -1.5138 -0.4596
 4784TIP3    H235768   2.077   5.707  12.717  0.3058 -0.5928  0.3087
 4785TIP3   OH235769   4.160   0.576   1.865 -0.2089 -0.3807  0.0788
 4785TIP3    H135770   4.185   0.628   1.789 -2.8860 -0.1960 -0.7947
 4785TIP3    H235771   4.208   0.494   1.856 -1.2978 -0.8422 -2.5266
 4786TIP3   OH235772   4.797   6.334  11.099 -0.4054 -0.0434 -0.2993
 4786TIP3    H135773   4.890   6.335  11.121 -0.7336  1.3444  1.2317
 4786TIP3    H235774   4.784   6.411  11.044 -0.4973 -0.7581 -1.2995
 4787TIP3   OH235775   4.373   4.065   2.463 -0.0887 -0.3179  0.3849
 4787TIP3    H135776   4.307   4.010   2.505  0.0859 -1.5431 -0.8795
 4787TIP3    H235777   4.326   4.146   2.442 -0.7883 -0.5956  0.8257
 4788TIP3   OH235778   0.971   6.260  11.992 -0.3510 -0.4434  0.0981
 4788TIP3    H135779   1.039   6.294  11.935  0.7982 -0.1591  1.5816
 4788TIP3    H235780   1.008   6.179  12.028 -0.0336  0.5980  2.2560
 4789TIP3   OH235781   1.296   5.917  14.432 -0.1427 -0.5141  0.5351
 4789TIP3    H135782   1.391   5.922  14.428 -0.1851 -0.5124 -1.4375
 4789TIP3    H235783   1.270   5.995  14.481  0.8805 -0.8041  1.5762
 4790TIP3   OH235784   2.606   5.921   1.446 -0.2981 -0.2623 -0.1163
 4790TIP3    H135785   2.557   6.001   1.427 -1.2902 -0.5110  1.2318
 4790TIP3    H235786   2.692   5.936   1.408 -1.0429  0.6692 -1.5429
 4791TIP3   OH235787   3.444   0.431   0.148  0.2571 -0.1161 -0.1098
 4791TIP3    H135788   3.533   0.414   0.178  0.0140 -2.0077 -0.3026
 4791TIP3    H235789   3.453   0.450   0.055  0.4018 -1.2416 -0.3400
 4792TIP3   OH235790   2.399   5.383  11.776 -0.3606  0.0920 -0.2213
 4792TIP3    H135791   2.335   5.373  11.706  1.2896  0.1950 -1.8261
 4792TIP3    H235792   2.452   5.304  11.773 -1.4912 -0.8579  2.3267
 4793TIP3   OH235793   1.534   6.245   5.023  0.3888 -0.3254  0.1994
 4793TIP3    H135794   1.502   6.320   5.073  0.1198 -0.7575  0.6819
 4793TIP3    H235795   1.614   6.218   5.069  0.8937  0.1183 -0.4054
 4794TIP3   OH235796   6.515   0.297  13.862 -0.2908  0.2918 -0.2862
 4794TIP3    H135797   6.451   0.292  13.934  0.7111  0.6129  0.6581
 4794TIP3    H235798   6.600   0.304  13.906  0.3817  0.1344 -1.5154
 4795TIP3   OH235799   3.700   5.114  15.445  0.1004  0.3950  0.6617
 4795TIP3    H135800   3.638   5.134  15.516 -0.6486 -2.4070  0.8982
 4795TIP3    H235801   3.785   5.143  15.479 -0.4788  0.5422  2.0574
 4796TIP3   OH235802   0.096   1.354   5.246  0.7585 -0.3140 -0.1282
 4796TIP3    H135803   0.023   1.306   5.284  0.6844 -0.3107 -0.2647
 4796TIP3    H235804   0.131   1.296   5.178 -0.1856  0.3655 -1.2284
 4797TIP3   OH235805   0.910   3.664  12.507 -0.2312 -0.3869 -0.7122
 4797TIP3    H135806   0.862   3.685  12.587  0.2674 -0.8092 -0.2976
 4797TIP3    H235807   0.862   3.709  12.438 -0.4150  0.3443 -0.1222
 4798TIP3   OH235808   0.081   3.785   3.476  0.6054 -0.0841  0.5505
 4798TIP3    H135809   0.037   3.732   3.542  0.9676 -0.0092  0.8596
 4798TIP3    H235810   0.143   3.725   3.433  1.7361  0.2952  1.5784
 4799TIP3   OH235811   4.940   5.528   0.156 -0.1464  0.4027 -0.0392
 4799TIP3    H135812   4.863   5.584   0.143  0.6573  1.6015  0.1929
 4799TIP3    H235813   4.982   5.525   0.071  0.1423  0.6587  0.0941
 4800TIP3   OH235814   4.030   1.486  12.821 -0.5747 -0.2242 -0.3227
 4800TIP3    H135815   4.087   1.563  12.829  0.1228 -0.3705 -2.7780
 4800TIP3    H235816   3.941   1.521  12.818 -0.4288  0.2628  0.8518
 4801TIP3   OH235817   1.758   2.149  12.489 -0.9448 -0.3345 -0.3503
 4801TIP3    H135818   1.708   2.086  12.437  0.0583 -0.4335 -1.2153
 4801TIP3    H235819   1.838   2.164  12.440 -0.6184  0.7061  0.4430
 4802TIP3   OH235820   1.113   0.613   3.347 -0.2104 -0.2111  0.2098
 4802TIP3    H135821   1.027   0.591   3.382 -1.1949  2.0867 -0.6030
 4802TIP3    H235822   1.103   0.607   3.252  0.0947  1.4163  0.0524
 4803TIP3   OH235823   1.025   5.140  13.653  0.3304 -0.6741 -0.0570
 4803TIP3    H135824   0.948   5.180  13.611  0.1532 -0.8451  0.1011
 4803TIP3    H235825   0.995   5.117  13.741  1.3934  2.0094  1.1062
 4804TIP3   OH235826   2.884   6.165   1.710 -0.3247 -0.3524 -0.5043
 4804TIP3    H135827   2.975   6.140   1.728 -0.5003 -0.8487 -0.3090
 4804TIP3    H235828   2.843   6.171   1.797  0.2043  2.5640 -0.3562
 4805TIP3   OH235829   6.573   5.625  15.578 -0.2966 -0.2135 -0.2100
 4805TIP3    H135830   6.604   5.702  15.530  0.6995  0.5037  1.4866
 4805TIP3    H235831   6.508   5.659  15.638  0.9940 -0.4342  1.3827
 4806TIP3   OH235832   5.629   2.092  11.603 -0.3484 -0.0080  0.4219
 4806TIP3    H135833   5.552   2.123  11.556 -0.7099 -1.6107 -0.1360
 4806TIP3    H235834   5.691   2.066  11.535 -0.7183 -1.9886  0.7531
 4807TIP3   OH235835   5.844   3.612   1.639  0.0493 -0.7155  0.3251
 4807TIP3    H135836   5.907   3.590   1.707  3.1740  1.4596 -1.5866
 4807TIP3    H235837   5.866   3.555   1.566 -1.4432 -1.1525  0.1808
 4808TIP3   OH235838   5.427   3.576   5.472  0.1249  0.7252  0.3159
 4808TIP3    H135839   5.336   3.605   5.468 -0.5559 -1.4115 -0.8408
 4808TIP3    H235840   5.435   3.535   5.558 -0.9988 -1.9470 -0.7619
 4809TIP3   OH235841   2.619   6.764  15.546 -0.5003 -0.3480 -0.0266
 4809TIP3    H135842   2.641   6.857  15.547  0.6299 -0.5986 -0.5126
 4809TIP3    H235843   2.540   6.758  15.492 -0.5111  0.3087 -0.0878
 4810TIP3   OH235844   0.056   1.988  11.364 -0.2596  0.3791 -0.1820
 4810TIP3    H135845   0.138   1.998  11.315  0.9692 -2.4099  1.0768
 4810TIP3    H235846   0.050   2.067  11.417  2.4700  0.0591  0.7755
 4811TIP3   OH235847   6.496   4.893  13.679  0.1608  0.3571 -0.2422
 4811TIP3    H135848   6.519   4.831  13.610 -1.5923 -0.6352  0.0109
 4811TIP3    H235849   6.444   4.960  13.634  0.1461  0.4303 -0.1158
 4812TIP3   OH235850   5.031   0.564   3.444  0.5858  0.0394  0.0020
 4812TIP3    H135851   4.976   0.551   3.522 -0.1982 -0.1801 -0.5746
 4812TIP3    H235852   4.973   0.607   3.381  1.5022  1.1354 -0.1204
 4813TIP3   OH235853   2.034   5.839   5.632 -0.0740 -0.3376 -0.1586
 4813TIP3    H135854   2.118   5.794   5.625 -0.2880 -0.8319  0.3485
 4813TIP3    H235855   2.056   5.932   5.626  0.5902 -0.4322  0.5963
 4814TIP3   OH235856   1.259   4.102  11.895 -0.0200  0.1602  1.1726
 4814TIP3    H135857   1.204   4.025  11.882  0.4615 -0.0127  0.0147
 4814TIP3    H235858   1.348   4.068  11.894  0.3213  0.9193 -1.3900
 4815TIP3   OH235859   6.640   3.745  11.667  0.0054 -0.5316  0.1946
 4815TIP3    H135860   6.578   3.717  11.600 -0.2183 -0.5632  0.4107
 4815TIP3    H235861   6.600   3.718  11.750 -0.6038  1.0788  0.4788
 4816TIP3   OH235862   1.519   6.007  12.050 -0.0232  0.7131  0.4066
 4816TIP3    H135863   1.571   6.002  11.970 -0.6912  2.1611 -0.1665
 4816TIP3    H235864   1.499   5.916  12.071  1.5856  0.2065 -0.1033
 4817TIP3   OH235865   4.645   1.919  13.722  0.0115 -0.2249  0.0502
 4817TIP3    H135866   4.703   1.988  13.756 -0.4338 -0.2233  0.8240
 4817TIP3    H235867   4.704   1.847  13.701  0.5819  0.6405 -1.4973
 4818TIP3   OH235868   2.420   2.975  13.461  0.2521 -0.4977 -0.2413
 4818TIP3    H135869   2.486   3.036  13.428  0.2890 -0.1793  0.3952
 4818TIP3    H235870   2.348   2.982  13.399  0.7043 -0.6469 -0.7935
 4819TIP3   OH235871   0.810   3.895   4.133 -0.0467  0.2029 -0.9386
 4819TIP3    H135872   0.773   3.916   4.219  0.6564  0.3718 -0.6646
 4819TIP3    H235873   0.905   3.897   4.147  0.0663 -0.6551 -1.5148
 4820TIP3   OH235874   4.255   3.549  13.396 -0.5949 -0.5678 -0.2175
 4820TIP3    H135875   4.162   3.548  13.374 -0.4166 -0.9398 -1.0084
 4820TIP3    H235876   4.275   3.641  13.413 -0.5945 -0.1137 -2.4097
 4821TIP3   OH235877   3.043   0.212  12.472 -0.0938  0.0562  0.7819
 4821TIP3    H135878   3.075   0.261  12.547  1.1005  1.1259 -0.3788
 4821TIP3    H235879   3.121   0.169  12.437 -0.3010  0.9529 -0.8421
 4822TIP3   OH235880   5.314   5.586   3.169  0.0442  0.3193  0.3174
 4822TIP3    H135881   5.310   5.596   3.074 -0.5689 -1.2595  0.1502
 4822TIP3    H235882   5.268   5.504   3.187 -0.0790  0.7176  2.0064
 4823TIP3   OH235883   5.769   2.014  17.008  0.1108  0.4028 -0.6256
 4823TIP3    H135884   5.695   1.966  16.972  1.0263 -1.3240 -0.3323
 4823TIP3    H235885   5.786   2.084  16.946 -1.2695  0.3504 -1.0843
 4824TIP3   OH235886   0.263   4.613  13.404  0.6661 -0.0641  0.0270
 4824TIP3    H135887   0.313   4.686  13.442  1.1156 -0.4429  0.1719
 4824TIP3    H235888   0.251   4.551  13.476 -0.4309  0.2253  0.1166
 4825TIP3   OH235889   0.117   6.708   2.655 -0.2708 -0.3964  0.2695
 4825TIP3    H135890   0.145   6.722   2.745  1.4181 -0.1571 -0.2451
 4825TIP3    H235891   0.086   6.617   2.653  1.4030 -1.0158  0.7130
 4826TIP3   OH235892   5.219   1.280  11.883  0.1495 -0.1596  0.1579
 4826TIP3    H135893   5.244   1.319  11.967  3.3492  1.9722 -1.5637
 4826TIP3    H235894   5.174   1.351  11.837  0.8288 -0.3901 -0.8928
 4827TIP3   OH235895   4.290   4.330   5.089  0.2967 -0.1611 -0.5491
 4827TIP3    H135896   4.261   4.417   5.064  0.2256 -0.2742 -0.8662
 4827TIP3    H235897   4.348   4.344   5.164 -0.9633  0.0343  0.4344
 4828TIP3   OH235898   0.893   3.526   2.850 -0.2847 -0.6002  0.1032
 4828TIP3    H135899   0.905   3.480   2.933  0.7421 -3.7400 -1.6327
 4828TIP3    H235900   0.982   3.549   2.823 -0.7796  4.2618  1.6595
 4829TIP3   OH235901   2.716   2.054   2.484 -0.0476  0.6113  0.2625
 4829TIP3    H135902   2.727   2.035   2.391 -0.1241 -1.2897  0.6055
 4829TIP3    H235903   2.623   2.075   2.493  0.1915  2.0774 -0.2497
 4830TIP3   OH235904   6.121   1.249  10.882  0.3905  0.0177 -0.4014
 4830TIP3    H135905   6.135   1.212  10.968  0.8600  1.0218 -0.0289
 4830TIP3    H235906   6.034   1.289  10.887 -0.4059 -1.5375 -1.0110
 4831TIP3   OH235907   1.294   1.489   0.171 -0.2455 -0.7149 -0.5967
 4831TIP3    H135908   1.370   1.456   0.123  1.6496  0.8963  1.1227
 4831TIP3    H235909   1.219   1.466   0.116  1.6425 -0.3752 -3.5131
 4832TIP3   OH235910   4.865   1.854   4.853  0.2114  0.3704  0.6263
 4832TIP3    H135911   4.845   1.890   4.767 -1.1774 -1.4260  0.1383
 4832TIP3    H235912   4.943   1.799   4.839  0.3492  0.5529  0.6642
 4833TIP3   OH235913   4.094   4.894   0.803  0.1510  0.0273  0.0476
 4833TIP3    H135914   4.143   4.818   0.835  0.1371 -0.1883 -0.4463
 4833TIP3    H235915   4.101   4.958   0.875  2.5457  0.6356 -0.6286
 4834TIP3   OH235916   2.288   2.183  14.033  0.1322 -0.5734  0.2334
 4834TIP3    H135917   2.337   2.116  14.082  1.3067  0.5360  0.6305
 4834TIP3    H235918   2.354   2.248  14.009 -1.2960  1.5795  1.7872
 4835TIP3   OH235919   1.448   1.618   0.355 -0.2793  0.3635 -0.0954
 4835TIP3    H135920   1.502   1.676   0.301 -1.2654  2.9618  1.4992
 4835TIP3    H235921   1.389   1.576   0.293  0.0100  1.6176 -1.2760
 4836TIP3   OH235922   2.443   6.668  12.919 -0.6148 -0.1674  0.3032
 4836TIP3    H135923   2.425   6.685  12.826 -0.0373 -1.8503 -0.1594
 4836TIP3    H235924   2.536   6.648  12.922 -0.3995  0.9414  1.4417
 4837TIP3   OH235925   0.394   1.044   3.062  0.6094  0.1393 -0.2645
 4837TIP3    H135926   0.483   1.012   3.043  0.4421  0.6661 -2.1044
 4837TIP3    H235927   0.372   1.099   2.987 -0.5836  1.5190  1.0320
 4838TIP3   OH235928   1.994   6.255  15.216 -0.1354 -0.3619  0.4633
 4838TIP3    H135929   2.037   6.183  15.263 -0.5444 -1.6656 -1.0889
 4838TIP3    H235930   2.066   6.298  15.169 -0.1155 -0.8715  0.0082
 4839TIP3   OH235931   6.326   6.141   5.453 -0.0724  0.3210 -0.1073
 4839TIP3    H135932   6.357   6.189   5.376  0.7801  0.7782  0.5171
 4839TIP3    H235933   6.353   6.194   5.528  1.2627 -1.2880  0.6208
 4840TIP3   OH235934   1.896   3.923  15.444  0.0829 -0.6336 -0.0327
 4840TIP3    H135935   1.902   3.837  15.403 -0.9735 -0.3229 -0.8802
 4840TIP3    H235936   1.898   3.905  15.538  0.2871 -1.5362 -0.1998
 4841TIP3   OH235937   4.879   2.134  15.330  0.2610  0.2272 -0.1225
 4841TIP3    H135938   4.824   2.056  15.341 -0.4749  0.8865  1.1046
 4841TIP3    H235939   4.817   2.202  15.303  0.3138  1.1323  1.8479
 4842TIP3   OH235940   2.866   2.950  15.992 -0.0922 -0.2187  0.4246
 4842TIP3    H135941   2.892   3.037  15.963 -0.9643 -0.5046 -1.3397
 4842TIP3    H235942   2.837   2.906  15.913 -2.1045 -1.2565  1.6496
 4843TIP3   OH235943   2.184   0.906   5.824  0.1696  0.3700 -0.8285
 4843TIP3    H135944   2.166   0.858   5.743  1.1283 -0.0920 -0.7858
 4843TIP3    H235945   2.138   0.858   5.892 -1.3581  1.2510 -1.1994
 4844TIP3   OH235946   5.874   6.506   1.696  0.0851 -0.2164  0.2641
 4844TIP3    H135947   5.888   6.598   1.719 -0.2628 -0.0402 -0.2159
 4844TIP3    H235948   5.961   6.475   1.669  0.2019 -0.0359  0.4223
 4845TIP3   OH235949   1.774   4.481  17.073 -0.7616  0.3920  0.2798
 4845TIP3    H135950   1.849   4.435  17.035 -0.4620 -0.4177  1.7909
 4845TIP3    H235951   1.804   4.572  17.081  0.1964  0.0248  1.1453
 4846TIP3   OH235952   3.474   4.021   5.686 -0.0887  0.3284 -0.2423
 4846TIP3    H135953   3.561   4.059   5.677 -0.4464  1.2966  0.2750
 4846TIP3    H235954   3.490   3.927   5.693  0.9346  0.5149  0.0925
 4847TIP3   OH235955   4.833   5.649  14.580  0.1153 -0.6029 -0.5349
 4847TIP3    H135956   4.813   5.591  14.653  3.2958 -0.5962  0.4597
 4847TIP3    H235957   4.784   5.729  14.599  0.6636 -0.7022  1.4512
 4848TIP3   OH235958   2.919   4.739   0.436 -0.7584  0.3114 -0.5311
 4848TIP3    H135959   2.978   4.804   0.472  0.8990 -1.3510 -0.0608
 4848TIP3    H235960   2.869   4.707   0.511 -0.1008 -0.3866 -0.3810
 4849TIP3   OH235961   0.531   2.354  17.013  0.4613 -0.2371  0.3518
 4849TIP3    H135962   0.576   2.394  16.938 -0.2076  0.9961  0.5824
 4849TIP3    H235963   0.571   2.267  17.021  1.2306 -0.0201 -0.8208
 4850TIP3   OH235964   1.525   4.647  14.398 -0.3862 -0.3348 -0.5373
 4850TIP3    H135965   1.607   4.611  14.364  1.4265  2.6575  0.3394
 4850TIP3    H235966   1.534   4.641  14.493  0.6327  3.3678 -0.2595
 4851TIP3   OH235967   3.233   5.957   4.303 -0.1517 -0.1698 -0.4053
 4851TIP3    H135968   3.142   5.953   4.274  0.0020 -1.6021 -0.7296
 4851TIP3    H235969   3.261   6.046   4.280 -1.9904  0.9821  1.3988
 4852TIP3   OH235970   6.064   1.797  13.977 -0.4249 -0.5887  0.5153
 4852TIP3    H135971   6.088   1.734  14.045 -2.9926 -1.8362  0.3661
 4852TIP3    H235972   6.103   1.880  14.007 -0.0250 -1.4659  2.6029
 4853TIP3   OH235973   1.928   3.226   2.640  0.4681  0.3536 -0.0001
 4853TIP3    H135974   2.008   3.279   2.640 -0.6229  2.1317  1.3625
 4853TIP3    H235975   1.869   3.271   2.701 -1.4234 -1.1420 -0.5990
 4854TIP3   OH235976   5.601   2.878   5.596 -0.5134  0.1314  0.1859
 4854TIP3    H135977   5.663   2.875   5.669 -1.4071 -1.8600  0.9219
 4854TIP3    H235978   5.576   2.970   5.590  0.9092  0.6333  1.2257
 4855TIP3   OH235979   3.111   0.754  10.606 -0.1295 -0.7096  0.2191
 4855TIP3    H135980   3.152   0.745  10.692 -2.4849 -0.0348  1.5108
 4855TIP3    H235981   3.139   0.841  10.576  1.2164 -1.2057 -0.0286
 4856TIP3   OH235982   2.595   2.144   4.269  0.2436 -0.2083 -0.3807
 4856TIP3    H135983   2.655   2.071   4.283  2.1704  1.4956  0.9380
 4856TIP3    H235984   2.510   2.111   4.295  1.0368 -1.9986  0.0831
 4857TIP3   OH235985   2.047   3.450  16.216 -0.1454  0.3909  0.2171
 4857TIP3    H135986   2.045   3.362  16.255  0.4578  0.4252  0.3389
 4857TIP3    H235987   2.017   3.437  16.126  2.1751 -0.3646 -0.5311
 4858TIP3   OH235988   4.110   3.702  11.199 -0.4974 -0.2570  0.1619
 4858TIP3    H135989   4.072   3.746  11.275 -0.6788 -2.0004  1.1388
 4858TIP3    H235990   4.145   3.773  11.145 -1.7164  1.1376  1.1110
 4859TIP3   OH235991   3.411   6.279  13.975 -0.5203  0.0488 -0.5763
 4859TIP3    H135992   3.466   6.285  14.052 -0.8493 -1.2341 -0.2259
 4859TIP3    H235993   3.356   6.358  13.978 -0.6208 -0.0530  0.5708
 4860TIP3   OH235994   5.730   3.696  16.511  0.4920 -0.4015  0.6767
 4860TIP3    H135995   5.788   3.644  16.566  0.5085 -0.0781  0.9663
 4860TIP3    H235996   5.737   3.656  16.425  1.2386 -0.2975  0.6801
 4861TIP3   OH235997   6.250   0.929  16.949  0.1569  0.4558  0.3772
 4861TIP3    H135998   6.231   0.997  16.884 -0.6920  0.2972  0.4598
 4861TIP3    H235999   6.333   0.892  16.920 -1.6322 -1.7205 -2.4361
 4862TIP3   OH236000   0.680   2.623  16.496  0.0485  0.4945  0.5082
 4862TIP3    H136001   0.643   2.575  16.422  1.8751 -0.0607 -0.1018
 4862TIP3    H236002   0.667   2.715  16.475 -1.7191  0.3325  0.7458
 4863TIP3   OH236003   4.800   3.364  12.316 -0.0862  0.7086  0.0376
 4863TIP3    H136004   4.754   3.412  12.247  1.0752  1.8590  0.0347
 4863TIP3    H236005   4.885   3.344  12.279  0.2856  0.6988  0.8761
 4864TIP3   OH236006   4.215   4.324   2.475  0.1206  0.4825 -0.4401
 4864TIP3    H136007   4.208   4.346   2.568 -2.1261  1.0329 -0.6621
 4864TIP3    H236008   4.285   4.381   2.442  1.0882  0.1260  0.9313
 4865TIP3   OH236009   3.895   1.283   1.952  0.2714  0.4654 -0.9101
 4865TIP3    H136010   3.981   1.282   1.993 -0.0638 -0.3213 -0.1891
 4865TIP3    H236011   3.872   1.376   1.945 -0.2600  0.6392  2.0053
 4866TIP3   OH236012   0.215   0.104   5.934  0.1959 -0.0216  0.9640
 4866TIP3    H136013   0.232   0.097   6.028 -0.3341  0.9425  1.1426
 4866TIP3    H236014   0.263   0.030   5.896 -4.0532 -4.0054  2.4777
 4867TIP3   OH236015   6.048   3.939  14.859  0.5519  0.4596 -0.4230
 4867TIP3    H136016   6.106   3.977  14.793  1.7278  0.3487  0.5201
 4867TIP3    H236017   5.981   4.006  14.873  1.4569  1.3488 -0.2366
 4868TIP3   OH236018   2.826   6.462  17.098 -0.1381 -0.4085  0.5429
 4868TIP3    H136019   2.920   6.452  17.114  0.2258  1.5845 -0.0603
 4868TIP3    H236020   2.792   6.498  17.180 -0.5390 -1.8626  1.0339
 4869TIP3   OH236021   0.613   0.212  12.952 -0.0013  0.0491 -0.5852
 4869TIP3    H136022   0.622   0.292  13.004  0.3598  0.3945 -1.1637
 4869TIP3    H236023   0.524   0.217  12.917 -0.7736 -0.8944  1.1235
 4870TIP3   OH236024   6.624   2.293  13.793 -0.7608 -0.3134 -0.0769
 4870TIP3    H136025   6.603   2.215  13.844  1.3601 -0.7642  0.2128
 4870TIP3    H236026   6.719   2.304  13.803 -0.9912  2.4046  0.0173
 4871TIP3   OH236027   5.493   6.116  13.784 -0.3656 -0.1039 -0.2098
 4871TIP3    H136028   5.581   6.112  13.748 -0.8545  1.6925 -1.7683
 4871TIP3    H236029   5.480   6.031  13.827  2.7303  0.1993  1.6184
 4872TIP3   OH236030   4.757   2.211  13.434 -0.9890 -0.3244  0.4124
 4872TIP3    H136031   4.806   2.290  13.411 -0.7862  0.0199  1.9569
 4872TIP3    H236032   4.818   2.158  13.484 -1.2288 -1.3455 -0.3496
 4873TIP3   OH236033   5.674   6.390   2.331 -0.1619  0.3636 -0.1010
 4873TIP3    H136034   5.747   6.414   2.274  0.4314 -0.5887  0.2302
 4873TIP3    H236035   5.625   6.472   2.344  1.1713  1.1492  0.1354
 4874TIP3   OH236036   1.778   1.953   4.662  0.4107 -0.5150 -0.1983
 4874TIP3    H136037   1.829   2.033   4.649 -1.2464  0.9436  1.5545
 4874TIP3    H236038   1.814   1.914   4.742 -0.0937 -0.3818  0.1024
 4875TIP3   OH236039   5.467   0.186   3.791  0.0809 -0.3707 -0.4870
 4875TIP3    H136040   5.475   0.149   3.880 -2.3404 -1.2943 -0.5863
 4875TIP3    H236041   5.437   0.276   3.805  0.7346 -0.1675 -0.3614
 4876TIP3   OH236042   4.126   2.715  14.457  0.0961 -0.0502  0.1148
 4876TIP3    H136043   4.082   2.649  14.404 -1.2245  1.4179 -0.7179
 4876TIP3    H236044   4.076   2.719  14.538 -0.2640  0.4105 -0.1260
 4877TIP3   OH236045   5.798   3.336  14.759  0.4439 -0.0157  0.0599
 4877TIP3    H136046   5.850   3.416  14.757  2.1609 -1.0632 -2.2714
 4877TIP3    H236047   5.717   3.358  14.715 -0.9285  1.4291  3.0379
 4878TIP3   OH236048   5.193   3.905  12.931  0.1989 -0.5436 -0.9524
 4878TIP3    H136049   5.263   3.915  12.997  0.8414  0.6847 -1.7755
 4878TIP3    H236050   5.113   3.895  12.983  0.9128 -1.4593  0.0117
 4879TIP3   OH236051   0.445   6.503   2.057 -0.2868  0.3043  0.3797
 4879TIP3    H136052   0.376   6.444   2.026 -0.0293 -0.2731  0.9014
 4879TIP3    H236053   0.420   6.588   2.021 -1.0329  0.0189  0.1878
 4880TIP3   OH236054   2.461   1.986  14.888  0.2837 -0.1478 -0.0908
 4880TIP3    H136055   2.423   2.073  14.878 -0.4919 -0.5236 -0.5250
 4880TIP3    H236056   2.502   1.968  14.804  0.3512 -0.2547 -0.0352
 4881TIP3   OH236057   6.125   1.737   1.034  0.1158 -0.0651  0.4233
 4881TIP3    H136058   6.195   1.676   1.010 -0.6174 -0.9496  0.4569
 4881TIP3    H236059   6.148   1.767   1.122 -0.0335 -1.1209  0.8458
 4882TIP3   OH236060   6.084   4.229  15.797 -0.2034 -0.1353 -0.6297
 4882TIP3    H136061   6.162   4.256  15.748 -1.6824  0.9467 -2.4860
 4882TIP3    H236062   6.119   4.199  15.882  2.3217 -0.7560 -1.7793
 4883TIP3   OH236063   6.174   0.045  16.956 -0.1269  0.0940 -0.7237
 4883TIP3    H136064   6.207   0.049  17.046 -1.2127 -1.3736 -0.2006
 4883TIP3    H236065   6.243   0.001  16.907  0.3137  0.5532 -0.5227
 4884TIP3   OH236066   6.175   4.345   2.834  0.1669 -0.5714  0.1709
 4884TIP3    H136067   6.125   4.424   2.813  0.9859  0.1647  0.8841
 4884TIP3    H236068   6.171   4.292   2.755  0.6150  0.7347 -0.7696
 4885TIP3   OH236069   6.566   1.579   4.622  0.6179 -0.1142  0.1406
 4885TIP3    H136070   6.644   1.547   4.668  0.2597  0.5220  1.2226
 4885TIP3    H236071   6.537   1.504   4.570 -0.3743 -1.7457  2.8423
 4886TIP3   OH236072   2.009   1.339   4.235 -0.1367 -0.2175 -0.4111
 4886TIP3    H136073   1.929   1.349   4.184  1.1970 -1.2728 -2.8924
 4886TIP3    H236074   2.010   1.414   4.294 -2.3758  0.4259 -1.1155
 4887TIP3   OH236075   3.218   1.744   3.052 -0.0689  0.4318 -0.4100
 4887TIP3    H136076   3.256   1.656   3.045 -0.0068  0.5209 -1.1916
 4887TIP3    H236077   3.130   1.734   3.015  0.5793  1.1101 -2.1816
 4888TIP3   OH236078   6.791   1.260  17.099  0.9273 -0.1285 -0.0372
 4888TIP3    H136079   6.707   1.220  17.077  0.7339 -0.0613  0.5537
 4888TIP3    H236080   6.847   1.185  17.121  1.2795 -0.2374 -1.2218
 4889TIP3   OH236081   3.843   1.950  14.695  0.1516  0.8693  0.6118
 4889TIP3    H136082   3.779   1.959  14.765  0.4420 -1.8231  1.3111
 4889TIP3    H236083   3.792   1.954  14.614 -0.5845  1.0518  1.0816
 4890TIP3   OH236084   0.137   4.056   4.438  0.3544 -0.6402 -0.8486
 4890TIP3    H136085   0.106   4.139   4.474  1.8672 -0.2477 -0.3748
 4890TIP3    H236086   0.096   3.989   4.493  1.0346 -0.1105  0.3486
 4891TIP3   OH236087   6.335   1.295  12.576  0.1632  0.0538 -0.0463
 4891TIP3    H136088   6.244   1.268  12.560  0.7480 -2.1398  0.0314
 4891TIP3    H236089   6.343   1.379  12.531 -1.6923 -0.0368 -0.6490
 4892TIP3   OH236090   1.379   4.811  16.823  0.2514  0.1579  0.4045
 4892TIP3    H136091   1.453   4.804  16.762 -0.1098 -3.5289  0.1450
 4892TIP3    H236092   1.419   4.815  16.909  0.8102 -0.9135  0.2162
 4893TIP3   OH236093   0.894   5.879  14.582  0.2077  0.0406  0.2607
 4893TIP3    H136094   0.977   5.910  14.546  0.2537  2.0468  1.8880
 4893TIP3    H236095   0.828   5.909  14.520  0.5527  0.3717  0.0515
 4894TIP3   OH236096   4.866   2.672  12.798  0.0545 -0.0009 -0.6711
 4894TIP3    H136097   4.935   2.661  12.862 -0.6839  1.3403  0.4100
 4894TIP3    H236098   4.902   2.735  12.735 -0.8692  2.4808  1.1035
 4895TIP3   OH236099   1.984   1.902  12.125 -0.0078  0.1304 -0.4639
 4895TIP3    H136100   2.041   1.938  12.057  1.9285  0.9161  1.4313
 4895TIP3    H236101   1.940   1.978  12.163 -1.4434 -0.3509 -1.1026
 4896TIP3   OH236102   6.179   0.083  13.960  0.0979  0.0073 -0.0238
 4896TIP3    H136103   6.232   0.103  14.037  1.8138 -1.2512 -0.8081
 4896TIP3    H236104   6.131   0.003  13.984 -0.9727  0.7657  0.4412
 4897TIP3   OH236105   4.409   3.832  15.947 -0.2865 -0.4438 -0.1899
 4897TIP3    H136106   4.342   3.888  15.907 -1.7046 -0.8918  1.4197
 4897TIP3    H236107   4.473   3.893  15.984 -0.6553  0.0412 -0.3418
 4898TIP3   OH236108   3.337   5.061  15.096  0.5496 -0.6972  0.3764
 4898TIP3    H136109   3.326   5.017  15.011  0.3666 -1.4150  0.7613
 4898TIP3    H236110   3.398   5.132  15.078 -0.6126  0.0794 -0.6713
 4899TIP3   OH236111   5.330   5.822   3.876  0.5561  0.1014  0.6145
 4899TIP3    H136112   5.244   5.836   3.836  0.1306 -1.4274  0.9374
 4899TIP3    H236113   5.328   5.873   3.957 -0.3727 -0.6017  1.0454
 4900TIP3   OH236114   2.420   3.276   0.671 -0.3844 -0.3192  0.4561
 4900TIP3    H136115   2.451   3.200   0.720 -0.7422  0.1323  1.4128
 4900TIP3    H236116   2.431   3.350   0.731 -3.4379 -0.1470  0.9911
 4901TIP3   OH236117   0.691   6.458  14.752 -0.0231  0.1334 -0.0127
 4901TIP3    H136118   0.721   6.478  14.664  0.9579 -0.6905  0.1139
 4901TIP3    H236119   0.694   6.362  14.757 -0.6377  0.1371  0.7276
 4902TIP3   OH236120   6.064   4.241  10.955 -0.1127  0.3554  0.1613
 4902TIP3    H136121   6.008   4.268  10.882 -1.3512 -0.1003  0.8903
 4902TIP3    H236122   6.068   4.318  11.012  1.3768  0.9172 -0.6694
 4903TIP3   OH236123   2.024   3.583   5.611 -0.5968 -0.4697 -0.4526
 4903TIP3    H136124   2.032   3.488   5.606 -1.3777 -0.5107 -1.0839
 4903TIP3    H236125   2.095   3.616   5.557 -0.8242 -0.7104 -0.9029
 4904TIP3   OH236126   0.792   4.070   3.346  0.5876 -0.4295  0.3114
 4904TIP3    H136127   0.714   4.122   3.366  1.3684  0.5284  0.9508
 4904TIP3    H236128   0.758   3.992   3.301 -0.5099  1.2061 -1.8666
 4905TIP3   OH236129   0.011   3.310   3.674  0.1452  0.1546  0.4981
 4905TIP3    H136130  -0.072   3.269   3.647  0.4883 -0.2533  0.0527
 4905TIP3    H236131  -0.014   3.398   3.704 -0.5018 -0.1129  0.7605
 4906TIP3   OH236132   5.654   0.486   4.994  0.7421 -0.3463 -0.3663
 4906TIP3    H136133   5.631   0.541   5.069  1.8494 -1.7666  1.0706
 4906TIP3    H236134   5.747   0.501   4.981  1.1001 -1.9801  0.1593
 4907TIP3   OH236135   2.303   3.531  17.148 -0.0508  0.0975  0.8340
 4907TIP3    H136136   2.304   3.521  17.243 -0.9160  1.8326  1.0640
 4907TIP3    H236137   2.358   3.608  17.131  1.2133 -0.9905 -0.2158
 4908TIP3   OH236138   6.552   0.682   1.703 -0.2092  0.1833  0.6383
 4908TIP3    H136139   6.629   0.739   1.703  0.4031 -0.6267  0.6382
 4908TIP3    H236140   6.584   0.599   1.739 -1.1650 -0.0584  0.9575
 4909TIP3   OH236141   5.358   1.038  13.325 -0.6229  0.1898  0.1275
 4909TIP3    H136142   5.366   1.088  13.406  0.7274 -0.6882  0.5769
 4909TIP3    H236143   5.440   0.990  13.319 -0.8295  0.0118 -1.6267
 4910TIP3   OH236144   2.302   1.279  15.913 -0.1308 -0.4000  0.0010
 4910TIP3    H136145   2.246   1.239  15.979  0.3365  0.7527  1.1390
 4910TIP3    H236146   2.355   1.343  15.962 -0.3389  1.0776 -1.6042
 4911TIP3   OH236147   0.251   4.320   0.059 -0.5804  0.1823  0.0643
 4911TIP3    H136148   0.320   4.348   0.119 -0.2469 -0.1279 -0.1682
 4911TIP3    H236149   0.217   4.239   0.097 -0.7774  0.3019  0.1461
 4912TIP3   OH236150   4.634   5.370  11.988 -0.3103  0.3275 -0.3231
 4912TIP3    H136151   4.682   5.293  11.957  0.7866  0.9697 -0.2676
 4912TIP3    H236152   4.594   5.407  11.909 -1.1663 -0.4992 -0.2948
 4913TIP3   OH236153   2.907   4.469   3.431 -0.3561 -0.2843 -0.0555
 4913TIP3    H136154   2.900   4.450   3.337 -1.8865  0.5955 -0.1461
 4913TIP3    H236155   2.947   4.555   3.435  1.3312 -1.0357  0.1904
 4914TIP3   OH236156   6.221   5.508   3.123 -0.7926 -0.3145 -0.1830
 4914TIP3    H136157   6.297   5.531   3.070 -1.3898 -0.7984 -1.2874
 4914TIP3    H236158   6.188   5.592   3.155  0.6227 -0.1481  0.9489
 4915TIP3   OH236159   1.732   4.331   1.774  0.1176  0.0403  0.0059
 4915TIP3    H136160   1.796   4.400   1.757 -1.2988  1.7305  1.2558
 4915TIP3    H236161   1.674   4.367   1.840 -0.6623 -2.3993  0.7577
 4916TIP3   OH236162   0.399   2.146  14.230  0.2469 -0.6367  0.6430
 4916TIP3    H136163   0.372   2.073  14.174  0.9354 -1.0913  0.8976
 4916TIP3    H236164   0.350   2.133  14.311  2.4217 -2.4493  1.7655
 4917TIP3   OH236165   6.423   1.936   1.413  0.0092  0.0437  0.1758
 4917TIP3    H136166   6.462   1.867   1.467  0.4362 -0.8679 -1.2443
 4917TIP3    H236167   6.374   1.889   1.345 -2.0548  1.1559  0.7884
 4918TIP3   OH236168   2.217   0.656  14.177 -0.1325  0.1332 -0.9141
 4918TIP3    H136169   2.298   0.658  14.126 -0.2612 -1.8143 -1.2978
 4918TIP3    H236170   2.242   0.612  14.259 -0.5181  0.8016 -0.4270
 4919TIP3   OH236171   2.191   1.975   5.579  0.5348  0.5263 -0.4041
 4919TIP3    H136172   2.158   1.954   5.491  1.8806  0.1891 -0.8575
 4919TIP3    H236173   2.114   2.006   5.626 -0.1424  1.1560 -1.8408
 4920TIP3   OH236174   6.123   4.854   0.004  0.6733  0.8996  0.1524
 4920TIP3    H136175   6.109   4.786  -0.062  2.7395 -0.1861  0.7256
 4920TIP3    H236176   6.035   4.883   0.028 -0.1667  0.3540 -2.0486
 4921TIP3   OH236177   2.837   3.334  15.429 -0.2235  0.2299 -0.0686
 4921TIP3    H136178   2.834   3.429  15.419 -0.1981  0.1212 -1.2614
 4921TIP3    H236179   2.870   3.302  15.345  0.4343 -0.7967  0.5517
 4922TIP3   OH236180   4.300   2.294  16.836 -0.5711  0.0960 -0.4873
 4922TIP3    H136181   4.332   2.218  16.787  1.6032  0.1574  0.7365
 4922TIP3    H236182   4.361   2.364  16.814 -0.3936  0.5033  1.1800
 4923TIP3   OH236183   1.529   0.566  13.764 -0.1281  0.0599  0.4689
 4923TIP3    H136184   1.592   0.621  13.716 -0.3639 -0.1382 -0.0709
 4923TIP3    H236185   1.558   0.477  13.747 -1.0023 -0.0745 -0.4369
 4924TIP3   OH236186   3.025   1.774   2.700  0.0601  0.6046 -0.3452
 4924TIP3    H136187   3.109   1.741   2.730 -0.4455  0.0663  0.5358
 4924TIP3    H236188   2.971   1.696   2.689 -0.5441  0.9911 -0.1782
 4925TIP3   OH236189   0.263   6.218   5.421  0.2590  0.2357 -0.3955
 4925TIP3    H136190   0.293   6.280   5.487 -0.0829  0.6048 -0.5837
 4925TIP3    H236191   0.316   6.139   5.436 -0.9210 -0.2735  1.3615
 4926TIP3   OH236192   5.159   5.410  17.151 -0.3223 -0.6506 -0.1269
 4926TIP3    H136193   5.177   5.345  17.082 -0.8887  0.3457 -1.2490
 4926TIP3    H236194   5.228   5.395  17.216 -0.7842 -2.7713 -0.0494
 4927TIP3   OH236195   1.154   3.048  11.275 -0.0671  0.2266  0.2956
 4927TIP3    H136196   1.085   3.083  11.218 -0.7019 -0.5646  0.5460
 4927TIP3    H236197   1.236   3.074  11.233 -0.5221  0.3941 -0.5109
 4928TIP3   OH236198   2.681   6.706   5.382 -0.1195 -0.2670 -0.2668
 4928TIP3    H136199   2.706   6.706   5.290  0.2881  0.7785 -0.1753
 4928TIP3    H236200   2.669   6.799   5.403  0.0203 -0.4784  0.7971
 4929TIP3   OH236201   4.780   1.455  15.597  0.2703  0.3595 -0.1528
 4929TIP3    H136202   4.858   1.454  15.654  0.1271  0.5278  0.0480
 4929TIP3    H236203   4.711   1.492  15.652  0.8668  3.6369 -1.3802
 4930TIP3   OH236204   2.284   3.615  15.047 -0.3884 -0.1036  0.4879
 4930TIP3    H136205   2.274   3.709  15.063  0.0090 -0.1030  0.7411
 4930TIP3    H236206   2.378   3.601  15.044 -0.4177 -0.2261 -1.1745
 4931TIP3   OH236207   4.000   1.266  15.871 -0.8133  0.8066  0.4834
 4931TIP3    H136208   4.026   1.339  15.815 -0.0322  0.6728  0.6576
 4931TIP3    H236209   4.078   1.212  15.877 -1.6733 -0.6311 -0.5279
 4932TIP3   OH236210   0.683   2.929   0.993 -0.3711  0.6034 -0.1151
 4932TIP3    H136211   0.632   3.009   0.984  0.0068  1.1396  1.8895
 4932TIP3    H236212   0.774   2.955   0.979 -0.1345  0.7956  1.5300
 4933TIP3   OH236213   3.455   0.226   3.256  0.4005  0.2413  0.6300
 4933TIP3    H136214   3.490   0.141   3.280 -2.0026 -1.1690 -0.4867
 4933TIP3    H236215   3.493   0.245   3.170  2.9445  1.6203  1.9480
 4934TIP3   OH236216   4.231   1.401   1.910  0.0785  0.6429  0.2553
 4934TIP3    H136217   4.248   1.438   1.996  0.1213 -0.1540  0.5958
 4934TIP3    H236218   4.277   1.317   1.910  1.5699  1.3893 -1.1775
 4935TIP3   OH236219   6.001   6.098  13.257 -0.3897  0.0885 -0.5376
 4935TIP3    H136220   5.990   6.080  13.163  0.0637  1.3776 -0.8672
 4935TIP3    H236221   6.056   6.027  13.289 -0.8829 -0.5866 -1.1636
 4936TIP3   OH236222   3.423   4.526   0.739 -0.2517  0.7475  0.4038
 4936TIP3    H136223   3.415   4.443   0.691  0.7735  0.3613  0.8809
 4936TIP3    H236224   3.402   4.503   0.830 -1.0079  1.2338  0.3618
 4937TIP3   OH236225   0.773   5.183  16.533 -0.4326  0.0197  0.4850
 4937TIP3    H136226   0.703   5.186  16.599 -0.9427 -0.6373 -0.0113
 4937TIP3    H236227   0.846   5.141  16.578 -0.5058  0.2999  0.8771
 4938TIP3   OH236228   5.593   3.833  15.447 -0.2092  0.7534 -0.3307
 4938TIP3    H136229   5.611   3.886  15.369  0.2932  0.7953 -0.1929
 4938TIP3    H236230   5.622   3.887  15.520  0.2902  0.3036 -0.1878
 4939TIP3   OH236231   0.359   6.644  15.756 -0.4667  0.2125  0.2623
 4939TIP3    H136232   0.316   6.655  15.841  2.2954  1.3585  1.6289
 4939TIP3    H236233   0.372   6.733  15.723  0.2142 -0.1271 -0.4275
 4940TIP3   OH236234   4.827   0.855   2.458 -0.2757 -0.4234  0.2762
 4940TIP3    H136235   4.777   0.877   2.537 -1.7714 -0.5095 -0.6131
 4940TIP3    H236236   4.790   0.772   2.428 -1.5524  0.8612 -1.9434
 4941TIP3   OH236237   0.577   6.369  15.120 -0.0080 -0.2188 -0.3900
 4941TIP3    H136238   0.652   6.311  15.121  0.1587  0.0039  0.6839
 4941TIP3    H236239   0.602   6.443  15.175 -1.2538 -0.4627  0.5628
 4942TIP3   OH236240   3.561   0.791   0.239 -0.4297  0.5254  0.1102
 4942TIP3    H136241   3.496   0.814   0.305  1.1886  1.6109  1.4125
 4942TIP3    H236242   3.512   0.788   0.157 -2.0895  1.4485  1.0108
 4943TIP3   OH236243   1.025   1.624   1.581 -0.1347 -0.1780  0.4182
 4943TIP3    H136244   1.078   1.700   1.558 -0.7778  0.0202 -0.4628
 4943TIP3    H236245   1.064   1.552   1.532 -1.7515  0.3219 -1.7432
 4944TIP3   OH236246   4.789   0.604   0.625 -0.2127  0.2068 -0.3240
 4944TIP3    H136247   4.807   0.697   0.639  1.6645  0.3164 -2.9330
 4944TIP3    H236248   4.854   0.558   0.679  0.4124  0.4514 -0.8636
 4945TIP3   OH236249   2.022   2.427   2.152  0.4990 -0.7217  0.2274
 4945TIP3    H136250   2.068   2.492   2.098 -0.4962  0.7853  1.1383
 4945TIP3    H236251   1.942   2.407   2.102  1.1579 -1.8716 -0.4179
 4946TIP3   OH236252   0.901   4.484  12.021  0.0512 -0.2232  0.5348
 4946TIP3    H136253   0.962   4.548  12.060  0.1114  0.0268  0.0400
 4946TIP3    H236254   0.857   4.533  11.952 -0.0440 -0.6681  0.2795
 4947TIP3   OH236255   1.435   2.152   5.649  0.2772 -0.0629  0.2270
 4947TIP3    H136256   1.431   2.095   5.726  1.1725 -0.4646 -0.0037
 4947TIP3    H236257   1.367   2.118   5.590 -0.6340  0.4570  0.9632
 4948TIP3   OH236258   0.984   0.104  13.431 -0.5067  0.1231  0.3437
 4948TIP3    H136259   0.977   0.168  13.360  2.0184 -0.4583 -0.5518
 4948TIP3    H236260   0.948   0.023  13.394  0.9584 -0.2249 -0.4395
 4949TIP3   OH236261   1.157   0.875  15.511  0.0348 -0.1779 -0.2647
 4949TIP3    H136262   1.082   0.824  15.479  0.2847 -1.3105  0.8452
 4949TIP3    H236263   1.123   0.920  15.589  0.8960 -2.1820  1.3947
 4950TIP3   OH236264   2.187   2.971  14.116  0.1982  0.0399  0.2283
 4950TIP3    H136265   2.106   3.017  14.136  1.0580  1.7790 -0.0499
 4950TIP3    H236266   2.256   3.036  14.132  1.4320 -0.9246 -0.9209
 4951TIP3   OH236267   1.605   5.005  14.573  0.5665 -0.3187 -0.3506
 4951TIP3    H136268   1.617   5.052  14.491  1.8343  0.6827  0.3561
 4951TIP3    H236269   1.674   4.938  14.573 -0.2617 -1.1815 -0.6750
 4952TIP3   OH236270   1.393   2.145   4.020 -0.1076 -0.2738  0.4604
 4952TIP3    H136271   1.381   2.070   3.963  0.7937 -0.9025  1.0660
 4952TIP3    H236272   1.330   2.132   4.091 -0.6299  0.0613  0.0655
 4953TIP3   OH236273   5.805   1.642  16.864 -0.3518  0.1715 -0.3615
 4953TIP3    H136274   5.735   1.699  16.896 -0.3858  0.3065 -0.6700
 4953TIP3    H236275   5.877   1.656  16.925  0.1296  1.5878 -1.1834
 4954TIP3   OH236276   4.786   6.288  16.928  0.5771 -0.6491  0.1806
 4954TIP3    H136277   4.781   6.205  16.974  1.5405 -1.1504 -0.6062
 4954TIP3    H236278   4.740   6.350  16.985 -1.4241 -1.9937  0.1118
 4955TIP3   OH236279   4.842   3.037   0.811  0.2021 -0.3607  0.4217
 4955TIP3    H136280   4.847   2.991   0.894 -0.5580  1.3450  1.4655
 4955TIP3    H236281   4.748   3.041   0.791  0.2302  0.7768  0.4255
 4956TIP3   OH236282   0.826   3.011   4.923 -0.1913  0.7679  0.8572
 4956TIP3    H136283   0.855   2.978   5.008  1.8897 -3.3213 -1.1234
 4956TIP3    H236284   0.908   3.031   4.876 -1.2926  3.4954 -0.1240
 4957TIP3   OH236285   2.946   4.078   5.834  0.0033  0.5502  0.5098
 4957TIP3    H136286   2.994   4.157   5.810 -3.0596  2.1133 -1.0707
 4957TIP3    H236287   2.989   4.007   5.786  0.0985  2.0367 -1.7151
 4958TIP3   OH236288   5.836   4.064  10.591  0.1344  1.0547 -0.3711
 4958TIP3    H136289   5.900   4.093  10.526 -0.3522  2.4789 -0.2547
 4958TIP3    H236290   5.838   4.131  10.659  0.6516 -0.4173  1.1393
 4959TIP3   OH236291   1.591   5.411   5.373 -0.5750  0.4060  0.9385
 4959TIP3    H136292   1.610   5.505   5.379 -0.2457  0.2520  2.4735
 4959TIP3    H236293   1.509   5.401   5.422 -1.6648  0.1589 -0.8279
 4960TIP3   OH236294   3.954   3.369  12.430 -0.3576  0.1680 -0.0832
 4960TIP3    H136295   3.902   3.319  12.366 -2.6400  4.0868 -1.6353
 4960TIP3    H236296   3.969   3.307  12.502 -5.8115 -1.8770 -0.2359
 4961TIP3   OH236297   1.506   4.375   1.061  0.1207  0.0624 -0.5271
 4961TIP3    H136298   1.554   4.405   0.983  1.5791  1.0491  0.6978
 4961TIP3    H236299   1.559   4.404   1.135  0.0090 -2.8771  0.8586
 4962TIP3   OH236300   6.296   0.097  14.357  0.6709 -0.6406  0.2848
 4962TIP3    H136301   6.344   0.104  14.274  0.9491  0.4472  0.5269
 4962TIP3    H236302   6.246   0.016  14.349 -1.7768  0.9424 -2.2730
 4963TIP3   OH236303   0.530   5.118   2.669 -0.7135 -0.1130  0.2579
 4963TIP3    H136304   0.572   5.194   2.630  0.2633  0.0850  1.6213
 4963TIP3    H236305   0.444   5.150   2.698 -0.6949  0.2046 -0.0333
 4964TIP3   OH236306   6.015   4.635   5.689 -0.2655  0.0231 -0.7218
 4964TIP3    H136307   6.014   4.562   5.750  1.2250  0.3172 -0.3050
 4964TIP3    H236308   6.067   4.604   5.615  0.3765  0.6403 -0.5416
 4965TIP3   OH236309   6.642   5.576   2.934 -0.2944  0.1485  0.6383
 4965TIP3    H136310   6.618   5.489   2.902 -1.3546  0.4411  0.5877
 4965TIP3    H236311   6.680   5.560   3.021 -0.7185 -0.3443  0.7390
 4966TIP3   OH236312   1.457   3.799   0.183 -0.4162  0.6366  0.2872
 4966TIP3    H136313   1.368   3.777   0.156 -0.4376 -1.3190  1.6650
 4966TIP3    H236314   1.511   3.729   0.146  0.0871  0.1936  1.7473
 4967TIP3   OH236315   6.798   5.174  16.217 -0.2236  0.4904 -0.1254
 4967TIP3    H136316   6.862   5.111  16.182  0.3279 -0.6364  2.6391
 4967TIP3    H236317   6.713   5.132  16.204  0.1254 -0.8353  1.5136
 4968TIP3   OH236318   6.042   3.937  13.021 -0.2195 -0.2193  0.0366
 4968TIP3    H136319   6.001   3.907  13.102 -0.2633  0.2909  0.2056
 4968TIP3    H236320   6.057   3.857  12.970  0.2147 -0.5816  0.7310
 4969TIP3   OH236321   4.760   3.477  14.519 -0.2419 -0.0425 -0.0619
 4969TIP3    H136322   4.729   3.386  14.511  1.1056 -0.4852 -0.5384
 4969TIP3    H236323   4.683   3.530  14.503 -0.6260 -1.0846 -1.9295
 4970TIP3   OH236324   4.121   5.197   0.397  0.2785 -0.5843  0.0513
 4970TIP3    H136325   4.068   5.187   0.476 -0.3394  1.3143 -0.0656
 4970TIP3    H236326   4.058   5.222   0.329  1.0111 -0.6727 -0.6805
 4971TIP3   OH236327   5.067   1.960  11.539 -0.3665  0.8819 -0.2973
 4971TIP3    H136328   4.990   1.909  11.519  0.0579  0.6302 -1.3377
 4971TIP3    H236329   5.035   2.033  11.593 -1.5489  1.5160 -1.7986
 4972TIP3   OH236330   1.079   3.717   6.382 -0.0885 -0.3716 -0.1890
 4972TIP3    H136331   1.158   3.719   6.435 -0.1155  0.0548 -0.1661
 4972TIP3    H236332   1.037   3.634   6.405  0.7263 -0.9531 -0.7496
 4973TIP3   OH236333   1.787   2.637   6.028 -0.0819  0.1484 -0.1837
 4973TIP3    H136334   1.785   2.586   5.946 -0.5533 -1.5537  0.8321
 4973TIP3    H236335   1.857   2.597   6.079  0.3004  1.2872  0.2122
 4974TIP3   OH236336   0.819   3.439   5.597  0.0839  0.5350  0.0616
 4974TIP3    H136337   0.900   3.389   5.589 -0.4066 -0.1989 -0.4995
 4974TIP3    H236338   0.767   3.391   5.660 -0.8840 -0.3878 -1.3726
 4975TIP3   OH236339   5.385   6.757   1.002  0.0505  0.4880  0.3209
 4975TIP3    H136340   5.391   6.752   1.097  1.6045 -1.4537  0.1935
 4975TIP3    H236341   5.398   6.850   0.981  1.8387  0.6525  1.9148
 4976TIP3   OH236342   2.146   4.083  10.679 -0.2731  0.3868  0.6662
 4976TIP3    H136343   2.108   4.011  10.729  0.8643 -0.0509  0.9473
 4976TIP3    H236344   2.234   4.094  10.716  0.9706 -0.5541 -1.7973
 4977TIP3   OH236345   4.866   5.122   6.296 -0.1149 -0.3170 -0.4645
 4977TIP3    H136346   4.912   5.043   6.324  2.6775  0.9612 -1.1348
 4977TIP3    H236347   4.773   5.101   6.309  0.6064 -2.8702  1.4431
 4978TIP3   OH236348   6.295   1.997  14.686  0.8644 -0.0843  0.4539
 4978TIP3    H136349   6.343   2.024  14.608  0.3750 -1.2994 -0.2904
 4978TIP3    H236350   6.328   2.055  14.755  1.0889  1.2181 -0.6956
 4979TIP3   OH236351   2.589   4.370   5.309  0.0950  0.1308 -0.2004
 4979TIP3    H136352   2.519   4.307   5.298 -1.2645  1.4291  0.6852
 4979TIP3    H236353   2.669   4.321   5.292 -0.9155 -1.7940  0.4107
 4980TIP3   OH236354   3.622   0.529   3.191 -0.5884 -0.0006  0.0703
 4980TIP3    H136355   3.574   0.604   3.157 -0.2678 -0.0663 -0.5380
 4980TIP3    H236356   3.555   0.461   3.203 -0.9367  0.4817  0.9502
 4981TIP3   OH236357   1.942   4.038   3.912  0.7901  0.0958 -0.3021
 4981TIP3    H136358   1.870   3.991   3.954  0.7568 -0.6484 -1.1687
 4981TIP3    H236359   2.014   3.976   3.912  1.1658  0.5323 -0.2184
 4982TIP3   OH236360   6.063   3.805   5.171  0.9336 -0.2491  0.1105
 4982TIP3    H136361   5.999   3.743   5.207  0.0494  1.0683  0.8851
 4982TIP3    H236362   6.061   3.880   5.231  1.3561  0.8919 -1.2324
 4983TIP3   OH236363   0.541   1.885  13.573  0.3878  0.2013 -0.0205
 4983TIP3    H136364   0.595   1.930  13.638 -1.5144  1.1499  0.9820
 4983TIP3    H236365   0.549   1.792  13.596 -0.9784  0.5695  2.2534
 4984TIP3   OH236366   3.523   3.647  11.766 -0.2006 -0.3835 -0.2932
 4984TIP3    H136367   3.479   3.622  11.685  0.4840 -3.9019  0.2358
 4984TIP3    H236368   3.603   3.691  11.736 -0.9415  0.2741 -1.4177
 4985TIP3   OH236369   5.501   5.174   3.211  0.4321 -0.1783  0.0736
 4985TIP3    H136370   5.557   5.120   3.155  0.4931 -0.3840  0.3316
 4985TIP3    H236371   5.494   5.125   3.293  0.1000 -0.0219  0.1427
 4986TIP3   OH236372   2.564   0.137  13.819 -0.3253 -0.5949  0.1185
 4986TIP3    H136373   2.523   0.062  13.777 -2.1626 -0.7029  1.9171
 4986TIP3    H236374   2.506   0.211  13.798  0.2769 -0.1050  0.1476
 4987TIP3   OH236375   4.591   3.733  11.258  0.5217 -0.3919  0.3184
 4987TIP3    H136376   4.541   3.772  11.330  1.4526  1.5791 -0.0272
 4987TIP3    H236377   4.587   3.798  11.188  1.4464 -1.3103 -0.6259
 4988TIP3   OH236378   2.488   0.946  13.229 -0.0060  0.1538  0.1427
 4988TIP3    H136379   2.476   0.878  13.295  0.8482 -1.6658 -1.4720
 4988TIP3    H236380   2.457   1.026  13.271 -1.2371 -1.2412  2.0630
 4989TIP3   OH236381   6.096   4.295  15.263 -0.0936 -0.1331  0.2303
 4989TIP3    H136382   6.122   4.241  15.338  0.1245  0.3387  0.5004
 4989TIP3    H236383   6.058   4.374  15.302 -0.8778 -0.3074 -0.1581
 4990TIP3   OH236384   3.753   1.234  15.759  0.1002 -0.4380 -0.0085
 4990TIP3    H136385   3.753   1.312  15.705 -2.3821 -0.5103 -0.2218
 4990TIP3    H236386   3.839   1.234  15.802  0.7751  1.4810 -1.2532
 4991TIP3   OH236387   0.850   0.893   1.071 -0.7510 -0.1739 -0.0539
 4991TIP3    H136388   0.829   0.811   1.027  0.2715  0.1331 -1.1666
 4991TIP3    H236389   0.861   0.957   1.001  2.2401  0.0230  0.4373
 4992TIP3   OH236390   4.027   6.073  16.734 -1.2987  0.1857  0.6678
 4992TIP3    H136391   3.965   6.027  16.678  0.2541 -1.0425 -0.0964
 4992TIP3    H236392   4.027   6.022  16.815  0.1049 -0.9755 -0.0256
 4993TIP3   OH236393   0.961   6.587   0.756 -0.0271  0.3548 -0.1577
 4993TIP3    H136394   1.024   6.520   0.782 -0.8047 -0.1108  0.5904
 4993TIP3    H236395   0.944   6.570   0.664  0.3781  0.0243 -0.1728
 4994TIP3   OH236396   6.720   6.034  11.144  0.1518 -0.7789  0.1545
 4994TIP3    H136397   6.779   5.959  11.146 -0.4328 -1.2328  0.4166
 4994TIP3    H236398   6.740   6.078  11.061  1.0197 -0.7880  0.3482
 4995TIP3   OH236399   6.542   6.490   1.185  0.5352 -0.4952  0.3842
 4995TIP3    H136400   6.600   6.441   1.128 -0.6707 -2.9841  1.1567
 4995TIP3    H236401   6.495   6.550   1.127  1.3186 -0.9582 -0.7585
 4996TIP3   OH236402   0.660   3.745  13.114 -0.1158 -0.0450 -0.3328
 4996TIP3    H136403   0.629   3.682  13.180 -2.3046  0.4790 -0.7793
 4996TIP3    H236404   0.607   3.727  13.037  1.6965  0.0414 -1.6511
 4997TIP3   OH236405   6.391   2.206  12.664  0.1347  0.3746 -0.0826
 4997TIP3    H136406   6.314   2.165  12.626 -1.9730  2.0255  2.0985
 4997TIP3    H236407   6.445   2.230  12.588 -1.6086 -0.5592 -1.7065
 4998TIP3   OH236408   3.962   3.148  13.992  0.0869  1.0698  0.3201
 4998TIP3    H136409   4.048   3.106  13.991 -0.6134 -0.4440 -1.3516
 4998TIP3    H236410   3.972   3.226  13.938  0.5065  1.1256  0.4759
 4999TIP3   OH236411   3.349   6.155  12.760 -0.3421 -0.7180 -0.4106
 4999TIP3    H136412   3.421   6.094  12.741 -0.4177 -1.5714  1.6710
 4999TIP3    H236413   3.296   6.156  12.681  0.4575 -2.2578 -1.0103
 5000TIP3   OH236414   5.234   3.281  16.006  0.3926  0.2495  0.2932
 5000TIP3    H136415   5.270   3.229  16.077 -0.9641  0.0783  0.8744
 5000TIP3    H236416   5.178   3.346  16.048 -1.1726 -0.4440 -0.6464
 5001TIP3   OH236417   2.916   5.954  14.500  0.3217  0.8450  0.3617
 5001TIP3    H136418   3.004   5.919  14.487  1.1643  1.7081  3.0476
 5001TIP3    H236419   2.912   5.976  14.593 -3.3611 -0.7613  0.7605
 5002TIP3   OH236420   4.628   2.820   1.314  0.3484  0.3567  0.0314
 5002TIP3    H136421   4.544   2.836   1.357 -1.1248 -2.2154 -1.6340
 5002TIP3    H236422   4.655   2.733   1.344  1.3436  0.2377 -1.1100
 5003TIP3   OH236423   0.718   6.369  11.482  0.2050  0.6067  0.2421
 5003TIP3    H136424   0.770   6.297  11.447 -0.4637 -0.1918  0.8555
 5003TIP3    H236425   0.710   6.430  11.408 -1.9289 -1.4594 -1.3952
 5004TIP3   OH236426   4.415   4.389  13.619  0.3258  0.0151 -0.0757
 5004TIP3    H136427   4.479   4.441  13.570  1.1905 -1.1115 -0.1852
 5004TIP3    H236428   4.351   4.453  13.649  1.1559  1.0923 -0.5039
 5005TIP3   OH236429   0.699   4.517  13.525  0.4588 -0.2103  0.0374
 5005TIP3    H136430   0.782   4.498  13.569  0.2406  0.8867  0.9826
 5005TIP3    H236431   0.723   4.534  13.434  1.4888  1.4367  0.5703
 5006TIP3   OH236432   0.551   6.352   3.896  0.0521  0.6841 -0.2874
 5006TIP3    H136433   0.575   6.383   3.809 -0.4050  0.2841 -0.5617
 5006TIP3    H236434   0.456   6.336   3.891  0.4386 -2.1434 -0.6428
 5007TIP3   OH236435   6.329   4.171  16.516  0.2453 -0.6810 -0.1832
 5007TIP3    H136436   6.266   4.223  16.466  1.1176  1.5067  0.8434
 5007TIP3    H236437   6.289   4.159  16.602  1.0374  0.4269  0.3629
 5008TIP3   OH236438   5.084   5.870   6.286 -0.0298  0.2623 -0.0390
 5008TIP3    H136439   5.161   5.907   6.242 -0.5508  0.0546 -1.1480
 5008TIP3    H236440   5.010   5.900   6.234 -0.4953 -2.0147 -0.7886
 5009TIP3   OH236441   2.026   1.522  10.835 -0.1232  0.0863 -0.0560
 5009TIP3    H136442   2.098   1.533  10.897 -1.5112  2.4024  1.2948
 5009TIP3    H236443   1.970   1.455  10.874  0.9053 -1.2436 -0.7854
 5010TIP3   OH236444   0.968   0.079   0.529 -0.2670  0.2110 -0.2950
 5010TIP3    H136445   0.942   0.146   0.466  1.3672  1.5833  0.4164
 5010TIP3    H236446   0.900   0.082   0.597 -2.0882 -1.3379 -1.9368
 5011TIP3   OH236447   4.593   6.593   5.303  0.0436  0.1826  1.0211
 5011TIP3    H136448   4.631   6.588   5.391  0.2433  1.0823  0.9883
 5011TIP3    H236449   4.650   6.538   5.249  0.9361  1.0071  1.1041
 5012TIP3   OH236450   0.866   0.859   3.931  0.4420  0.0317  0.0119
 5012TIP3    H136451   0.929   0.790   3.911  1.5409  1.7652 -3.1050
 5012TIP3    H236452   0.781   0.819   3.912  0.7515 -1.4215  1.4538
 5013TIP3   OH236453   4.016   4.505   4.824  1.2904 -0.0728 -0.5013
 5013TIP3    H136454   4.064   4.555   4.891  2.3447 -3.0791  1.1625
 5013TIP3    H236455   4.084   4.459   4.775  0.3031 -2.3715  0.1836
 5014TIP3   OH236456   5.841   1.975   4.834  0.3767  0.0523 -0.4720
 5014TIP3    H136457   5.825   1.969   4.740  0.2508  1.8409 -0.5965
 5014TIP3    H236458   5.827   2.067   4.855  2.0607  0.0346  0.9888
 5015TIP3   OH236459   6.131   6.360   2.255 -0.0549 -0.3112  0.0201
 5015TIP3    H136460   6.060   6.421   2.271  0.4895  0.3556 -0.0698
 5015TIP3    H236461   6.087   6.277   2.236 -0.7921 -0.8494  3.3974
 5016TIP3   OH236462   6.717   2.794   0.252  0.5539  0.2194  0.3206
 5016TIP3    H136463   6.704   2.832   0.166  0.5002 -0.5600 -0.0214
 5016TIP3    H236464   6.809   2.769   0.254  0.5776  0.3194  0.5226
 5017TIP3   OH236465   6.568   6.690   4.557  0.2831 -0.2998  0.2996
 5017TIP3    H136466   6.553   6.773   4.513  1.3876 -0.8219 -1.1420
 5017TIP3    H236467   6.555   6.623   4.489  0.0733 -1.2671  1.2587
 5018TIP3   OH236468   3.607   2.262  16.829 -0.0742 -0.1139  0.1525
 5018TIP3    H136469   3.593   2.252  16.735 -0.1613  0.7853  0.0623
 5018TIP3    H236470   3.689   2.311  16.836  0.1840 -0.5915  0.5601
 5019TIP3   OH236471   0.453   3.902   4.083  0.4737 -0.0226  0.2035
 5019TIP3    H136472   0.498   3.968   4.136  1.3609  1.0524 -1.7399
 5019TIP3    H236473   0.363   3.902   4.115  0.7016  1.4201  0.9254
 5020TIP3   OH236474   5.699   3.709   3.477 -0.1919 -0.5183  0.0480
 5020TIP3    H136475   5.737   3.737   3.560  1.0721  1.9407 -1.2412
 5020TIP3    H236476   5.734   3.621   3.463  1.5596 -0.0235  1.0100
 5021TIP3   OH236477   0.596   3.635  11.533 -0.7844 -0.5487 -0.1273
 5021TIP3    H136478   0.511   3.621  11.574 -1.8335  0.7287 -1.7747
 5021TIP3    H236479   0.585   3.607  11.443  0.9435 -1.5688 -0.0738
 5022TIP3   OH236480   6.617   2.233   4.750  0.6317 -0.1657  0.0112
 5022TIP3    H136481   6.669   2.251   4.828 -0.0640 -1.9795  0.9496
 5022TIP3    H236482   6.526   2.241   4.779  0.3352 -2.3699 -0.1561
 5023TIP3   OH236483   0.821   4.194  15.956 -0.1783  0.2498  0.8203
 5023TIP3    H136484   0.868   4.147  16.024  0.5600  0.3239  0.3731
 5023TIP3    H236485   0.847   4.151  15.874  0.5303  1.4195  0.3995
 5024TIP3   OH236486   2.161   5.876  12.310 -0.1876  0.2886 -0.2834
 5024TIP3    H136487   2.160   5.966  12.278 -2.4859  0.4711  0.1875
 5024TIP3    H236488   2.151   5.822  12.231 -0.3351  0.5113 -0.4168
 5025TIP3   OH236489   2.982   4.180   4.796 -0.1316  0.0157 -0.5414
 5025TIP3    H136490   2.961   4.087   4.806 -0.3380  0.2092  1.0943
 5025TIP3    H236491   2.993   4.192   4.702 -2.1857 -1.2168 -1.0033
 5026TIP3   OH236492   6.465   1.249  15.374 -0.2344  0.0401 -0.0273
 5026TIP3    H136493   6.549   1.240  15.330 -0.0643 -1.0367  0.4930
 5026TIP3    H236494   6.455   1.168  15.424 -0.6437  1.0012  1.5212
 5027TIP3   OH236495   4.303   1.357  16.501 -0.1553 -0.2382  0.2828
 5027TIP3    H136496   4.393   1.359  16.470 -0.4772 -1.0369 -0.7581
 5027TIP3    H236497   4.252   1.327  16.425 -1.1899 -0.5951  1.0976
 5028TIP3   OH236498   6.378   5.426  10.825 -0.3587  0.7341  0.0566
 5028TIP3    H136499   6.407   5.335  10.835 -0.7137  0.5887 -0.1920
 5028TIP3    H236500   6.408   5.452  10.739 -0.1108  0.9111  0.1953
 5029TIP3   OH236501   2.281   4.224  13.367  0.1923 -0.0112 -0.5621
 5029TIP3    H136502   2.281   4.300  13.426  1.0259 -0.1469 -0.3705
 5029TIP3    H236503   2.259   4.150  13.424  3.3739 -0.5303  0.1738
 5030TIP3   OH236504   4.512   2.582  13.200 -0.4228 -0.0353  0.1764
 5030TIP3    H136505   4.502   2.488  13.186  0.4960 -0.3044  1.2247
 5030TIP3    H236506   4.499   2.620  13.113 -0.6677 -1.1357 -0.2897
 5031TIP3   OH236507   6.418   0.855  13.942  0.3307  0.4413  0.1844
 5031TIP3    H136508   6.430   0.826  13.851 -3.3615  0.6111 -0.5258
 5031TIP3    H236509   6.465   0.790  13.994  2.0034 -0.0387 -1.7752
 5032TIP3   OH236510   6.014   3.312   0.653 -0.6809  0.6162 -0.2850
 5032TIP3    H136511   6.080   3.346   0.592 -0.6850 -0.5503 -0.9585
 5032TIP3    H236512   5.992   3.225   0.619 -3.1389  1.2706 -0.5121
 5033TIP3   OH236513   5.731   1.841   1.722 -0.0979  0.1594  0.3773
 5033TIP3    H136514   5.719   1.765   1.779 -1.4366  0.5361  0.6151
 5033TIP3    H236515   5.647   1.885   1.722  0.7066  1.7496  0.3704
 5034TIP3   OH236516   2.242   5.541   1.548  0.4535  0.8068 -0.0159
 5034TIP3    H136517   2.211   5.627   1.577  2.4205  1.4362  0.4114
 5034TIP3    H236518   2.285   5.558   1.464 -0.4115 -0.0424 -0.6474
 5035TIP3   OH236519   2.374   5.070   0.180 -0.2587 -0.1886 -0.4538
 5035TIP3    H136520   2.327   5.034   0.105  0.6888 -0.5021 -0.9152
 5035TIP3    H236521   2.462   5.030   0.174 -0.7093 -1.7059  1.8701
 5036TIP3   OH236522   5.303   4.663  16.648 -0.0604  0.2272 -0.1162
 5036TIP3    H136523   5.399   4.656  16.641  0.0112  0.0743  0.9372
 5036TIP3    H236524   5.271   4.599  16.584  0.5635 -1.0729  0.8156
 5037TIP3   OH236525   4.049   2.819  13.525  0.1952 -0.2038  0.8654
 5037TIP3    H136526   4.110   2.745  13.511 -1.4104 -1.6359  1.0829
 5037TIP3    H236527   4.074   2.855  13.609  1.6975  0.2126  0.2752
 5038TIP3   OH236528   3.469   1.448   2.641 -0.3299 -0.3578  0.0640
 5038TIP3    H136529   3.558   1.447   2.606 -0.1357 -1.0061  0.5468
 5038TIP3    H236530   3.421   1.387   2.586 -0.5688  0.2640 -0.4209
 5039TIP3   OH236531   2.725   5.051   5.187 -0.4280 -0.4947  0.3402
 5039TIP3    H136532   2.747   5.140   5.163 -0.4371  0.0592  2.2556
 5039TIP3    H236533   2.730   5.049   5.282 -3.0269 -1.8206  0.5516
 5040TIP3   OH236534   5.552   5.414  15.260  0.2618 -0.9478  0.1295
 5040TIP3    H136535   5.646   5.433  15.257  0.0795 -0.0258 -0.2277
 5040TIP3    H236536   5.516   5.481  15.318 -0.2322 -1.0333 -0.0778
 5041TIP3   OH236537   3.917   3.357   3.865 -0.1230 -0.0324  0.1791
 5041TIP3    H136538   3.856   3.303   3.916  0.4890 -0.3006  0.6377
 5041TIP3    H236539   3.921   3.440   3.912  0.3801 -0.2520  0.5363
 5042TIP3   OH236540   4.835   5.679   5.540  0.2113 -0.2292  0.0743
 5042TIP3    H136541   4.844   5.596   5.494 -1.0464 -0.7478  0.7159
 5042TIP3    H236542   4.806   5.740   5.472 -0.1240 -0.6194 -0.1404
 5043TIP3   OH236543   0.559   5.693   4.446 -0.4139  0.4264  0.2570
 5043TIP3    H136544   0.524   5.650   4.368 -1.7102  2.1234 -0.1534
 5043TIP3    H236545   0.482   5.718   4.497  0.2768  1.9410  0.6201
 5044TIP3   OH236546   3.683   4.764   4.026  0.4263  0.6569  0.2888
 5044TIP3    H136547   3.588   4.768   4.017  0.3262  0.6485  1.2005
 5044TIP3    H236548   3.717   4.809   3.949 -0.3256  1.0252  0.1651
 5045TIP3   OH236549   3.895   5.080  13.851  0.0151 -0.0772  0.2421
 5045TIP3    H136550   3.908   5.130  13.770 -0.6972 -1.3312 -0.6772
 5045TIP3    H236551   3.802   5.091  13.871  0.0918 -0.1467  0.6361
 5046TIP3   OH236552   0.767   3.272  16.236 -0.1604 -0.6997  0.1859
 5046TIP3    H136553   0.832   3.224  16.185 -0.1520  0.7679 -1.2793
 5046TIP3    H236554   0.818   3.334  16.288 -0.2758 -0.8972  0.5328
 5047TIP3   OH236555   3.418   5.050   2.350  0.0626 -0.0413  0.0257
 5047TIP3    H136556   3.345   5.110   2.356  0.4910  0.4067  0.8026
 5047TIP3    H236557   3.491   5.095   2.392  1.1109  0.0093 -1.7555
 5048TIP3   OH236558   4.351   1.318  16.047 -0.2456  0.2847 -0.2080
 5048TIP3    H136559   4.307   1.233  16.049  0.3214 -0.0117 -0.0413
 5048TIP3    H236560   4.281   1.382  16.054 -0.6509 -0.1816  0.0205
 5049TIP3   OH236561   4.568   5.957  16.757 -0.3179 -0.2129 -0.3325
 5049TIP3    H136562   4.506   5.992  16.821 -0.9796 -1.1006 -0.4780
 5049TIP3    H236563   4.608   6.035  16.717 -1.0787  0.3607  0.0109
 5050TIP3   OH236564   6.532   2.933  13.956 -0.1127 -0.1574 -0.4748
 5050TIP3    H136565   6.604   2.941  14.020 -0.1160  0.0641 -0.4989
 5050TIP3    H236566   6.472   2.870  13.996  0.6645 -1.2623 -0.9836
 5051TIP3   OH236567   6.785   0.982  16.752 -0.6281  0.4018 -0.3820
 5051TIP3    H136568   6.844   1.058  16.763  0.6087 -0.7384  1.4151
 5051TIP3    H236569   6.810   0.944  16.668 -0.3129  1.1877 -0.6528
 5052TIP3   OH236570   4.139   0.435  13.044 -0.0741  0.0684  0.0321
 5052TIP3    H136571   4.113   0.348  13.073 -1.4404  0.2929 -0.4549
 5052TIP3    H236572   4.227   0.447  13.081  0.6838 -1.9857 -0.9378
 5053TIP3   OH236573   3.370   0.732   2.737  0.8224 -0.2236  0.8845
 5053TIP3    H136574   3.387   0.709   2.646 -1.7486  1.9144 -0.2732
 5053TIP3    H236575   3.278   0.760   2.739  1.1177  1.0298  3.8689
 5054TIP3   OH236576   2.163   0.980   6.407 -0.1324 -0.4830 -0.1793
 5054TIP3    H136577   2.132   0.908   6.463 -1.3414 -0.2215 -0.4741
 5054TIP3    H236578   2.147   1.059   6.459  1.8153 -0.4336  0.4197
 5055TIP3   OH236579   0.916   1.469  15.303  0.6822  0.0851  0.1700
 5055TIP3    H136580   0.940   1.478  15.395  0.2788 -0.1503  0.2997
 5055TIP3    H236581   0.899   1.375  15.291 -4.0193  0.5804  1.0846
 5056TIP3   OH236582   1.017   0.536  11.440  0.0005  0.9880  0.0325
 5056TIP3    H136583   1.090   0.563  11.385 -0.3119  3.1120  0.5794
 5056TIP3    H236584   1.000   0.445  11.414  3.0414  0.2578  0.1411
 5057TIP3   OH236585   0.680   0.128   0.437  0.3888  0.9028  0.0481
 5057TIP3    H136586   0.709   0.218   0.419 -0.4238  1.2485  0.4039
 5057TIP3    H236587   0.700   0.114   0.529 -0.2005  1.0034  0.1943
 5058TIP3   OH236588   0.260   3.977   2.190  0.2846 -0.3274 -0.0637
 5058TIP3    H136589   0.289   3.985   2.099  0.2987 -1.3826 -0.1655
 5058TIP3    H236590   0.231   4.065   2.214 -0.0403 -0.1132 -1.1976
 5059TIP3   OH236591   5.217   2.737   3.585  0.1756 -0.3126 -0.4335
 5059TIP3    H136592   5.165   2.658   3.575  0.2629 -0.5831  1.0102
 5059TIP3    H236593   5.284   2.732   3.516 -1.4998 -0.0899 -2.1407
 5060TIP3   OH236594   6.291   1.931  13.507 -0.0814 -0.2021 -0.2493
 5060TIP3    H136595   6.372   1.927  13.558 -1.0937 -1.5379  1.3379
 5060TIP3    H236596   6.321   1.939  13.416  1.7788  1.4324  0.4345
 5061TIP3   OH236597   4.919   6.783  14.940  0.3395 -0.1523 -0.2897
 5061TIP3    H136598   4.944   6.758  14.851  0.3871 -0.5630 -0.1609
 5061TIP3    H236599   4.997   6.767  14.993  0.1019 -0.5378 -0.0557
 5062TIP3   OH236600   3.851   1.430  14.664 -0.0292 -0.5772  0.5047
 5062TIP3    H136601   3.907   1.470  14.731  0.2132  0.5049 -0.3146
 5062TIP3    H236602   3.844   1.497  14.596 -0.9156 -1.3587 -0.1948
 5063TIP3   OH236603   0.240   0.409  14.070 -0.0575 -0.0049 -0.0596
 5063TIP3    H136604   0.185   0.363  14.133  0.4736  0.8714  1.0809
 5063TIP3    H236605   0.290   0.340  14.027  0.9206 -0.5125  1.8042
 5064TIP3   OH236606   6.575   5.847  16.704 -0.0714  0.2187  0.2094
 5064TIP3    H136607   6.643   5.815  16.762 -0.6501  0.6181  1.1391
 5064TIP3    H236608   6.505   5.877  16.763 -0.6539  0.6891 -0.6877
 5065TIP3   OH236609   2.009   1.552  14.485  0.2497 -0.4545  0.7007
 5065TIP3    H136610   1.932   1.592  14.444  2.4462  2.1270 -1.3090
 5065TIP3    H236611   2.015   1.594  14.571 -0.6687 -0.8304  0.9593
 5066TIP3   OH236612   0.311   3.082  13.364  0.2781 -0.6872  0.1833
 5066TIP3    H136613   0.324   3.064  13.270  0.1183  0.2731 -0.0293
 5066TIP3    H236614   0.227   3.127  13.368 -0.3099 -1.8183  0.9372
 5067TIP3   OH236615   3.778   0.948  15.123  0.1930 -0.0900  0.6083
 5067TIP3    H136616   3.722   0.956  15.045  2.4573  0.4009 -1.0848
 5067TIP3    H236617   3.755   0.863  15.160 -2.3076  0.4981  0.5828
 5068TIP3   OH236618   2.165   4.372  14.916 -0.0923  0.0331  0.3363
 5068TIP3    H136619   2.257   4.391  14.897  0.2363 -0.7288  1.0893
 5068TIP3    H236620   2.130   4.453  14.952  0.8062 -0.1975  1.8163
 5069TIP3   OH236621   5.697   3.299   4.577  0.0766  0.1957 -0.9967
 5069TIP3    H136622   5.622   3.267   4.526  0.7800  0.9381 -2.5634
 5069TIP3    H236623   5.704   3.391   4.553  0.8234  0.4092 -0.0099
 5070TIP3   OH236624   1.817   0.570  12.297 -0.3388  0.4210  0.3580
 5070TIP3    H136625   1.796   0.606  12.210  2.6805  1.0987 -0.1987
 5070TIP3    H236626   1.848   0.646  12.347 -0.5277 -0.2613  1.5321
 5071TIP3   OH236627   5.040   4.475  13.807  0.1975 -0.0858  0.0035
 5071TIP3    H136628   5.099   4.549  13.815  0.8672 -0.7201  1.2996
 5071TIP3    H236629   5.087   4.412  13.753  0.6241 -0.4763  0.8049
 5072TIP3   OH236630   2.464   4.681   5.891 -0.3106  0.2755  0.0562
 5072TIP3    H136631   2.429   4.655   5.806  0.0437  1.1009 -0.3598
 5072TIP3    H236632   2.404   4.749   5.921 -0.7844 -0.4399  0.7623
 5073TIP3   OH236633   6.598   4.204   1.502  0.2663 -0.3058 -0.7171
 5073TIP3    H136634   6.631   4.136   1.560 -0.1836  1.4195  1.7198
 5073TIP3    H236635   6.523   4.164   1.458  0.2369 -1.5084  0.3551
 5074TIP3   OH236636   5.295   1.492   4.275  0.4207 -0.1351 -0.6667
 5074TIP3    H136637   5.352   1.473   4.200 -1.5200 -2.1642 -1.7440
 5074TIP3    H236638   5.207   1.497   4.237 -0.4825 -0.1498  1.3364
 5075TIP3   OH236639   5.490   3.319  15.787 -0.6227 -0.2422 -0.3760
 5075TIP3    H136640   5.530   3.383  15.728 -1.0797 -1.1866 -1.7507
 5075TIP3    H236641   5.426   3.369  15.837 -0.6651  0.4748 -1.1229
 5076TIP3   OH236642   2.779   2.730  13.797  0.3385  0.3172 -0.5363
 5076TIP3    H136643   2.722   2.772  13.732  1.7155  1.0673 -1.2950
 5076TIP3    H236644   2.819   2.803  13.844 -1.1848 -0.2057  1.7216
 5077TIP3   OH236645   0.941   1.865  12.873  0.2860 -0.4132 -0.4794
 5077TIP3    H136646   0.935   1.784  12.924  1.9815 -0.8536 -0.9219
 5077TIP3    H236647   0.917   1.933  12.935  3.1849 -0.8279  1.3131
 5078TIP3   OH236648   5.368   2.597   1.144  0.0224  0.1408 -0.2445
 5078TIP3    H136649   5.410   2.586   1.229 -0.5319  0.1483  0.0389
 5078TIP3    H236650   5.438   2.585   1.080  0.4055 -0.0612  0.2094
 5079TIP3   OH236651   1.271   3.789  16.224  0.8470 -0.0270  0.0462
 5079TIP3    H136652   1.272   3.693  16.232 -2.2097 -0.0883  0.6491
 5079TIP3    H236653   1.227   3.805  16.141  3.6521  0.9556 -1.3979
 5080TIP3   OH236654   2.993   6.467   5.451 -0.0027  0.8754 -0.3767
 5080TIP3    H136655   3.003   6.471   5.355  1.5824  1.0463 -0.2355
 5080TIP3    H236656   2.991   6.559   5.478  0.3002  0.8311 -0.1952
 5081TIP3   OH236657   1.499   5.829  10.953  0.1340  0.4701 -0.5493
 5081TIP3    H136658   1.564   5.897  10.933  0.1880  0.5435 -0.1405
 5081TIP3    H236659   1.539   5.748  10.922  0.5851  0.4628  0.0228
 5082TIP3   OH236660   5.510   6.155   3.958 -0.7561  0.0657 -0.4762
 5082TIP3    H136661   5.530   6.067   3.988 -0.6217  0.4004  0.4628
 5082TIP3    H236662   5.415   6.163   3.969 -0.4357  1.0897  2.5730
 5083TIP3   OH236663   6.117   6.458   1.560 -0.4549 -0.0152  0.4135
 5083TIP3    H136664   6.112   6.413   1.476  0.8197  0.7226 -0.0968
 5083TIP3    H236665   6.193   6.419   1.604 -0.4192  0.3862  0.7204
 5084TIP3   OH236666   4.901   2.020  12.544  0.1713  0.0708 -0.4441
 5084TIP3    H136667   4.895   2.108  12.507 -0.9665  0.1486 -0.1019
 5084TIP3    H236668   4.810   1.989  12.550  0.5870 -1.4791 -1.3895
 5085TIP3   OH236669   5.379   3.544  16.074 -0.0914  0.0323  0.1528
 5085TIP3    H136670   5.429   3.622  16.052 -1.2904  0.6094 -0.6411
 5085TIP3    H236671   5.382   3.540  16.170  1.2479  0.1644  0.1369
 5086TIP3   OH236672   4.128   1.750   6.039  0.1059  0.2997  0.0888
 5086TIP3    H136673   4.148   1.713   5.953 -0.0029  0.6390 -0.0848
 5086TIP3    H236674   4.190   1.707   6.099  0.4585  0.3688 -0.2257
 5087TIP3   OH236675   2.659   5.806   4.067  0.1033  0.4097  0.0204
 5087TIP3    H136676   2.714   5.821   4.144  1.6678  0.1945 -1.0063
 5087TIP3    H236677   2.672   5.883   4.013  1.0131 -0.5255 -1.1475
 5088TIP3   OH236678   3.172   2.057  12.596  0.0097 -0.7484 -0.0466
 5088TIP3    H136679   3.137   2.098  12.517 -1.2397  1.6917  1.6161
 5088TIP3    H236680   3.211   2.130  12.645  0.3703 -2.1001  1.7616
 5089TIP3   OH236681   4.120   1.283   3.390 -0.3254  0.0876 -0.2705
 5089TIP3    H136682   4.077   1.362   3.356 -1.1184  0.2864  1.1149
 5089TIP3    H236683   4.201   1.315   3.430 -1.3205  0.4560  1.5642
 5090TIP3   OH236684   0.092   6.136   0.315 -0.0714  0.2500  0.2023
 5090TIP3    H136685   0.173   6.186   0.302 -0.4361  0.9320  0.4852
 5090TIP3    H236686   0.113   6.048   0.286  0.5609  0.5949 -0.4076
 5091TIP3   OH236687   1.803   3.609   0.726 -0.5003 -0.5232  0.0684
 5091TIP3    H136688   1.716   3.588   0.760  0.0606 -1.1785  1.1670
 5091TIP3    H236689   1.855   3.529   0.741  0.1319 -0.3776 -1.1668
 5092TIP3   OH236690   5.893   3.526  17.045  0.5469 -0.0790  0.1383
 5092TIP3    H136691   5.890   3.535  16.950  2.0588 -0.4614  0.0388
 5092TIP3    H236692   5.846   3.603  17.078  1.0880  0.7160 -0.8928
 5093TIP3   OH236693   4.359   5.017  16.732  0.2852 -0.5533  0.2898
 5093TIP3    H136694   4.431   4.955  16.717  0.3547 -0.9874  2.1046
 5093TIP3    H236695   4.281   4.972  16.698  0.3297 -1.7225  1.5981
 5094TIP3   OH236696   3.223   6.062  11.697  0.0766  0.1136 -0.2760
 5094TIP3    H136697   3.281   6.108  11.758 -0.7298  0.4150  0.2875
 5094TIP3    H236698   3.205   5.978  11.740  2.4826 -1.3164 -1.8271
 5095TIP3   OH236699   2.801   1.267   5.973 -0.1164 -0.2617 -0.1113
 5095TIP3    H136700   2.839   1.290   6.058 -0.4752  1.8598 -0.4602
 5095TIP3    H236701   2.710   1.293   5.980 -0.0785  0.2190 -1.2450
 5096TIP3   OH236702   0.857   4.122   4.914  0.3412 -0.0816  0.1169
 5096TIP3    H136703   0.856   4.161   5.001  0.5157 -1.9479  1.0114
 5096TIP3    H236704   0.774   4.150   4.873 -0.7562 -0.8671  1.7017
 5097TIP3   OH236705   3.562   0.353  13.272 -0.0266 -0.0498 -0.5127
 5097TIP3    H136706   3.532   0.289  13.207  0.8468 -1.9060  0.8326
 5097TIP3    H236707   3.655   0.333  13.285  0.0905  1.0214  0.4581
 5098TIP3   OH236708   5.637   4.987  14.398 -0.2347  0.3069  0.0995
 5098TIP3    H136709   5.708   5.046  14.423 -1.3953  1.2765  1.2497
 5098TIP3    H236710   5.560   5.044  14.392 -0.9867 -0.7718 -0.7740
 5099TIP3   OH236711   3.249   3.202   3.864  0.0496 -0.5567 -0.2525
 5099TIP3    H136712   3.220   3.288   3.834  0.2461  0.4670  2.3208
 5099TIP3    H236713   3.321   3.220   3.924  0.4754 -2.5797 -0.0778
 5100TIP3   OH236714   1.387   3.526   5.894  0.0236 -0.4619 -0.2844
 5100TIP3    H136715   1.390   3.468   5.818  0.3882  0.4205 -0.9669
 5100TIP3    H236716   1.332   3.481   5.957 -0.4599 -1.1199 -1.1612
 5101TIP3   OH236717   5.450   1.889  16.701  0.6185 -0.1885 -0.3598
 5101TIP3    H136718   5.478   1.839  16.624  0.3966  0.1269 -0.6464
 5101TIP3    H236719   5.434   1.978  16.668  0.0488 -0.1692 -0.0455
 5102TIP3   OH236720   5.795   6.212   4.816 -0.2109  0.4588  0.1482
 5102TIP3    H136721   5.833   6.154   4.749  0.4476 -3.0029  3.1958
 5102TIP3    H236722   5.764   6.288   4.767  1.3524 -1.2142 -3.8740
 5103TIP3   OH236723   2.697   5.444   0.575 -0.1399  0.1165 -0.1261
 5103TIP3    H136724   2.666   5.374   0.518  0.4236 -0.4643  0.2702
 5103TIP3    H236725   2.617   5.489   0.603 -0.6904 -1.5316  1.1052
 5104TIP3   OH236726   3.606   0.882   2.854  0.2854 -0.3287 -0.5540
 5104TIP3    H136727   3.676   0.907   2.794 -0.1818 -0.1121 -1.0183
 5104TIP3    H236728   3.548   0.827   2.802 -0.3179  0.1554 -0.4136
 5105TIP3   OH236729   1.555   6.173   1.438 -0.0823 -0.1379 -0.0280
 5105TIP3    H136730   1.633   6.119   1.449  0.0305  0.0089 -0.0911
 5105TIP3    H236731   1.533   6.201   1.527  0.5985  0.7312 -0.1209
 5106TIP3   OH236732   3.575   2.776  16.505 -0.3461 -0.3776 -0.2232
 5106TIP3    H136733   3.551   2.839  16.573  0.5023  0.7551 -0.9431
 5106TIP3    H236734   3.615   2.703  16.554  1.5574  1.0365  0.4516
 5107TIP3   OH236735   6.404   2.235  13.562 -0.2790 -0.5826 -0.3314
 5107TIP3    H136736   6.470   2.166  13.560 -0.3487 -0.6987  0.7477
 5107TIP3    H236737   6.445   2.306  13.612 -0.6488 -0.3187 -0.3987
 5108TIP3   OH236738   2.463   3.128   0.446 -0.3061 -0.5392  0.1850
 5108TIP3    H136739   2.530   3.178   0.401 -0.2867 -0.3194  0.4561
 5108TIP3    H236740   2.421   3.191   0.505  0.6424 -1.1302  1.5556
 5109TIP3   OH236741   4.395   6.052  14.114  0.1743 -0.0517 -0.0143
 5109TIP3    H136742   4.334   5.984  14.084  1.1528 -0.3553 -1.3950
 5109TIP3    H236743   4.338   6.119  14.153 -0.9647 -0.7577 -0.4011
 5110TIP3   OH236744   0.484   0.630   1.168 -0.0972  0.2242  0.2697
 5110TIP3    H136745   0.513   0.714   1.203 -0.5758  1.1292 -1.4030
 5110TIP3    H236746   0.560   0.572   1.180  1.4143  1.7428 -1.3321
 5111TIP3   OH236747   4.491   0.099  16.175 -0.4077  0.3190  0.5737
 5111TIP3    H136748   4.407   0.068  16.209 -0.9833  1.3781  0.1556
 5111TIP3    H236749   4.546   0.021  16.171 -0.9287 -0.1544  2.1512
 5112TIP3   OH236750   3.050   5.522   3.332  0.1396  0.1784 -0.0283
 5112TIP3    H136751   3.050   5.457   3.402 -0.1842 -0.5792 -0.7148
 5112TIP3    H236752   3.020   5.602   3.375 -1.1564 -0.5381  0.4787
 5113TIP3   OH236753   5.170   5.778  12.039 -0.1001  0.3113  0.4234
 5113TIP3    H136754   5.135   5.818  11.959  1.9470 -0.7931 -1.1172
 5113TIP3    H236755   5.114   5.702  12.053  0.1384 -0.0844 -0.6144
 5114TIP3   OH236756   4.559   6.799  15.088 -0.1823 -0.4435  0.3794
 5114TIP3    H136757   4.599   6.885  15.072 -0.9474  0.0115  0.8237
 5114TIP3    H236758   4.543   6.764  15.000  0.3032 -0.2150  0.1944
 5115TIP3   OH236759   6.184   3.071  13.979  0.1000  0.1030  0.4189
 5115TIP3    H136760   6.266   3.105  13.942  0.3777 -1.1144 -0.1132
 5115TIP3    H236761   6.122   3.144  13.970  1.1136  1.0479  0.8389
 5116TIP3   OH236762   6.163   2.499  16.904  0.4390 -0.2310  0.3376
 5116TIP3    H136763   6.207   2.583  16.919  0.8110 -0.2668 -0.4670
 5116TIP3    H236764   6.224   2.434  16.938 -0.1545 -0.1559  1.5996
 5117TIP3   OH236765   0.025   5.345   2.718 -0.2772  0.5019  0.0442
 5117TIP3    H136766   0.022   5.340   2.813 -0.1398  0.9497  0.0774
 5117TIP3    H236767  -0.057   5.390   2.694 -0.3523  0.3137 -0.0540
 5118TIP3   OH236768   0.499   0.279  16.881 -0.4075 -0.2674  0.1999
 5118TIP3    H136769   0.427   0.328  16.921 -0.1471  0.4084 -0.1439
 5118TIP3    H236770   0.531   0.223  16.951 -0.1418  0.6955  0.8631
 5119TIP3   OH236771   5.775   6.711   6.120 -0.4511  0.4611  0.9573
 5119TIP3    H136772   5.681   6.726   6.134 -0.3585  1.5848  0.3923
 5119TIP3    H236773   5.807   6.791   6.080 -0.1336 -1.4986 -3.1636
 5120TIP3   OH236774   2.964   0.775  14.229  0.2651 -0.5494  0.0088
 5120TIP3    H136775   2.901   0.703  14.227  1.1385 -1.3594 -2.4973
 5120TIP3    H236776   3.038   0.742  14.280 -0.4213 -0.4123  1.1077
 5121TIP3   OH236777   2.389   3.007  12.239  0.0353 -0.5647 -0.5765
 5121TIP3    H136778   2.415   3.019  12.148  1.0882 -1.0376 -0.3510
 5121TIP3    H236779   2.458   2.953  12.277  0.4684  0.9370  0.9135
 5122TIP3   OH236780   5.979   1.835   3.831 -0.0374 -0.4433 -0.0777
 5122TIP3    H136781   5.981   1.906   3.895  1.0764  0.6584 -1.2937
 5122TIP3    H236782   5.906   1.857   3.773 -0.8271 -1.2605  0.5766
 5123TIP3   OH236783   0.745   4.264  11.817 -0.8177  0.0276  0.3982
 5123TIP3    H136784   0.814   4.305  11.869 -0.6249  1.1585 -0.7032
 5123TIP3    H236785   0.792   4.225  11.742 -1.2205 -0.4890  0.4112
 5124TIP3   OH236786   2.240   3.207  12.747  0.4321  0.1141  0.1449
 5124TIP3    H136787   2.211   3.287  12.790 -0.1803  0.4986 -0.9595
 5124TIP3    H236788   2.165   3.147  12.754  0.6437 -0.1290  0.3690
 5125TIP3   OH236789   2.788   5.159   1.585  0.2614 -0.7891  0.0062
 5125TIP3    H136790   2.730   5.086   1.606  0.0758 -0.4526  0.7145
 5125TIP3    H236791   2.786   5.215   1.663 -0.9539  0.8698 -1.1454
 5126TIP3   OH236792   3.335   5.960  12.324 -0.3588  0.9124  0.0368
 5126TIP3    H136793   3.242   5.962  12.300 -0.4608 -2.2539 -0.3391
 5126TIP3    H236794   3.346   5.875  12.367  2.1372  1.7773  1.2947
 5127TIP3   OH236795   0.325   0.094   1.342 -0.3445 -0.0493  0.3327
 5127TIP3    H136796   0.408   0.049   1.358 -1.9239 -3.5363 -0.1766
 5127TIP3    H236797   0.286   0.105   1.428  0.1837  0.5797  0.4885
 5128TIP3   OH236798   1.745   3.534   1.408  0.8887  0.5719 -0.6084
 5128TIP3    H136799   1.727   3.603   1.344 -0.1256 -0.3872 -1.3834
 5128TIP3    H236800   1.782   3.463   1.357 -0.6054 -0.4849 -0.2824
 5129TIP3   OH236801   5.946   1.350  13.949 -0.5577  0.1933 -0.4747
 5129TIP3    H136802   5.967   1.389  14.034  1.4156  1.7444 -1.5701
 5129TIP3    H236803   5.988   1.264  13.951 -0.1035  0.4210 -0.0592
 5130TIP3   OH236804   5.909   2.047  14.220  0.0123  0.1147  0.0828
 5130TIP3    H136805   5.997   2.010  14.227  0.1197  0.3521 -0.0089
 5130TIP3    H236806   5.918   2.120  14.160  0.3092  1.8321  2.0888
 5131TIP3   OH236807   3.483   1.517  11.884  0.0259  0.2373  0.0149
 5131TIP3    H136808   3.390   1.507  11.865 -0.6797  1.1613  2.6095
 5131TIP3    H236809   3.513   1.429  11.906 -0.3447  0.0181 -0.3414
 5132TIP3   OH236810   2.776   0.404  16.158 -0.8212  0.2361 -0.0776
 5132TIP3    H136811   2.715   0.340  16.193  0.2143 -0.2033  0.9987
 5132TIP3    H236812   2.836   0.422  16.231  0.2743  0.7116 -1.0658
 5133TIP3   OH236813   2.016   2.259  13.213  0.1191  0.6216 -0.1053
 5133TIP3    H136814   2.088   2.285  13.157  0.1410 -1.5662 -1.2084
 5133TIP3    H236815   2.055   2.250  13.300  0.8015  1.0297 -0.3612
 5134TIP3   OH236816   0.360   2.367   1.999 -0.0949  0.0301  0.2692
 5134TIP3    H136817   0.396   2.456   2.002 -0.5687  0.2227  0.5061
 5134TIP3    H236818   0.349   2.348   1.906 -1.3921  0.8129  0.2405
 5135TIP3   OH236819   4.660   3.784  13.272 -0.2796 -0.0439  0.2904
 5135TIP3    H136820   4.711   3.843  13.328 -0.6995 -0.7191  1.4066
 5135TIP3    H236821   4.659   3.828  13.187  0.1880  1.1115  0.8548
 5136TIP3   OH236822   2.136   0.427  10.322  0.5621 -0.4819 -0.1194
 5136TIP3    H136823   2.092   0.344  10.337  0.8856 -0.4887  0.8781
 5136TIP3    H236824   2.203   0.431  10.391  1.0928  0.2220 -0.6658
 5137TIP3   OH236825   0.476   6.016   0.220  0.3005  0.4411  0.0522
 5137TIP3    H136826   0.422   6.085   0.260 -0.6879  0.2362 -0.8729
 5137TIP3    H236827   0.526   6.061   0.153  0.3752  0.4238  0.0964
 5138TIP3   OH236828   5.692   2.136   2.660  0.1130  0.2426  0.2726
 5138TIP3    H136829   5.707   2.170   2.572 -0.0918  0.7735  0.4335
 5138TIP3    H236830   5.729   2.048   2.659  0.6155  0.4520 -0.1766
 5139TIP3   OH236831   6.783   3.257  15.526 -0.8977 -0.2025  0.3568
 5139TIP3    H136832   6.871   3.222  15.533 -0.7799 -0.0250 -0.1720
 5139TIP3    H236833   6.760   3.247  15.434 -0.0969  2.8479 -0.3116
 5140TIP3   OH236834   1.646   0.222   4.642  0.2184 -0.1016 -0.1773
 5140TIP3    H136835   1.706   0.156   4.678  1.1036  0.8568  0.1561
 5140TIP3    H236836   1.683   0.243   4.556 -1.5714 -1.9675 -1.5037
 5141TIP3   OH236837   1.817   3.073   5.203  0.2912  0.3653  0.1074
 5141TIP3    H136838   1.906   3.059   5.233  0.0497 -1.7123  0.0516
 5141TIP3    H236839   1.820   3.155   5.154  1.9701  0.7435  0.7828
 5142TIP3   OH236840   2.011   3.590   1.497 -0.1319  0.2913 -0.4554
 5142TIP3    H136841   2.064   3.513   1.477 -0.9776 -1.0037  1.9405
 5142TIP3    H236842   1.922   3.565   1.473 -0.3630  0.6308  0.0269
 5143TIP3   OH236843   5.154   3.664  13.972 -0.0459  0.5418  0.6014
 5143TIP3    H136844   5.173   3.665  13.878  0.4371  0.1564  0.6892
 5143TIP3    H236845   5.082   3.727  13.983  0.7827  1.5990  0.1652
 5144TIP3   OH236846   3.274   2.590   4.964  0.9852 -0.1950  0.3768
 5144TIP3    H136847   3.262   2.647   4.888  1.7293  0.1672  0.5200
 5144TIP3    H236848   3.186   2.578   4.999  0.6392 -0.3406 -0.5178
 5145TIP3   OH236849   1.468   5.866   4.286  0.2709  0.6064 -0.2490
 5145TIP3    H136850   1.418   5.939   4.322 -0.8494 -0.3688  0.2812
 5145TIP3    H236851   1.523   5.837   4.359 -1.5890 -1.0151  0.6075
 5146TIP3   OH236852   0.600   5.355  16.891 -0.1835  0.0993  0.2034
 5146TIP3    H136853   0.643   5.388  16.970  3.1617 -2.4943 -0.3220
 5146TIP3    H236854   0.584   5.434  16.838 -0.9658  1.7163  2.6668
 5147TIP3   OH236855   0.360   6.302   5.925  0.8042 -0.2448 -0.0720
 5147TIP3    H136856   0.409   6.323   6.004  0.3272 -1.3331  0.5383
 5147TIP3    H236857   0.274   6.342   5.939  0.1458 -1.8443  0.7594
 5148TIP3   OH236858   6.315   6.597   5.168 -0.2370 -0.2512  0.0451
 5148TIP3    H136859   6.268   6.580   5.249 -1.4210 -2.2462 -0.9561
 5148TIP3    H236860   6.270   6.672   5.129 -0.6481 -0.2478  0.5185
 5149TIP3   OH236861   5.316   3.449   0.880  0.3379 -0.4242  0.6292
 5149TIP3    H136862   5.388   3.414   0.828  1.0655  1.4413  0.3142
 5149TIP3    H236863   5.296   3.379   0.943  1.3153 -1.6110 -0.3354
 5150TIP3   OH236864   6.602   2.356   3.369 -0.0618 -0.0392  0.0562
 5150TIP3    H136865   6.647   2.297   3.309 -1.1536  0.4870 -1.3482
 5150TIP3    H236866   6.539   2.300   3.415 -1.1154 -0.0376 -1.2901
 5151TIP3   OH236867   5.674   3.666  13.286  0.5505  0.0575 -0.2060
 5151TIP3    H136868   5.606   3.690  13.349  1.4668 -0.0453  0.8471
 5151TIP3    H236869   5.655   3.575  13.265 -0.1913  0.3022 -0.6647
 5152TIP3   OH236870   6.523   5.349  16.066 -0.1955 -0.0551 -0.1171
 5152TIP3    H136871   6.517   5.253  16.062 -0.8534  0.0021 -0.6405
 5152TIP3    H236872   6.491   5.379  15.981 -0.7383  0.6659  0.3328
 5153TIP3   OH236873   1.259   4.413   0.539  0.2785 -0.3170  0.4354
 5153TIP3    H136874   1.330   4.350   0.548 -0.8234 -2.0115 -1.7108
 5153TIP3    H236875   1.278   4.460   0.458 -0.7603 -0.4561  0.0933
 5154TIP3   OH236876   0.215   2.645  16.321 -0.0399  0.5791 -0.4225
 5154TIP3    H136877   0.151   2.586  16.280  1.7478 -0.6589 -1.5333
 5154TIP3    H236878   0.231   2.713  16.256  0.7632  0.1372 -0.6923
 5155TIP3   OH236879   0.193   6.130   3.978  0.7473 -0.1073 -0.1195
 5155TIP3    H136880   0.244   6.112   4.057 -0.6823  0.1061  0.8940
 5155TIP3    H236881   0.253   6.178   3.921  2.1622 -1.2515  0.3524
 5156TIP3   OH236882   2.858   1.592   3.768  0.0386  0.3345  0.1111
 5156TIP3    H136883   2.938   1.541   3.777  0.5017  0.6035 -1.9752
 5156TIP3    H236884   2.855   1.646   3.847  1.4431 -0.3134  0.6379
 5157TIP3   OH236885   0.683   4.683  12.334  0.0614  0.3533 -0.0367
 5157TIP3    H136886   0.588   4.686  12.330  0.0090 -1.4166 -1.1957
 5157TIP3    H236887   0.712   4.733  12.257 -0.0991 -2.6489 -2.1969
 5158TIP3   OH236888   0.319   5.708   5.504  0.2347  0.1420  0.2080
 5158TIP3    H136889   0.344   5.617   5.523 -0.1411  0.6097  3.4647
 5158TIP3    H236890   0.224   5.709   5.512  0.2127  0.7826 -0.0873
 5159TIP3   OH236891   3.940   2.853   3.234 -0.0685 -0.2417  0.5527
 5159TIP3    H136892   3.871   2.858   3.168  1.4132  0.9424 -1.0321
 5159TIP3    H236893   3.907   2.905   3.308 -0.4738  1.2392 -0.6151
 5160TIP3   OH236894   3.897   1.181  13.139  0.2798  0.5690  0.0642
 5160TIP3    H136895   3.973   1.191  13.082  0.9849 -1.5557  0.5474
 5160TIP3    H236896   3.931   1.192  13.228 -0.3064  1.1721  0.2276
 5161TIP3   OH236897   4.587   2.231   4.787  0.1833  0.9838  0.0191
 5161TIP3    H136898   4.650   2.253   4.855  0.5075 -0.3660  0.1773
 5161TIP3    H236899   4.610   2.287   4.713  0.7565  1.4144  0.5164
 5162TIP3   OH236900   4.885   4.491   0.333  0.5389  0.4328 -0.3746
 5162TIP3    H136901   4.823   4.553   0.370  1.7236  1.0031  0.7040
 5162TIP3    H236902   4.916   4.532   0.252 -0.5648  0.0755 -1.0026
 5163TIP3   OH236903   2.103   0.141   0.738  0.2464 -0.5896 -0.2545
 5163TIP3    H136904   2.083   0.068   0.796 -1.9901  0.1793  0.0270
 5163TIP3    H236905   2.090   0.107   0.650 -1.2313 -0.4590 -0.1107
 5164TIP3   OH236906   0.501   2.295   1.357 -0.2303  0.0333  0.5267
 5164TIP3    H136907   0.580   2.339   1.327 -0.3301 -0.2278 -0.1433
 5164TIP3    H236908   0.533   2.222   1.411 -0.0585  0.6884  1.3300
 5165TIP3   OH236909   5.268   3.265  14.868 -0.5239  0.4522  0.7103
 5165TIP3    H136910   5.357   3.271  14.901  0.1417  1.7854 -1.1414
 5165TIP3    H236911   5.270   3.194  14.804 -0.0825  2.0208 -1.1296
 5166TIP3   OH236912   6.601   1.224   0.354  0.0277  0.1668  0.0577
 5166TIP3    H136913   6.604   1.129   0.366 -0.9616  0.2411  0.9825
 5166TIP3    H236914   6.519   1.251   0.393  1.0258  1.6134  1.2570
 5167TIP3   OH236915   2.594   4.853   4.991  0.4503  0.3437  0.5598
 5167TIP3    H136916   2.629   4.918   5.052 -0.2082  1.3961 -0.1480
 5167TIP3    H236917   2.611   4.769   5.033  1.3931  0.9612  1.4702
 5168TIP3   OH236918   2.344   4.825  10.949  0.6495 -0.0862  0.0963
 5168TIP3    H136919   2.425   4.781  10.978 -0.0559 -0.3589  1.7653
 5168TIP3    H236920   2.311   4.868  11.028 -1.7371 -1.4217 -0.0798
 5169TIP3   OH236921   6.507   4.580   3.136  0.0480 -0.0424 -0.1193
 5169TIP3    H136922   6.540   4.530   3.062 -0.0886  0.7224 -0.7161
 5169TIP3    H236923   6.452   4.648   3.097 -0.2914  0.1815  0.7045
 5170TIP3   OH236924   6.780   4.668  13.543 -0.6986 -0.2289  0.1273
 5170TIP3    H136925   6.769   4.576  13.520  0.5142 -0.4897  0.5207
 5170TIP3    H236926   6.790   4.668  13.638  0.6580  0.1359  0.0109
 5171TIP3   OH236927   0.055   2.849  16.505 -0.7154 -0.1686  0.3102
 5171TIP3    H136928   0.145   2.836  16.477  0.0964 -0.0717  2.6944
 5171TIP3    H236929   0.043   2.787  16.577 -3.0739 -1.2551 -0.8919
 5172TIP3   OH236930   3.206   3.212   4.663 -0.0182 -0.1780  0.0082
 5172TIP3    H136931   3.153   3.254   4.730 -2.2833 -2.5685 -0.1374
 5172TIP3    H236932   3.156   3.222   4.582  1.4938  0.5247 -0.8939
 5173TIP3   OH236933   3.680   6.792  14.172 -0.2602 -0.1423  0.0423
 5173TIP3    H136934   3.708   6.794  14.263 -1.4004  0.5761  0.3986
 5173TIP3    H236935   3.724   6.715  14.135  0.9099  0.0619  0.9488
 5174TIP3   OH236936   6.717   3.488   2.432 -0.0223  0.2426  0.4538
 5174TIP3    H136937   6.691   3.580   2.435 -2.1667 -0.2882 -0.0833
 5174TIP3    H236938   6.747   3.468   2.521 -0.5438  1.2074  0.8567
 5175TIP3   OH236939   1.129   0.421   6.065 -0.0983  0.2252  0.4916
 5175TIP3    H136940   1.177   0.459   5.991 -1.3725  1.6042  0.3242
 5175TIP3    H236941   1.123   0.492   6.129 -1.1162 -0.1899  0.8808
 5176TIP3   OH236942   5.766   4.251   3.615  0.4563  0.3854 -0.4843
 5176TIP3    H136943   5.861   4.258   3.624  0.4839  2.1789 -1.6489
 5176TIP3    H236944   5.745   4.303   3.537 -1.4157 -0.5336 -0.6559
 5177TIP3   OH236945   0.223   4.808  13.225 -0.0253 -0.2619 -0.1018
 5177TIP3    H136946   0.243   4.743  13.292 -1.6010 -0.2390  0.4313
 5177TIP3    H236947   0.167   4.762  13.162  1.6909 -0.3745 -1.6112
 5178TIP3   OH236948   4.287   1.685  15.328 -0.6912  0.5504 -0.0445
 5178TIP3    H136949   4.307   1.600  15.368 -1.2221  0.6492  0.4532
 5178TIP3    H236950   4.228   1.664  15.255 -2.7406  0.6435  1.4867
 5179TIP3   OH236951   5.906   3.555   0.244 -0.1307  0.5292  0.0469
 5179TIP3    H136952   5.824   3.584   0.284 -0.1587 -0.5730  0.8080
 5179TIP3    H236953   5.914   3.609   0.165 -1.2159  1.1516  0.3464
 5180TIP3   OH236954   0.519   5.434   1.208 -0.1427  0.4705 -0.1717
 5180TIP3    H136955   0.458   5.380   1.159  0.3596  0.0122 -0.3083
 5180TIP3    H236956   0.496   5.524   1.185 -0.9768  0.3147  0.0482
 5181TIP3   OH236957   2.189   2.306   1.224 -0.7670  0.1789 -0.2412
 5181TIP3    H136958   2.198   2.401   1.217 -2.1487  0.5056  1.6596
 5181TIP3    H236959   2.096   2.292   1.239 -0.6595 -1.5445 -0.9751
 5182TIP3   OH236960   6.574   3.439   2.714 -0.2268  0.3022  0.1232
 5182TIP3    H136961   6.599   3.521   2.757  0.3383  0.1603  0.0818
 5182TIP3    H236962   6.640   3.376   2.744  0.4416  0.3017 -1.2825
 5183TIP3   OH236963   2.875   0.869  13.528 -0.3250 -0.3847  0.1620
 5183TIP3    H136964   2.953   0.923  13.519  0.5812 -1.2987  2.0443
 5183TIP3    H236965   2.859   0.835  13.439  1.2285  0.0548 -0.3182
 5184TIP3   OH236966   2.907   6.427  15.809 -0.4615 -0.5772 -0.1498
 5184TIP3    H136967   2.887   6.476  15.729 -1.8676 -2.2116 -0.8760
 5184TIP3    H236968   2.981   6.371  15.784 -0.8921 -1.0783 -0.3199
 5185TIP3   OH236969   3.580   0.176   5.390  0.5112 -0.8175  0.4525
 5185TIP3    H136970   3.578   0.089   5.350 -2.3743 -0.5588 -0.1972
 5185TIP3    H236971   3.542   0.233   5.323 -0.9608  0.2877  2.1426
 5186TIP3   OH236972   1.797   5.814   5.767 -0.0224 -0.1481 -0.3131
 5186TIP3    H136973   1.888   5.818   5.737  0.0088  1.7563 -0.0696
 5186TIP3    H236974   1.796   5.866   5.847 -1.3465 -0.0718 -0.3591
 5187TIP3   OH236975   3.275   2.703   3.435 -0.9702 -0.4632 -0.7751
 5187TIP3    H136976   3.324   2.678   3.357 -0.8696 -1.1031 -0.5164
 5187TIP3    H236977   3.202   2.641   3.439 -1.5808  0.2312 -0.9378
 5188TIP3   OH236978   2.288   5.550  13.160  0.2810  0.2669  0.1542
 5188TIP3    H136979   2.336   5.586  13.234  1.4954 -0.4234 -0.2688
 5188TIP3    H236980   2.284   5.456  13.178  1.3632 -0.0323 -1.0610
 5189TIP3   OH236981   3.601   5.796   1.340  0.1087 -0.0118  0.2705
 5189TIP3    H136982   3.615   5.884   1.306 -1.2143  0.3967  0.6941
 5189TIP3    H236983   3.620   5.803   1.434  0.1087 -0.1997  0.2844
 5190TIP3   OH236984   1.338   0.856   1.347  0.0365 -0.3301 -0.3220
 5190TIP3    H136985   1.399   0.914   1.301 -0.8881  0.8233 -0.1383
 5190TIP3    H236986   1.374   0.848   1.435 -1.7108  3.1371  0.9104
 5191TIP3   OH236987   5.164   1.129   2.046 -0.2703  0.1607  0.0278
 5191TIP3    H136988   5.252   1.161   2.066  0.4519 -2.2577  1.0584
 5191TIP3    H236989   5.134   1.186   1.975  1.9763  1.2676 -0.1310
 5192TIP3   OH236990   1.076   3.290  11.393  0.2894 -0.9820  0.0859
 5192TIP3    H136991   1.081   3.236  11.313 -0.1902  0.6699 -1.1164
 5192TIP3    H236992   1.112   3.374  11.367  1.2531 -0.7570  1.9987
 5193TIP3   OH236993   1.698   6.219  15.734 -0.1615 -0.1496  0.2449
 5193TIP3    H136994   1.731   6.279  15.667  1.7985  0.6483  1.8432
 5193TIP3    H236995   1.763   6.149  15.737 -0.9806 -0.9257  0.3569
 5194TIP3   OH236996   3.089   4.325  13.396 -0.3151 -0.8948  0.0318
 5194TIP3    H136997   3.011   4.379  13.410 -0.1000 -0.2976 -0.9361
 5194TIP3    H236998   3.066   4.267  13.324 -0.3296 -1.6695  0.6607
 5195TIP3   OH236999   5.257   6.511   1.022 -0.5642 -0.0786  0.5446
 5195TIP3    H137000   5.322   6.581   1.024 -0.8497  0.2059  0.1216
 5195TIP3    H237001   5.173   6.558   1.022 -0.7658 -0.4375  1.0212
 5196TIP3   OH237002   6.387   2.200   1.049  0.0537 -0.2538 -0.1439
 5196TIP3    H137003   6.355   2.254   1.121  2.6728  0.6626  0.4381
 5196TIP3    H237004   6.341   2.234   0.971 -0.9658  0.3951  0.7101
 5197TIP3   OH237005   2.244   3.644  11.753  0.5217 -0.0815 -0.2789
 5197TIP3    H137006   2.330   3.673  11.781  0.9530  0.5017 -2.0578
 5197TIP3    H237007   2.203   3.609  11.832  1.2880  2.2051  1.2411
 5198TIP3   OH237008   3.737   1.025   1.552  0.1092 -0.1947  0.2234
 5198TIP3    H137009   3.647   1.018   1.521  0.6144  0.4975 -1.5046
 5198TIP3    H237010   3.731   1.079   1.631 -1.0367 -0.6487  0.4628
 5199TIP3   OH237011   6.133   5.808  14.206  0.0806 -0.1116 -0.1985
 5199TIP3    H137012   6.162   5.790  14.117  1.1392 -1.2921  0.3550
 5199TIP3    H237013   6.160   5.731  14.256  0.6996  1.0856  1.4082
 5200TIP3   OH237014   1.310   1.663  14.519 -0.3977  0.1698  0.7345
 5200TIP3    H137015   1.353   1.602  14.458 -1.0943  0.4348 -0.0518
 5200TIP3    H237016   1.320   1.623  14.605  0.5670 -0.2458  0.4433
 5201TIP3   OH237017   6.335   2.716   0.241 -0.6218 -0.6194 -0.1760
 5201TIP3    H137018   6.327   2.783   0.174  1.5822  0.2905  0.3761
 5201TIP3    H237019   6.329   2.764   0.324 -0.6527 -1.3342  0.2472
 5202TIP3   OH237020   6.345   2.940  15.416 -0.6046 -0.0907  0.0654
 5202TIP3    H137021   6.300   2.953  15.499 -0.3018  0.5623  0.1306
 5202TIP3    H237022   6.328   3.021  15.367  1.2747  0.5748  0.4598
 5203TIP3   OH237023   5.278   3.951   4.553  0.6893 -0.2051  0.0082
 5203TIP3    H137024   5.342   3.880   4.559  0.3395 -0.4888  0.4394
 5203TIP3    H237025   5.327   4.025   4.518  0.8688 -0.8937 -1.2446
 5204TIP3   OH237026   0.362   2.700  14.679  0.6264 -0.3934  0.0052
 5204TIP3    H137027   0.321   2.708  14.593 -0.6118 -1.6351  0.4401
 5204TIP3    H237028   0.317   2.766  14.733 -0.3744 -1.2808  0.3015
 5205TIP3   OH237029   4.986   0.655   3.102  0.0585 -0.5299 -0.3134
 5205TIP3    H137030   5.032   0.737   3.086  0.1331 -0.8435 -1.7562
 5205TIP3    H237031   4.965   0.621   3.015 -3.0044 -0.3494  0.2295
 5206TIP3   OH237032   0.887   2.811  15.689  0.5506  0.3599 -0.3185
 5206TIP3    H137033   0.873   2.855  15.605 -2.0464 -0.1081 -0.2358
 5206TIP3    H237034   0.882   2.718  15.668 -2.7524  0.1980  0.5495
 5207TIP3   OH237035   2.718   2.236   4.023  0.0855  0.4509  0.0343
 5207TIP3    H137036   2.662   2.229   4.100 -0.4760 -1.4761 -0.5042
 5207TIP3    H237037   2.740   2.146   4.001  0.1160  0.9364 -2.1353
 5208TIP3   OH237038   2.655   5.909  16.876 -0.1685  0.0694  0.1518
 5208TIP3    H137039   2.582   5.953  16.832 -0.5671  0.4267  1.1348
 5208TIP3    H237040   2.683   5.971  16.943  0.7648 -0.2496  0.0768
 5209TIP3   OH237041   4.687   1.442  13.608  0.2829  0.0029 -0.0861
 5209TIP3    H137042   4.666   1.436  13.515  1.0281  1.6642 -0.3876
 5209TIP3    H237043   4.610   1.405  13.652 -0.3199 -0.2884 -1.3414
 5210TIP3   OH237044   2.857   2.084   5.876  0.2625  0.3098 -0.0010
 5210TIP3    H137045   2.784   2.112   5.931 -0.0857  1.1952 -0.8886
 5210TIP3    H237046   2.935   2.113   5.923  0.0454 -0.3877  0.8124
 5211TIP3   OH237047   4.008   1.557   0.451 -0.1575 -0.1972 -0.2003
 5211TIP3    H137048   4.024   1.464   0.439 -0.0131 -0.2479  0.3534
 5211TIP3    H237049   3.998   1.592   0.362  0.8539 -0.5475 -0.4630
 5212TIP3   OH237050   5.493   1.285  11.531  0.2236  0.1460 -0.3712
 5212TIP3    H137051   5.542   1.351  11.482  0.5638  0.8979  0.9314
 5212TIP3    H237052   5.405   1.322  11.538  0.2432  0.1598 -0.1973
 5213TIP3   OH237053   5.793   3.023  15.831  0.1047 -0.1068 -0.6025
 5213TIP3    H137054   5.796   3.102  15.776 -0.6468  0.5233  0.2227
 5213TIP3    H237055   5.722   3.041  15.893  0.1597 -1.2988 -0.1822
 5214TIP3   OH237056   0.915   5.427   0.615  0.0545 -0.1883 -0.5617
 5214TIP3    H137057   0.940   5.336   0.627  1.3301  0.2745  0.5583
 5214TIP3    H237058   0.846   5.442   0.680  0.6043 -0.0855  0.0099
 5215TIP3   OH237059   6.733   3.522  11.515  0.2182  0.4924  0.0245
 5215TIP3    H137060   6.745   3.560  11.602 -1.5821 -0.6090  0.8095
 5215TIP3    H237061   6.644   3.549  11.489 -0.3932 -1.5456 -0.1804
 5216TIP3   OH237062   2.260   0.119   2.036 -0.0832 -0.1213 -0.0584
 5216TIP3    H137063   2.259   0.150   1.945  0.3605 -0.3598 -0.1486
 5216TIP3    H237064   2.275   0.198   2.088 -2.3148  0.3418 -0.0306
 5217TIP3   OH237065   1.212   1.122  12.152  0.4822  0.2182 -0.2846
 5217TIP3    H137066   1.285   1.071  12.186  1.9626  1.0332 -2.0648
 5217TIP3    H237067   1.200   1.192  12.216 -0.8672 -1.6476  1.6205
 5218TIP3   OH237068   4.165   3.209   2.945  0.6774  0.4615  0.2916
 5218TIP3    H137069   4.172   3.300   2.973  0.9066  0.4745  0.1920
 5218TIP3    H237070   4.200   3.159   3.019  0.1376  0.4263  0.5316
 5219TIP3   OH237071   0.268   3.339   0.324  0.2068  0.5859  0.2385
 5219TIP3    H137072   0.195   3.293   0.282  0.3142  1.4984 -1.0045
 5219TIP3    H237073   0.248   3.432   0.314  1.1951  0.8488  0.5083
 5220TIP3   OH237074   0.132   2.779   5.728  0.3189  0.1800 -0.4414
 5220TIP3    H137075   0.129   2.783   5.824  0.3401  2.4908 -0.4803
 5220TIP3    H237076   0.220   2.810   5.706 -0.1739  1.0834 -1.2182
 5221TIP3   OH237077   3.724   4.273   2.350  0.0597  0.3657 -0.2968
 5221TIP3    H137078   3.750   4.239   2.264 -0.1283 -0.4611 -0.0347
 5221TIP3    H237079   3.786   4.234   2.411 -0.5935 -0.0834  0.0960
 5222TIP3   OH237080   3.889   4.220  11.672 -0.1999  0.2823 -0.3900
 5222TIP3    H137081   3.964   4.229  11.613  0.7000 -0.1474  0.6720
 5222TIP3    H237082   3.875   4.309  11.706  0.8409  0.0774  0.6157
 5223TIP3   OH237083   3.380   4.357  16.351 -0.1784 -0.0277 -0.0487
 5223TIP3    H137084   3.363   4.299  16.276 -0.1410  1.2172 -1.0635
 5223TIP3    H237085   3.312   4.424  16.345  0.5398  0.7544  0.3399
 5224TIP3   OH237086   6.103   6.742  11.152 -0.3231 -0.4212  0.4035
 5224TIP3    H137087   6.123   6.815  11.211  0.5540 -0.9941  0.8382
 5224TIP3    H237088   6.053   6.782  11.081  1.1327  0.8472  0.0323
 5225TIP3   OH237089   1.434   4.299  10.863 -0.2222  0.8410  0.0235
 5225TIP3    H137090   1.408   4.257  10.946  4.3754  0.4402  1.5631
 5225TIP3    H237091   1.432   4.392  10.882 -1.0968  0.8766 -0.1687
 5226TIP3   OH237092   5.846   5.303   1.358  0.1161 -0.0546 -0.0774
 5226TIP3    H137093   5.876   5.270   1.273  1.2792 -0.8661  0.6155
 5226TIP3    H237094   5.756   5.273   1.365  0.0253 -0.0201 -1.0086
 5227TIP3   OH237095   5.827   0.528   2.132 -0.0800  0.2354  0.1582
 5227TIP3    H137096   5.819   0.622   2.149 -0.5620  0.1932  0.1660
 5227TIP3    H237097   5.767   0.487   2.194 -0.3021 -0.0432 -0.2362
 5228TIP3   OH237098   2.327   4.460   3.589 -0.4169 -0.8298 -0.0653
 5228TIP3    H137099   2.389   4.418   3.528  1.1722  0.8332  0.3139
 5228TIP3    H237100   2.241   4.440   3.553  0.4400 -0.1200 -2.7802
 5229TIP3   OH237101   1.991   0.967  14.807 -0.2854 -0.6289 -0.2497
 5229TIP3    H137102   2.027   0.952  14.719  0.5159 -2.6992  0.3719
 5229TIP3    H237103   1.937   1.046  14.797 -0.2107 -0.7840 -2.5892
 5230TIP3   OH237104   2.187   4.739   2.218 -0.3764 -0.3805 -0.2275
 5230TIP3    H137105   2.181   4.814   2.277 -1.9323 -0.1070 -0.6822
 5230TIP3    H237106   2.265   4.757   2.165  0.2671  0.0270  0.8147
 5231TIP3   OH237107   2.365   0.729   2.429 -0.4598  0.0087  0.2476
 5231TIP3    H137108   2.452   0.694   2.449 -0.5633 -0.5634 -0.2799
 5231TIP3    H237109   2.305   0.658   2.451 -0.6815 -0.1201 -0.7217
 5232TIP3   OH237110   2.432   1.642   1.466  0.1328  0.6981 -0.3218
 5232TIP3    H137111   2.473   1.686   1.540  0.5254 -0.4572  0.1673
 5232TIP3    H237112   2.340   1.634   1.490  0.4890 -0.8919  0.6956
 5233TIP3   OH237113   3.605   1.091  15.600 -0.0202 -0.3169 -0.2821
 5233TIP3    H137114   3.543   1.160  15.576 -1.5871 -0.4053  3.0003
 5233TIP3    H237115   3.666   1.134  15.660  0.6631 -1.1617 -0.3606
 5234TIP3   OH237116   0.925   3.842   5.108  0.1889  0.3097 -0.2474
 5234TIP3    H137117   0.949   3.934   5.093  2.3574 -0.3390 -1.1796
 5234TIP3    H237118   0.844   3.846   5.158  0.6301  2.7428  0.3909
 5235TIP3   OH237119   4.367   5.665   4.900 -0.3365  0.3913  0.0997
 5235TIP3    H137120   4.405   5.583   4.933  0.4961  1.5697  2.1968
 5235TIP3    H237121   4.352   5.647   4.807  0.3734 -1.9394  0.3535
 5236TIP3   OH237122   1.357   4.176   2.750  0.7488  0.8596  0.2823
 5236TIP3    H137123   1.422   4.115   2.783  0.9958  1.3551  0.7313
 5236TIP3    H237124   1.310   4.127   2.683  1.8615  0.6305 -0.3533
 5237TIP3   OH237125   0.576   2.364  12.968 -0.0061 -0.2188  0.3761
 5237TIP3    H137126   0.609   2.278  12.945  0.6141  0.3220 -0.8525
 5237TIP3    H237127   0.632   2.425  12.921 -2.7477  0.7450 -1.9307
 5238TIP3   OH237128   4.766   1.365   5.172 -0.6329  0.4170  0.9894
 5238TIP3    H137129   4.734   1.275   5.165 -0.1732  0.2956  0.3646
 5238TIP3    H237130   4.829   1.362   5.245  0.7546 -0.1989 -0.1873
 5239TIP3   OH237131   0.585   1.391  13.858 -0.1606  0.1674  0.4604
 5239TIP3    H137132   0.564   1.299  13.872  1.4721 -0.0973  1.3303
 5239TIP3    H237133   0.555   1.435  13.937 -1.4544  0.5028 -0.1877
 5240TIP3   OH237134   4.608   2.659   6.012 -0.0291  0.2334  0.2031
 5240TIP3    H137135   4.572   2.601   6.079 -0.1896  0.5377  0.3866
 5240TIP3    H237136   4.647   2.732   6.061 -1.0986  1.0038 -0.0505
 5241TIP3   OH237137   2.488   4.477  14.243 -0.1228 -0.0421  0.0793
 5241TIP3    H137138   2.425   4.513  14.305 -0.7271  0.5910 -0.8823
 5241TIP3    H237139   2.440   4.470  14.161  0.0543 -2.7587  0.1114
 5242TIP3   OH237140   2.333   1.474   5.336 -0.0483 -0.2124 -0.4191
 5242TIP3    H137141   2.344   1.387   5.374 -2.5141 -0.8733 -1.0472
 5242TIP3    H237142   2.344   1.535   5.409 -3.0223 -1.3555  1.1047
 5243TIP3   OH237143   3.517   4.423  11.429 -0.0567 -0.4099 -0.0384
 5243TIP3    H137144   3.439   4.418  11.374 -0.0158  0.2086 -0.1648
 5243TIP3    H237145   3.486   4.462  11.511 -0.2867 -2.0918  0.7227
 5244TIP3   OH237146   5.651   3.962   2.251 -1.0880  0.2516  0.2622
 5244TIP3    H137147   5.612   3.982   2.166  0.5865  3.0921  0.0087
 5244TIP3    H237148   5.600   4.014   2.314  0.2100  1.5203  0.3365
 5245TIP3   OH237149   5.570   0.427  11.769  0.3876 -0.0445  0.9572
 5245TIP3    H137150   5.663   0.417  11.747  0.3992  0.7702  0.6100
 5245TIP3    H237151   5.567   0.417  11.864  0.5821 -1.8033  0.8103
 5246TIP3   OH237152   0.873   5.736   0.251 -0.0260  0.4431 -0.4502
 5246TIP3    H137153   0.782   5.752   0.229  0.5496  1.2971 -2.4470
 5246TIP3    H237154   0.919   5.815   0.223  1.4519 -0.3047 -0.2731
 5247TIP3   OH237155   3.400   3.625   3.893  0.2304 -0.1581  0.2732
 5247TIP3    H137156   3.438   3.702   3.935  0.3865 -0.8521  1.4408
 5247TIP3    H237157   3.308   3.625   3.919 -0.2900  0.7328 -1.3966
 5248TIP3   OH237158   3.592   2.692  13.442  0.2688  0.0846  0.0542
 5248TIP3    H137159   3.499   2.712  13.454 -0.0037  1.8515 -3.5947
 5248TIP3    H237160   3.637   2.764  13.485 -0.0193 -0.6294  1.5993
 5249TIP3   OH237161   2.204   6.476  12.662  0.3188  0.1848  0.2208
 5249TIP3    H137162   2.172   6.511  12.745 -1.2246 -0.0366 -0.2426
 5249TIP3    H237163   2.259   6.545  12.625 -2.2132  1.9899 -0.4315
 5250TIP3   OH237164   3.298   0.430   2.716 -0.1260  0.0527 -0.2907
 5250TIP3    H137165   3.322   0.471   2.800  1.0665  1.1103 -1.1051
 5250TIP3    H237166   3.262   0.345   2.740 -0.8096  0.7722  1.3567
 5251TIP3   OH237167   0.413   2.106  16.847  0.4868 -0.1540  0.2436
 5251TIP3    H137168   0.459   2.031  16.886  2.8646  1.2501  0.3147
 5251TIP3    H237169   0.387   2.159  16.921  1.8355  0.7325  0.1196
 5252TIP3   OH237170   2.642   2.290   0.780 -0.8695  0.1895 -0.3730
 5252TIP3    H137171   2.594   2.342   0.845  1.0838  0.6011  0.8467
 5252TIP3    H237172   2.733   2.290   0.813  0.4235  1.2069 -3.5798
 5253TIP3   OH237173   2.602   4.495   6.088  0.0821  1.0438  0.6343
 5253TIP3    H137174   2.669   4.437   6.051  1.7325  2.7073  0.8570
 5253TIP3    H237175   2.575   4.550   6.015 -1.0927  0.3739  0.5460
 5254TIP3   OH237176   5.658   5.483  14.227 -0.1514  0.7280 -0.8205
 5254TIP3    H137177   5.718   5.550  14.259  0.4577  0.5562 -1.5576
 5254TIP3    H237178   5.583   5.487  14.286 -0.0057  1.8723 -0.6974
 5255TIP3   OH237179   4.439   0.767  14.797  0.3048 -0.7603  0.0694
 5255TIP3    H137180   4.490   0.824  14.855  0.6891 -0.6335 -0.3808
 5255TIP3    H237181   4.356   0.813  14.785  0.2132 -0.8035  0.5437
 5256TIP3   OH237182   0.439   2.205   2.211 -0.1209  0.1170  0.9890
 5256TIP3    H137183   0.510   2.145   2.188 -0.5156 -0.0706  0.2544
 5256TIP3    H237184   0.424   2.256   2.132 -1.7806 -0.8302  0.6403
 5257TIP3   OH237185   5.546   4.959  16.491  0.2368  0.3358 -0.2847
 5257TIP3    H137186   5.476   4.989  16.434 -0.5913 -0.5997  0.2127
 5257TIP3    H237187   5.585   4.885  16.445 -1.3052 -1.2983  0.8750
 5258TIP3   OH237188   0.984   5.117   0.576  0.6793 -0.6719 -0.6106
 5258TIP3    H137189   0.897   5.130   0.613  0.5823 -0.8637 -0.7741
 5258TIP3    H237190   0.976   5.041   0.518  0.6585  0.0476 -1.5809
 5259TIP3   OH237191   0.900   5.414   5.945  0.3121  0.0060  0.2069
 5259TIP3    H137192   0.956   5.373   5.880  1.0658  0.0800  0.8018
 5259TIP3    H237193   0.959   5.437   6.016 -0.1922  1.6050  0.1312
 5260TIP3   OH237194   1.847   1.197   4.855 -0.0376  0.1842  0.7010
 5260TIP3    H137195   1.850   1.273   4.913  1.8892 -0.5458  1.6482
 5260TIP3    H237196   1.854   1.121   4.913 -0.9550 -0.7147 -0.2930
 5261TIP3   OH237197   0.842   2.297   3.470  1.1486  0.6301  0.1410
 5261TIP3    H137198   0.754   2.319   3.499  0.8873  0.7022 -0.6821
 5261TIP3    H237199   0.883   2.256   3.547  0.2839  0.2672  0.4201
 5262TIP3   OH237200   1.306   4.557   5.721 -0.1713 -0.3512  0.2525
 5262TIP3    H137201   1.308   4.490   5.790  1.6917 -0.3985  0.1874
 5262TIP3    H237202   1.397   4.568   5.695 -0.7108  0.5262 -1.4036
 5263TIP3   OH237203   5.975   4.075  15.584 -0.5828 -0.0218 -0.1889
 5263TIP3    H137204   5.913   4.147  15.570  0.5715  0.7130 -1.8185
 5263TIP3    H237205   6.031   4.105  15.656 -0.1990  0.6688 -0.7622
 5264TIP3   OH237206   5.680   6.483  14.359 -0.4296 -0.6036  0.2648
 5264TIP3    H137207   5.618   6.452  14.424 -1.0843  0.7239  0.2988
 5264TIP3    H237208   5.627   6.504  14.282 -0.0830  0.7151  0.3513
 5265TIP3   OH237209   5.583   3.785  11.076 -0.1133 -0.1519  0.3800
 5265TIP3    H137210   5.594   3.878  11.093  0.6047 -0.0386 -0.5744
 5265TIP3    H237211   5.552   3.780  10.986  0.4186 -0.8475  0.2205
 5266TIP3   OH237212   1.866   4.455   2.101 -0.4278  0.0112  0.5668
 5266TIP3    H137213   1.811   4.449   2.179 -0.2605 -0.1172  0.6764
 5266TIP3    H237214   1.813   4.502   2.037 -0.8511 -0.5509  0.5013
 5267TIP3   OH237215   3.523   4.600  13.222  0.0527 -0.0618 -0.5858
 5267TIP3    H137216   3.438   4.573  13.255 -0.1449  1.5564  0.2832
 5267TIP3    H237217   3.585   4.537  13.261 -0.2573  1.2862  2.3428
 5268TIP3   OH237218   2.486   3.891   0.474 -0.2456  0.5938  0.1335
 5268TIP3    H137219   2.452   3.822   0.530 -0.2152 -0.0031 -0.5671
 5268TIP3    H237220   2.531   3.951   0.534  1.1274 -0.8340  0.6002
 5269TIP3   OH237221   6.770   2.920  13.242  0.4495  0.0640  0.2385
 5269TIP3    H137222   6.772   2.846  13.182 -0.8992  1.1703 -1.2532
 5269TIP3    H237223   6.781   2.881  13.329  0.5629 -1.7808 -0.5553
 5270TIP3   OH237224   3.926   1.668  15.696  0.1410  0.0827 -0.4782
 5270TIP3    H137225   3.994   1.723  15.733  1.1796 -0.1205 -2.0102
 5270TIP3    H237226   3.845   1.717  15.710  0.7617  0.9454  0.1638
 5271TIP3   OH237227   5.485   1.568   0.606  0.4424  0.0127  0.4730
 5271TIP3    H137228   5.542   1.603   0.538  1.1362  0.0649  1.0660
 5271TIP3    H237229   5.491   1.473   0.597  2.4735 -0.0773  1.9615
 5272TIP3   OH237230   6.123   4.409  10.274 -0.2223 -0.0000 -0.0069
 5272TIP3    H137231   6.208   4.420  10.317  0.4188 -0.0312 -1.2231
 5272TIP3    H237232   6.090   4.498  10.265 -0.4924 -0.0102  0.7743
 5273TIP3   OH237233   1.005   5.224  14.434  0.2576 -0.3055 -0.1675
 5273TIP3    H137234   1.070   5.293  14.418 -0.1661  0.1468  0.0630
 5273TIP3    H237235   0.973   5.241  14.522  0.7576 -1.3050  0.2225
 5274TIP3   OH237236   2.129   0.955  16.311  0.3274  0.3827 -0.2897
 5274TIP3    H137237   2.186   0.957  16.388 -0.8219  0.2818  0.5936
 5274TIP3    H237238   2.101   0.864  16.304 -2.6086  0.9827  1.5617
 5275TIP3   OH237239   0.467   5.200   3.610 -0.2810  0.3948 -0.1349
 5275TIP3    H137240   0.459   5.280   3.661  1.1608 -0.1788  1.0781
 5275TIP3    H237241   0.444   5.130   3.672 -1.6854 -0.1414 -1.2173
 5276TIP3   OH237242   0.174   2.236  13.616  0.1258  0.5147  0.2883
 5276TIP3    H137243   0.266   2.220  13.597 -0.0467  0.3969 -0.4671
 5276TIP3    H237244   0.133   2.246  13.530 -0.5606  0.5922  0.6195
 5277TIP3   OH237245   4.468   1.370  14.653 -1.0619  0.3679  0.2254
 5277TIP3    H137246   4.521   1.360  14.732 -2.3702 -2.3691  0.8781
 5277TIP3    H237247   4.399   1.431  14.678 -2.9220 -2.2995  2.1672
 5278TIP3   OH237248   2.225   0.163  12.682 -0.5683  0.2709 -0.2084
 5278TIP3    H137249   2.270   0.233  12.635 -0.7413  1.4883  1.3463
 5278TIP3    H237250   2.141   0.202  12.707 -0.4834 -0.3257  1.0629
 5279TIP3   OH237251   2.577   6.276   1.603  0.4891 -0.7139  0.1658
 5279TIP3    H137252   2.648   6.339   1.591 -0.4852  0.3891 -0.0562
 5279TIP3    H237253   2.591   6.239   1.690  0.9849 -0.0474  0.3791
 5280TIP3   OH237254   5.290   0.726  10.954  0.2317 -0.0210 -0.9477
 5280TIP3    H137255   5.228   0.797  10.972  1.8108  0.8646  1.6453
 5280TIP3    H237256   5.236   0.649  10.941 -1.4487  0.6531  1.4330
 5281TIP3   OH237257   6.176   4.213  14.811 -0.0542 -0.3033 -0.1268
 5281TIP3    H137258   6.131   4.256  14.738  0.1302  0.0407 -0.0415
 5281TIP3    H237259   6.150   4.265  14.887 -1.1985 -1.3607  0.2374
 5282TIP3   OH237260   3.052   0.643  12.175  0.0406 -0.1818  0.0765
 5282TIP3    H137261   3.044   0.583  12.249  0.5317 -1.9832 -1.2762
 5282TIP3    H237262   2.967   0.686  12.169 -1.4913 -3.1068 -0.8159
 5283TIP3   OH237263   0.103   6.411   0.486 -0.0748  0.4872 -0.1894
 5283TIP3    H137264   0.009   6.409   0.465 -0.2405  0.6915  0.5127
 5283TIP3    H237265   0.146   6.418   0.401 -0.6783 -0.0998 -0.5525
 5284TIP3   OH237266   0.923   3.758  15.708  0.8597 -0.6131 -0.5536
 5284TIP3    H137267   0.955   3.707  15.783  1.4690  1.6652  0.8094
 5284TIP3    H237268   0.985   3.738  15.638  1.4530 -1.2387  0.1235
 5285TIP3   OH237269   6.611   3.726   0.817  0.2347  0.3063  0.1841
 5285TIP3    H137270   6.591   3.820   0.821 -2.4786 -0.2244  1.7769
 5285TIP3    H237271   6.688   3.715   0.872 -0.6975  1.3741  1.7669
 5286TIP3   OH237272   5.494   4.013  15.987 -0.0497 -0.0633  0.0977
 5286TIP3    H137273   5.469   4.062  15.909  0.2081  3.0828  1.8040
 5286TIP3    H237274   5.581   4.048  16.010 -0.2094 -0.7224  1.8890
 5287TIP3   OH237275   1.232   0.214  11.756 -0.0635 -0.2203 -0.4051
 5287TIP3    H137276   1.146   0.205  11.794 -0.2251  1.8001 -0.1760
 5287TIP3    H237277   1.241   0.138  11.698 -2.7278  0.4406 -1.8257
 5288TIP3   OH237278   6.478   6.207  14.269 -0.3620  0.3418  0.1943
 5288TIP3    H137279   6.440   6.279  14.317 -1.8141  0.2480 -0.7399
 5288TIP3    H237280   6.430   6.130  14.299 -2.2260  0.4449 -2.2211
 5289TIP3   OH237281   0.303   3.800  13.183  0.6939 -0.0437 -0.7657
 5289TIP3    H137282   0.350   3.737  13.128  0.1485 -0.8341 -0.3339
 5289TIP3    H237283   0.324   3.885  13.144 -0.2942 -0.6242 -2.6897
 5290TIP3   OH237284   2.670   1.213  12.010 -0.3172  0.3593  0.1008
 5290TIP3    H137285   2.631   1.300  12.003 -0.5571  0.2292 -0.2087
 5290TIP3    H237286   2.727   1.218  12.086 -0.2267  0.8297  0.0041
 5291TIP3   OH237287   3.086   6.785  15.750  0.0824 -0.2275 -0.6433
 5291TIP3    H137288   3.113   6.762  15.661  1.4475  1.9363 -0.8663
 5291TIP3    H237289   3.153   6.845  15.781 -0.4330 -0.8069  1.8415
 5292TIP3   OH237290   0.323   2.981  12.811  0.1464 -0.4792  0.2190
 5292TIP3    H137291   0.372   2.920  12.867  1.8087  0.0960 -0.5559
 5292TIP3    H237292   0.242   2.934  12.791  0.4495 -1.5575  1.3570
 5293TIP3   OH237293   4.907   1.243   2.632  0.1841  0.7822 -0.2807
 5293TIP3    H137294   4.972   1.305   2.597 -1.5786  1.9660 -1.6264
 5293TIP3    H237295   4.857   1.293   2.695 -0.1021  0.1685 -0.0098
 5294TIP3   OH237296   3.403   5.722  11.681  0.2064  0.0991  0.4099
 5294TIP3    H137297   3.340   5.730  11.753 -0.0016  0.9095  0.1467
 5294TIP3    H237298   3.378   5.790  11.619 -0.2423 -1.2447 -0.9360
 5295TIP3   OH237299   0.332   3.818   1.863  0.6002  0.0713 -0.4577
 5295TIP3    H137300   0.400   3.886   1.861  1.4108 -0.7057  0.1834
 5295TIP3    H237301   0.271   3.844   1.793  1.3252  1.0075 -0.7726
 5296TIP3   OH237302   4.260   4.092  12.548  0.0006 -0.8173 -0.2904
 5296TIP3    H137303   4.191   4.132  12.601  1.1265  0.0272  0.5988
 5296TIP3    H237304   4.216   4.021  12.501 -2.0379  1.1793 -1.6428
 5297TIP3   OH237305   6.096   0.936  10.401  0.2710  0.3509  0.0734
 5297TIP3    H137306   6.091   1.029  10.420  1.8522  0.7590 -1.2779
 5297TIP3    H237307   6.188   0.914  10.411  0.4521 -0.3808 -2.4587
 5298TIP3   OH237308   3.234   3.157  13.398 -0.3507  0.5495 -0.0832
 5298TIP3    H137309   3.260   3.087  13.459 -0.9773 -0.5426 -1.0175
 5298TIP3    H237310   3.169   3.208  13.446  0.0581  0.4444  0.5921
 5299TIP3   OH237311   6.031   4.224   5.185  0.4878  0.0288 -0.5449
 5299TIP3    H137312   5.957   4.174   5.220  0.7177  1.0824  1.5669
 5299TIP3    H237313   6.103   4.161   5.182 -0.2746 -0.8143 -1.9259
 5300TIP3   OH237314   0.311   0.158   3.735 -0.7116 -0.0321  0.3966
 5300TIP3    H137315   0.349   0.236   3.774 -2.1412  0.9952 -0.1808
 5300TIP3    H237316   0.229   0.144   3.784 -0.1949 -1.5553  0.9046
 5301TIP3   OH237317   4.909   4.069   1.833 -0.3002 -0.1479 -0.1349
 5301TIP3    H137318   4.899   4.139   1.898  0.4735 -1.6429  1.6893
 5301TIP3    H237319   4.836   4.010   1.850  0.7479 -1.3228  0.4206
 5302TIP3   OH237320   2.427   0.024  11.564 -0.3285 -0.3765  0.0971
 5302TIP3    H137321   2.383   0.095  11.611  2.9840  1.3097  0.9128
 5302TIP3    H237322   2.487   0.069  11.504  2.4137 -2.3979  1.1393
 5303TIP3   OH237323   5.695   5.022   3.519  0.3543 -0.1474  0.2013
 5303TIP3    H137324   5.600   5.034   3.526  0.3804  0.0192  0.2892
 5303TIP3    H237325   5.706   4.948   3.460  0.2024  1.3327 -1.7893
 5304TIP3   OH237326   2.061   6.222   5.870  0.2428 -0.1930  0.2020
 5304TIP3    H137327   2.046   6.220   5.964 -0.8746 -1.2673  0.0151
 5304TIP3    H237328   2.121   6.296   5.857  0.7370 -0.2846  1.7879
 5305TIP3   OH237329   4.451   2.588   1.827 -0.2356 -0.5746  0.0290
 5305TIP3    H137330   4.359   2.561   1.825 -1.1095  1.9951 -2.2670
 5305TIP3    H237331   4.483   2.571   1.738  1.0536 -0.0011  0.3545
 5306TIP3   OH237332   1.763   1.560  14.248 -0.1819  0.2105  0.0566
 5306TIP3    H137333   1.808   1.481  14.217 -0.2837  0.0710  0.2621
 5306TIP3    H237334   1.677   1.529  14.276 -1.0120  0.7123 -1.7636
 5307TIP3   OH237335   5.765   4.421   3.407  0.1186  0.5602 -0.5104
 5307TIP3    H137336   5.829   4.368   3.359 -0.1083  2.3005 -2.8906
 5307TIP3    H237337   5.809   4.504   3.422 -0.1513  0.3704  1.6051
 5308TIP3   OH237338   1.339   0.844  12.974  0.4451 -0.5023 -0.3687
 5308TIP3    H137339   1.427   0.809  12.986  0.1450 -1.2807 -0.3858
 5308TIP3    H237340   1.351   0.939  12.971  1.3900 -0.6305 -1.2551
 5309TIP3   OH237341   5.249   0.988  14.407 -0.3420  0.4995 -0.3246
 5309TIP3    H137342   5.329   1.013  14.454 -0.0525  0.3320 -0.7175
 5309TIP3    H237343   5.273   0.994  14.315 -0.5414 -0.3222 -0.4378
 5310TIP3   OH237344   5.183   5.414  10.658 -0.2986  0.2483 -0.0583
 5310TIP3    H137345   5.196   5.507  10.677 -1.4152  0.3331  0.3209
 5310TIP3    H237346   5.271   5.376  10.666  0.3184  1.4117 -1.0765
 5311TIP3   OH237347   3.836   4.847  17.027 -0.0615 -0.4181 -0.7625
 5311TIP3    H137348   3.855   4.853  16.934  0.1814  1.3552 -0.6312
 5311TIP3    H237349   3.876   4.764  17.055 -0.2485 -1.0313 -2.2361
 5312TIP3   OH237350   3.442   3.581  11.483 -0.0056  0.1418 -0.0631
 5312TIP3    H137351   3.536   3.588  11.493  0.0910 -0.4702 -0.4754
 5312TIP3    H237352   3.421   3.636  11.408  0.5793 -2.6726 -2.4916
 5313TIP3   OH237353   6.593   5.671  14.752 -0.8657 -0.0289  0.0712
 5313TIP3    H137354   6.547   5.713  14.824  0.6450  1.2408  0.3462
 5313TIP3    H237355   6.684   5.667  14.780 -0.6518 -1.8009 -0.7553
 5314TIP3   OH237356   4.911   4.205  12.073  0.0414 -0.5213 -0.1117
 5314TIP3    H137357   4.834   4.247  12.112  0.3045  0.8053 -0.9754
 5314TIP3    H237358   4.981   4.221  12.136  0.8767  3.1054 -1.7228
 5315TIP3   OH237359   5.745   5.722   3.547 -0.2205 -0.0165  0.3520
 5315TIP3    H137360   5.714   5.724   3.457  0.2621  0.0478  0.1868
 5315TIP3    H237361   5.665   5.732   3.600 -0.6878 -1.4084 -0.0345
 5316TIP3   OH237362   0.391   5.886   2.348  1.0350  0.1113  0.3582
 5316TIP3    H137363   0.427   5.815   2.402 -2.0301 -0.1366  2.3472
 5316TIP3    H237364   0.354   5.948   2.411  0.2528  1.5455 -1.4139
 5317TIP3   OH237365   4.024   0.433   3.443  0.1822  0.0723 -0.5301
 5317TIP3    H137366   4.110   0.392   3.441  1.1080  1.9190 -0.6235
 5317TIP3    H237367   4.042   0.527   3.449 -1.8237  0.5655 -1.3816
 5318TIP3   OH237368   5.667   5.824  14.320 -0.2410 -0.0332  0.4577
 5318TIP3    H137369   5.711   5.825  14.235  0.0636 -1.1891  0.5877
 5318TIP3    H237370   5.717   5.763  14.373 -0.1402  1.0331  1.6434
 5319TIP3   OH237371   3.926   4.186   3.000  0.0520  0.4887  0.1989
 5319TIP3    H137372   3.936   4.104   2.951  0.1088  0.0786  0.8835
 5319TIP3    H237373   4.012   4.227   2.995  0.3237  0.0059  0.7150
 5320TIP3   OH237374   4.883   2.377   5.269 -0.0053 -0.5218 -0.0276
 5320TIP3    H137375   4.869   2.434   5.193 -0.2527 -0.1922  0.2566
 5320TIP3    H237376   4.906   2.437   5.340 -0.1766 -0.7823  0.2540
 5321TIP3   OH237377   0.062   3.259   6.532 -0.0840  0.3836  0.4388
 5321TIP3    H137378   0.156   3.266   6.546  0.4060 -0.7930 -1.8573
 5321TIP3    H237379   0.044   3.165   6.537 -1.0917  0.5701  0.5152
 5322TIP3   OH237380   6.434   3.418   5.693 -0.0687 -0.0814  0.3722
 5322TIP3    H137381   6.342   3.399   5.676 -0.5131  0.1790  2.2649
 5322TIP3    H237382   6.433   3.489   5.757  1.4763  0.5612 -0.2475
 5323TIP3   OH237383   2.757   0.838   0.294  0.2741  0.3023 -0.1688
 5323TIP3    H137384   2.773   0.910   0.355 -0.0047 -0.6514  1.0602
 5323TIP3    H237385   2.795   0.761   0.336 -0.1664 -0.4386 -1.0797
 5324TIP3   OH237386   0.283   6.512   5.024 -0.2293 -0.3961 -0.0728
 5324TIP3    H137387   0.207   6.455   5.035 -0.2029 -0.7234 -1.4840
 5324TIP3    H237388   0.355   6.466   5.068 -0.4333 -0.9613 -0.3309
 5325TIP3   OH237389   6.137   6.326   2.724  0.0580 -0.5721  0.1040
 5325TIP3    H137390   6.057   6.371   2.696 -1.1177 -0.4702  3.1693
 5325TIP3    H237391   6.106   6.241   2.754  0.4945  0.4301  3.8966
 5326TIP3   OH237392   2.692   5.152  15.779 -0.0134 -0.2878  0.0203
 5326TIP3    H137393   2.632   5.226  15.789  2.1161  1.7167 -0.8963
 5326TIP3    H237394   2.667   5.112  15.696 -0.5066  0.1243 -0.0360
 5327TIP3   OH237395   6.509   0.644  11.410  0.2936 -0.4993  0.2364
 5327TIP3    H137396   6.592   0.680  11.379 -0.0968 -1.4921 -2.2306
 5327TIP3    H237397   6.505   0.669  11.502  3.0831 -0.0021  0.3256
 5328TIP3   OH237398   3.648   2.822   3.260  0.4169  0.4361 -0.3944
 5328TIP3    H137399   3.684   2.905   3.228  0.9334 -0.1771 -1.4877
 5328TIP3    H237400   3.642   2.832   3.355  0.4689  1.7169 -0.5179
 5329TIP3   OH237401   3.934   1.796  10.603 -0.2951  0.5163  0.5724
 5329TIP3    H137402   3.953   1.771  10.693  0.7284  0.1673  0.2728
 5329TIP3    H237403   3.964   1.886  10.596  1.7125 -0.1424  0.0043
 5330TIP3   OH237404   2.788   1.485  15.470 -0.7021 -0.1527  0.0993
 5330TIP3    H137405   2.817   1.481  15.561  0.1676  1.3982 -0.0776
 5330TIP3    H237406   2.805   1.398  15.436  1.9277  0.0726  0.5879
 5331TIP3   OH237407   0.576   4.304  15.819 -0.1642  0.1749 -0.7307
 5331TIP3    H137408   0.672   4.307  15.821 -0.1975  1.6860  0.0146
 5331TIP3    H237409   0.552   4.244  15.890  0.2104  1.1177  0.2114
 5332TIP3   OH237410   3.121   1.721  11.998 -0.2599 -0.2339  0.5831
 5332TIP3    H137411   3.125   1.642  11.944  1.4010  0.0711  0.1911
 5332TIP3    H237412   3.147   1.692  12.085 -2.5412 -0.6481  1.1711
 5333TIP3   OH237413   4.340   4.486   2.207  0.5478 -0.6695 -0.2859
 5333TIP3    H137414   4.383   4.400   2.204  0.4628 -0.6854 -1.7593
 5333TIP3    H237415   4.306   4.498   2.118  0.2772  0.7461 -0.0012
 5334TIP3   OH237416   4.643   4.860  11.785 -0.3300  0.3841 -0.4245
 5334TIP3    H137417   4.576   4.893  11.725 -1.1794  0.5919  0.6161
 5334TIP3    H237418   4.613   4.774  11.811 -0.6802  0.8417  0.7516
 5335TIP3   OH237419   0.252   3.493  15.475  0.3455  0.2460  0.2698
 5335TIP3    H137420   0.304   3.536  15.542 -0.3216 -1.0054  1.6553
 5335TIP3    H237421   0.253   3.400  15.499  0.4683 -0.3313 -1.7362
 5336TIP3   OH237422   2.776   6.550   2.304  0.2528  0.3286  0.2333
 5336TIP3    H137423   2.721   6.544   2.382 -0.0373 -1.0809 -0.0469
 5336TIP3    H237424   2.864   6.532   2.336  0.4609  1.8714  0.5663
 5337TIP3   OH237425   5.963   1.523   1.156  0.1111  0.3898  0.2748
 5337TIP3    H137426   5.891   1.574   1.193 -0.5452  0.6345 -1.2784
 5337TIP3    H237427   6.015   1.587   1.107  0.1889 -0.1553 -0.3653
 5338TIP3   OH237428   4.226   3.431  12.477 -0.0596  0.2317  0.3761
 5338TIP3    H137429   4.131   3.445  12.486 -0.2926 -1.3184  0.6753
 5338TIP3    H237430   4.264   3.483  12.548 -0.6930  0.7501  0.3495
 5339TIP3   OH237431   2.060   5.800   0.789 -0.0383 -0.3834 -0.1898
 5339TIP3    H137432   2.139   5.831   0.832 -0.8975 -0.5558  1.6581
 5339TIP3    H237433   2.090   5.739   0.722  1.3907 -0.8532  0.8332
 5340TIP3   OH237434   6.287   5.034   5.936 -0.2567 -0.0569 -0.6618
 5340TIP3    H137435   6.375   5.009   5.906 -0.1644 -1.1660  0.4788
 5340TIP3    H237436   6.296   5.127   5.959  1.3795 -0.7411  1.9336
 5341TIP3   OH237437   6.777   4.176   1.751  0.1670  0.1172  0.2709
 5341TIP3    H137438   6.831   4.241   1.707 -0.7719  0.7771  0.0786
 5341TIP3    H237439   6.817   4.092   1.728  0.6181  0.5473 -0.5497
 5342TIP3   OH237440   6.701   3.636   4.442 -0.0516 -0.3790 -0.1258
 5342TIP3    H137441   6.722   3.727   4.461  1.5975 -0.9597  1.0681
 5342TIP3    H237442   6.635   3.612   4.506  0.0884 -0.2431  0.0686
 5343TIP3   OH237443   5.626   4.463  16.563  0.0718 -0.2272 -0.6074
 5343TIP3    H137444   5.609   4.512  16.643 -0.0191  1.8773 -1.8343
 5343TIP3    H237445   5.720   4.448  16.563  0.3455  1.3064 -0.8916
 5344TIP3   OH237446   0.971   1.382   1.113  0.5269 -0.4332 -0.1989
 5344TIP3    H137447   0.933   1.412   1.196 -1.5308  0.1232 -1.2693
 5344TIP3    H237448   0.896   1.376   1.054  2.1908  1.3613 -2.6707
 5345TIP3   OH237449   0.544   3.187   2.621 -0.6073  0.1415  0.4557
 5345TIP3    H137450   0.579   3.273   2.599  0.3427 -0.5736 -1.0585
 5345TIP3    H237451   0.453   3.190   2.591 -0.0732  0.0714 -1.3043
 5346TIP3   OH237452   2.101   2.945   4.371  0.0259 -0.4796  0.2158
 5346TIP3    H137453   2.065   2.862   4.403 -1.1302 -0.4816 -0.9980
 5346TIP3    H237454   2.154   2.920   4.295 -1.1507 -0.0693 -0.7944
 5347TIP3   OH237455   5.648   0.451  12.049  0.1824  0.4258 -0.5108
 5347TIP3    H137456   5.718   0.421  12.107 -0.6751  1.1047  0.9433
 5347TIP3    H237457   5.602   0.518  12.100 -2.8741 -1.4704 -0.5299
 5348TIP3   OH237458   0.848   0.736  15.391  0.2174 -0.0638 -0.7879
 5348TIP3    H137459   0.835   0.783  15.473  0.9495  2.2971 -1.9305
 5348TIP3    H237460   0.771   0.680  15.383 -0.3102  0.3341  1.0438
 5349TIP3   OH237461   0.950   1.028  14.392  0.1401 -0.1118  0.0662
 5349TIP3    H137462   1.000   1.110  14.394  0.5247 -0.2527 -1.7015
 5349TIP3    H237463   0.882   1.043  14.327 -0.8212 -0.6560  0.9217
 5350TIP3   OH237464   5.309   2.154   3.286  0.7737 -0.1550 -0.0546
 5350TIP3    H137465   5.331   2.139   3.378 -0.0682 -0.8075  0.0536
 5350TIP3    H237466   5.287   2.247   3.281  0.5354 -0.1793  0.4719
 5351TIP3   OH237467   1.823   6.156   2.585 -0.1113 -0.3258 -0.2765
 5351TIP3    H137468   1.744   6.207   2.567 -0.3217 -0.5464  0.0189
 5351TIP3    H237469   1.811   6.124   2.675  0.1927 -0.5780 -0.3253
 5352TIP3   OH237470   0.026   0.510  15.521 -0.3553 -0.3746  0.4273
 5352TIP3    H137471   0.088   0.535  15.454  0.6667 -1.9647  0.7139
 5352TIP3    H237472  -0.047   0.572  15.512  1.0274  1.2078 -0.2417
 5353TIP3   OH237473   5.974   5.340   1.874  0.3212 -0.5356  0.4098
 5353TIP3    H137474   5.909   5.291   1.823  0.6547  1.5036 -2.2020
 5353TIP3    H237475   6.057   5.324   1.829  0.7282  0.8888  0.5986
 5354TIP3   OH237476   6.232   2.835  13.577 -0.0102 -0.6033 -0.1805
 5354TIP3    H137477   6.190   2.828  13.663  0.5690 -1.0854  0.0809
 5354TIP3    H237478   6.203   2.919  13.542 -1.5575 -1.1264 -0.2302
 5355TIP3   OH237479   1.658   3.587   0.297  0.0764 -0.2335  0.0824
 5355TIP3    H137480   1.715   3.607   0.372 -0.5186  0.7547  0.2931
 5355TIP3    H237481   1.604   3.514   0.327 -1.5803  1.4487  1.4357
 5356TIP3   OH237482   5.265   6.453   1.394  0.2428 -0.5930 -0.1620
 5356TIP3    H137483   5.320   6.488   1.465 -0.5703 -0.9905  0.6763
 5356TIP3    H237484   5.318   6.383   1.355  0.8911 -0.0499 -0.2798
 5357TIP3   OH237485   0.893   0.002   3.537  0.5566 -0.3958 -0.0967
 5357TIP3    H137486   0.948   0.054   3.595 -0.2397 -0.7576  1.0065
 5357TIP3    H237487   0.882   0.057   3.459  0.7717  0.5471  0.5171
 5358TIP3   OH237488   3.822   3.812  15.297 -0.0765 -0.4364  0.4987
 5358TIP3    H137489   3.782   3.865  15.228 -0.7284 -0.3030  0.9693
 5358TIP3    H237490   3.850   3.732  15.253 -0.5009 -0.3565  0.0809
 5359TIP3   OH237491   5.422   5.013   3.466  0.0390  0.2461 -0.6018
 5359TIP3    H137492   5.339   5.060   3.469 -0.4520 -0.5948  2.3452
 5359TIP3    H237493   5.404   4.930   3.510  1.5936 -1.5759 -3.1314
 5360TIP3   OH237494   3.217   5.973   0.107 -0.3340 -0.2579 -0.6792
 5360TIP3    H137495   3.172   5.959   0.190 -0.2476 -1.6360 -0.8466
 5360TIP3    H237496   3.201   6.065   0.086 -0.4874  0.0677  0.7756
 5361TIP3   OH237497   5.611   1.838  13.130  0.1238  0.3601  0.2846
 5361TIP3    H137498   5.658   1.869  13.208  1.0727  0.3118 -0.2421
 5361TIP3    H237499   5.519   1.858  13.147  0.3445  0.5472  1.3197
 5362TIP3   OH237500   5.196   5.339   2.752  0.2100 -0.0128  0.0949
 5362TIP3    H137501   5.200   5.348   2.847  0.1557 -2.4293  0.3800
 5362TIP3    H237502   5.287   5.330   2.725  0.1723 -0.1847  0.0242
 5363TIP3   OH237503   3.749   3.738  11.251  0.1119 -0.2702  0.0798
 5363TIP3    H137504   3.825   3.779  11.209 -0.8746 -0.7234 -2.3264
 5363TIP3    H237505   3.678   3.802  11.240 -0.2923 -0.6037  0.6786
 5364TIP3   OH237506   6.302   5.483  11.988 -0.0092  0.4485  0.2230
 5364TIP3    H137507   6.378   5.490  12.044  0.6729 -0.0572 -0.6170
 5364TIP3    H237508   6.337   5.457  11.903 -0.8884  2.1820 -0.7365
 5365TIP3   OH237509   2.173   1.053  15.337 -0.0142  0.3036  0.3216
 5365TIP3    H137510   2.250   1.049  15.393  0.2259  0.1503 -0.0192
 5365TIP3    H237511   2.201   1.101  15.259 -0.0858 -0.2840 -0.0748
 5366TIP3   OH237512   0.608   5.456   0.548  0.2542  0.4115 -0.2122
 5366TIP3    H137513   0.513   5.457   0.543  0.2483  2.3008 -0.3452
 5366TIP3    H237514   0.628   5.492   0.635  0.8579  0.1233 -0.2266
 5367TIP3   OH237515   5.189   4.673  14.849 -0.6119 -0.1713 -0.2639
 5367TIP3    H137516   5.110   4.723  14.830  0.5519  1.3826 -1.2592
 5367TIP3    H237517   5.248   4.693  14.776  0.2592 -2.2847 -0.1947
 5368TIP3   OH237518   1.506   3.450   4.290 -0.2906 -0.1821  0.1453
 5368TIP3    H137519   1.424   3.449   4.339  0.1680  0.8196  0.9619
 5368TIP3    H237520   1.480   3.430   4.200 -1.0959 -2.4767  0.8128
 5369TIP3   OH237521   3.204   0.305  14.818 -0.0961 -0.0811 -0.0652
 5369TIP3    H137522   3.240   0.222  14.847  0.6173  0.3349  0.2592
 5369TIP3    H237523   3.189   0.293  14.724 -0.0439 -0.5878 -0.0098
 5370TIP3   OH237524   5.923   2.457  16.761 -0.2026 -0.3092 -0.5644
 5370TIP3    H137525   5.998   2.453  16.821  0.7432  0.5240 -1.6452
 5370TIP3    H237526   5.950   2.520  16.694 -1.9655  0.1544 -0.8701
 5371TIP3   OH237527   1.353   4.489   4.306  0.2465  0.1298  0.3866
 5371TIP3    H137528   1.367   4.427   4.235  1.0277  0.4280  0.2722
 5371TIP3    H237529   1.441   4.514   4.334 -0.0517  1.5237  0.1390
 5372TIP3   OH237530   4.662   0.031  14.003  0.5040  0.7919 -0.4281
 5372TIP3    H137531   4.652   0.120  14.037  0.2584  0.7183 -0.3059
 5372TIP3    H237532   4.660  -0.025  14.081 -0.0611  0.6214 -0.5592
 5373TIP3   OH237533   3.107   4.015  11.798 -0.2753 -0.6006  0.0843
 5373TIP3    H137534   3.142   4.003  11.886 -0.5085  1.0596  0.4313
 5373TIP3    H237535   3.072   4.104  11.797  0.8710 -0.0816 -2.0613
 5374TIP3   OH237536   3.414   0.625  15.096  0.3215 -0.3385 -0.3913
 5374TIP3    H137537   3.328   0.656  15.067  0.3750  2.0169  1.6362
 5374TIP3    H237538   3.476   0.671  15.041  0.3198 -0.6117 -0.6226
 5375TIP3   OH237539   4.483   1.255  15.512  0.3063 -0.1157  0.4682
 5375TIP3    H137540   4.567   1.269  15.469 -0.3191  0.5346 -0.6025
 5375TIP3    H237541   4.501   1.189  15.579  1.5989 -0.2128  0.0613
 5376TIP3   OH237542   2.949   3.964   2.235  0.1535  0.0457  0.1104
 5376TIP3    H137543   2.975   4.049   2.199  2.0848  0.0362  1.3381
 5376TIP3    H237544   2.952   3.977   2.330  0.0362 -1.2842  0.3039
 5377TIP3   OH237545   3.240   0.299   4.998 -0.2971  0.6488 -0.2130
 5377TIP3    H137546   3.265   0.218   4.953  0.3817 -0.3061  1.7724
 5377TIP3    H237547   3.250   0.367   4.931 -0.2351 -0.7863 -1.7562
 5378TIP3   OH237548   6.041   5.814   0.292  0.3610  0.3225 -0.6740
 5378TIP3    H137549   6.038   5.723   0.264 -0.4039  0.5892 -1.5082
 5378TIP3    H237550   6.118   5.851   0.249  0.7763  0.0242 -0.1864
 5379TIP3   OH237551   5.627   3.221   1.751 -0.5541 -0.0584  0.3510
 5379TIP3    H137552   5.534   3.200   1.745 -0.8503  1.4659 -1.2717
 5379TIP3    H237553   5.635   3.267   1.835 -1.5060  0.7682  0.0167
 5380TIP3   OH237554   6.399   2.837   0.817 -0.1238 -0.1942 -0.3436
 5380TIP3    H137555   6.460   2.872   0.882 -1.9860  0.5776  1.0825
 5380TIP3    H237556   6.390   2.744   0.841  1.5161 -0.6872 -1.4572
 5381TIP3   OH237557   3.217   3.407  15.466 -0.6343  0.1918 -0.5558
 5381TIP3    H137558   3.240   3.424  15.557 -0.0216 -1.8503 -0.2810
 5381TIP3    H237559   3.240   3.487  15.420  0.9365  0.5529  0.7770
 5382TIP3   OH237560   2.764   0.966  16.109  0.4931  0.0402 -0.0542
 5382TIP3    H137561   2.840   0.977  16.052  1.4714  2.0306  1.4843
 5382TIP3    H237562   2.731   0.879  16.089  3.7069 -1.2820 -0.1589
 5383TIP3   OH237563   2.539   3.099   5.772  0.0172 -0.0285  0.6113
 5383TIP3    H137564   2.551   3.016   5.726  0.7709 -1.2019  2.7804
 5383TIP3    H237565   2.466   3.082   5.833 -2.3720  2.1219 -1.4437
 5384TIP3   OH237566   6.224   6.329  14.205  0.4326 -0.0378  0.0726
 5384TIP3    H137567   6.257   6.335  14.295  1.5264  1.8718 -0.3884
 5384TIP3    H237568   6.136   6.364  14.210  0.4860  0.0585  0.4027
 5385TIP3   OH237569   6.383   6.621   5.694 -0.3514 -0.0227  0.6782
 5385TIP3    H137570   6.296   6.636   5.656 -0.5938 -0.3004  1.1093
 5385TIP3    H237571   6.374   6.648   5.785 -0.7131 -2.3451  1.4089
 5386TIP3   OH237572   4.545   0.612  15.803 -0.2863 -0.6615  0.7054
 5386TIP3    H137573   4.625   0.665  15.802 -0.1126 -0.9282  0.1417
 5386TIP3    H237574   4.514   0.618  15.894 -0.3607  0.5268  0.6165
 5387TIP3   OH237575   1.104   0.201  15.204 -0.5927  0.0468  0.2992
 5387TIP3    H137576   1.074   0.235  15.289 -0.6803  0.1264  0.2364
 5387TIP3    H237577   1.037   0.137  15.180 -0.0881 -0.6603  0.7316
 5388TIP3   OH237578   4.119   4.813   1.836 -0.8040 -0.1672 -0.0547
 5388TIP3    H137579   4.143   4.756   1.764  0.2917 -0.4246  0.4909
 5388TIP3    H237580   4.091   4.753   1.906 -0.3994 -0.0059  0.2497
 5389TIP3   OH237581   3.864   1.922   1.450  0.3017  0.1210 -0.0064
 5389TIP3    H137582   3.923   1.991   1.418 -1.1219  1.5124  0.2049
 5389TIP3    H237583   3.794   1.919   1.385  0.6687 -1.6355 -0.3544
 5390TIP3   OH237584   3.376   4.359   2.045  0.1335  0.1318  0.0828
 5390TIP3    H137585   3.385   4.425   1.976 -1.7123 -0.1130 -0.4515
 5390TIP3    H237586   3.326   4.402   2.114 -0.8046 -0.5781 -0.1321
 5391TIP3   OH237587   1.195   1.153   0.322 -0.2242 -0.5135 -0.0109
 5391TIP3    H137588   1.137   1.218   0.362  1.6943  1.5113 -0.2808
 5391TIP3    H237589   1.183   1.165   0.228  1.9591  1.4055 -0.1482
 5392TIP3   OH237590   4.502   3.568  14.518  1.4410 -0.1463 -0.2452
 5392TIP3    H137591   4.473   3.525  14.438 -0.8129 -0.1855  0.5314
 5392TIP3    H237592   4.448   3.646  14.526  2.2148  0.3193  0.8091
 5393TIP3   OH237593   1.881   3.906  12.747  0.0011 -0.0172 -0.3168
 5393TIP3    H137594   1.899   3.823  12.702 -0.8782 -1.5017  1.9319
 5393TIP3    H237595   1.955   3.917  12.807  0.3997  1.1694 -0.9815
 5394TIP3   OH237596   0.694   2.065   0.207 -0.3550 -0.1842  0.9491
 5394TIP3    H137597   0.763   2.017   0.253 -2.2942 -2.6951  1.4704
 5394TIP3    H237598   0.626   2.078   0.273 -1.0400  0.8877  0.0730
 5395TIP3   OH237599   3.640   1.680  11.701 -0.4577 -0.1902 -0.8080
 5395TIP3    H137600   3.581   1.647  11.634  0.4855 -3.5579 -0.1417
 5395TIP3    H237601   3.611   1.640  11.783  1.4913 -0.3419 -0.1167
 5396TIP3   OH237602   5.229   1.605  15.332  0.3709  0.4824  0.1006
 5396TIP3    H137603   5.156   1.631  15.388 -0.5277 -0.2621 -0.6754
 5396TIP3    H237604   5.209   1.646  15.247  0.2412 -0.6307 -0.4288
 5397TIP3   OH237605   1.213   2.830   5.878 -0.4805  0.1405 -0.1201
 5397TIP3    H137606   1.278   2.808   5.945  1.0296  2.5302 -0.6622
 5397TIP3    H237607   1.185   2.919   5.899 -0.7416  0.5702 -2.0391
 5398TIP3   OH237608   0.795   3.701   5.618  0.2583 -0.1348  0.0378
 5398TIP3    H137609   0.725   3.699   5.553  1.8464 -1.2915 -1.7735
 5398TIP3    H237610   0.814   3.609   5.635  0.1842  0.1570  1.8509
 5399TIP3   OH237611   1.965   2.786   5.377  0.3512 -0.1091  0.2215
 5399TIP3    H137612   2.059   2.799   5.367  0.1863  0.8310 -0.2223
 5399TIP3    H237613   1.940   2.728   5.306  0.8961 -1.9496  1.4716
 5400TIP3   OH237614   4.158   6.434  15.774  0.0078 -0.2471 -0.1698
 5400TIP3    H137615   4.150   6.359  15.832 -0.9164 -0.6057 -0.7299
 5400TIP3    H237616   4.079   6.486  15.792  1.9445  2.1187  2.2594
 5401TIP3   OH237617   0.843   4.864   5.304 -0.4841 -0.0327  0.0042
 5401TIP3    H137618   0.754   4.859   5.269 -0.9478 -0.5979  1.2102
 5401TIP3    H237619   0.843   4.804   5.379  0.5523  0.8808  0.7751
 5402TIP3   OH237620   3.523   5.354  16.268 -0.1510  0.5479  0.3058
 5402TIP3    H137621   3.463   5.388  16.203 -1.1357  2.8022  2.2575
 5402TIP3    H237622   3.609   5.386  16.241 -0.1691 -0.4459 -1.0392
 5403TIP3   OH237623   2.206   6.007  14.068 -0.4726 -0.2913 -0.5019
 5403TIP3    H137624   2.263   6.057  14.127  1.0952 -0.9607 -1.3873
 5403TIP3    H237625   2.117   6.031  14.095  0.1965  0.3480  1.3182
 5404TIP3   OH237626   2.017   1.038  16.589  1.0238  0.0082  0.3618
 5404TIP3    H137627   2.101   1.029  16.543  0.1058 -1.4696 -1.1225
 5404TIP3    H237628   1.953   0.999  16.530 -0.8655  1.8123  1.0971
 5405TIP3   OH237629   5.809   6.043  15.330 -0.1992 -0.0693  0.1400
 5405TIP3    H137630   5.765   6.127  15.342 -0.5414 -0.2407  0.0975
 5405TIP3    H237631   5.879   6.062  15.268 -1.4363 -0.2010 -1.3516
 5406TIP3   OH237632   3.848   3.804   1.773  0.1951  0.2781  0.4601
 5406TIP3    H137633   3.803   3.863   1.834 -0.7646  0.7782 -0.6929
 5406TIP3    H237634   3.778   3.754   1.733  0.6161  1.1371 -1.4538
 5407TIP3   OH237635   6.472   0.191  12.352  0.3261  0.2770 -0.7718
 5407TIP3    H137636   6.405   0.123  12.346 -0.5842  0.8221  1.8624
 5407TIP3    H237637   6.432   0.267  12.310 -1.1298  0.8042  1.3685
 5408TIP3   OH237638   4.588   5.943   5.621 -0.5497 -0.6981 -0.4023
 5408TIP3    H137639   4.563   6.015   5.680  1.6981 -0.3383  0.2101
 5408TIP3    H237640   4.549   5.967   5.537 -1.6303  0.1417  0.3135
 5409TIP3   OH237641   4.604   4.695   1.870 -0.4599 -0.1643 -0.0430
 5409TIP3    H137642   4.648   4.747   1.937  2.6440 -2.9514  0.3238
 5409TIP3    H237643   4.653   4.713   1.790 -1.8923  0.4161 -0.8245
 5410TIP3   OH237644   2.758   1.826  11.100  0.1730 -0.1731 -0.4928
 5410TIP3    H137645   2.742   1.880  11.177 -0.7143 -2.4278  1.0256
 5410TIP3    H237646   2.841   1.782  11.120 -0.8113 -1.9177 -0.0406
 5411TIP3   OH237647   2.815   1.816   4.645 -0.2773  0.0362 -0.8567
 5411TIP3    H137648   2.799   1.909   4.629  2.0814  0.8698  1.0642
 5411TIP3    H237649   2.846   1.782   4.561  0.0142  1.2867 -1.2759
 5412TIP3   OH237650   2.343   1.322  13.815 -0.8814 -0.4854  0.0294
 5412TIP3    H137651   2.358   1.415  13.835  0.0464 -0.3602 -1.1345
 5412TIP3    H237652   2.250   1.309  13.834 -0.5042  0.0380  2.5337
 5413TIP3   OH237653   5.461   6.026  16.698  0.1614  0.0380  0.3051
 5413TIP3    H137654   5.407   6.063  16.767 -0.9814 -1.4633  0.2588
 5413TIP3    H237655   5.400   6.003  16.628  1.2676  1.3638 -1.1891
 5414TIP3   OH237656   4.400   0.864  11.965  0.1547  0.6603 -0.4599
 5414TIP3    H137657   4.492   0.887  11.980 -0.1130  1.0870  0.6333
 5414TIP3    H237658   4.393   0.774  11.999 -0.0924  1.0627  0.5954
 5415TIP3   OH237659   5.418   3.381  15.148  0.0960 -0.8818  0.4720
 5415TIP3    H137660   5.481   3.344  15.086  0.8833 -0.1123  0.7997
 5415TIP3    H237661   5.469   3.440  15.203 -0.7157 -1.0416  1.4350
 5416TIP3   OH237662   3.349   5.648   1.963 -0.5165  0.2909  0.5944
 5416TIP3    H137663   3.277   5.675   2.021 -0.0710  2.0999  0.3772
 5416TIP3    H237664   3.382   5.730   1.926  2.0790 -0.4173  1.1365
 5417TIP3   OH237665   5.280   2.429  15.003  0.3379 -0.6031  0.1597
 5417TIP3    H137666   5.252   2.407  15.092 -0.8377  1.1244  0.2712
 5417TIP3    H237667   5.365   2.472  15.015  0.0374 -0.0900  0.4941
 5418TIP3   OH237668   5.283   4.914   2.011  0.7565 -0.7907  0.3967
 5418TIP3    H137669   5.339   4.967   2.067  1.0946 -0.7999  0.0746
 5418TIP3    H237670   5.231   4.861   2.072  1.0046 -0.6854  0.7025
 5419TIP3   OH237671   3.470   2.011  12.378 -0.3718 -0.0591 -0.0803
 5419TIP3    H137672   3.513   1.954  12.442  0.9137  1.0545  0.0993
 5419TIP3    H237673   3.466   1.958  12.298  0.6345 -0.4900  0.1338
 5420TIP3   OH237674   4.793   4.869  15.946  0.1546  0.7076  0.2295
 5420TIP3    H137675   4.768   4.867  16.038 -0.7393 -1.0213 -0.0080
 5420TIP3    H237676   4.715   4.836  15.899  0.8991  0.6866 -1.0519
 5421TIP3   OH237677   1.558   2.067   0.494  0.7139 -0.0684  0.0989
 5421TIP3    H137678   1.599   2.150   0.519 -0.0602  0.5284 -0.5457
 5421TIP3    H237679   1.466   2.076   0.519  0.9265 -1.3724  1.4729
 5422TIP3   OH237680   4.615   2.685  10.895  0.2515 -0.0969  0.2249
 5422TIP3    H137681   4.532   2.642  10.873  0.0404  0.9173 -1.1390
 5422TIP3    H237682   4.681   2.617  10.885 -0.2200 -0.4630 -0.4761
 5423TIP3   OH237683   0.057   0.690   2.720 -0.7614  0.4345  0.1828
 5423TIP3    H137684   0.077   0.632   2.646 -3.2709  1.4463 -1.4075
 5423TIP3    H237685   0.130   0.677   2.780  1.3246 -0.6034 -2.3595
 5424TIP3   OH237686   4.294   5.082   4.893 -0.2345 -0.0173 -0.0720
 5424TIP3    H137687   4.209   5.054   4.926 -0.3639  0.4262 -0.0201
 5424TIP3    H237688   4.316   5.019   4.825 -1.3243  0.7435 -1.1784
 5425TIP3   OH237689   1.937   4.622   1.232 -0.3333  0.0529  0.1313
 5425TIP3    H137690   2.008   4.560   1.214 -0.3435  0.1237 -0.1590
 5425TIP3    H237691   1.885   4.580   1.300  1.6906  1.3073  2.6069
 5426TIP3   OH237692   1.131   6.671  16.231 -0.2554 -0.3517 -0.4852
 5426TIP3    H137693   1.091   6.628  16.156  0.9361 -1.1688 -0.6864
 5426TIP3    H237694   1.205   6.615  16.254 -0.6056 -0.1224  1.3158
 5427TIP3   OH237695   0.849   1.041   4.494 -0.2535  0.4977 -0.3933
 5427TIP3    H137696   0.899   0.959   4.496 -1.3235 -0.1944 -1.3016
 5427TIP3    H237697   0.839   1.065   4.586 -1.3090 -1.2618 -0.0123
 5428TIP3   OH237698   0.305   2.902   2.426  0.3834  0.7718  0.7291
 5428TIP3    H137699   0.211   2.889   2.438  0.5192 -1.5109 -0.2042
 5428TIP3    H237700   0.314   2.934   2.336  0.5514  0.1967  0.5401
 5429TIP3   OH237701   0.999   1.916   6.093  0.1145 -0.0578 -0.1737
 5429TIP3    H137702   0.992   1.986   6.158 -0.3211 -1.2142  1.0513
 5429TIP3    H237703   0.922   1.862   6.107 -1.5785  1.1906 -3.5681
 5430TIP3   OH237704   2.830   5.801   0.422  0.5735  0.4728 -0.8301
 5430TIP3    H137705   2.837   5.892   0.448 -1.5005 -0.0466  2.1314
 5430TIP3    H237706   2.739   5.791   0.394 -0.2333 -1.2116  1.9637
 5431TIP3   OH237707   1.781   2.164  16.614  0.1560 -0.1900  0.1290
 5431TIP3    H137708   1.842   2.103  16.572  2.0352  1.3324  0.5227
 5431TIP3    H237709   1.815   2.174  16.703 -0.6925  0.6944  0.3772
 5432TIP3   OH237710   0.537   4.654   0.717  0.4399  0.0853 -0.2219
 5432TIP3    H137711   0.599   4.618   0.653  1.6269  0.3159  0.7508
 5432TIP3    H237712   0.533   4.588   0.786  0.9485  0.8159  0.5315
 5433TIP3   OH237713   5.037   2.398  15.495 -0.5941  0.5489  1.3848
 5433TIP3    H137714   5.121   2.406  15.540  0.9812  0.4214 -1.3332
 5433TIP3    H237715   5.004   2.312  15.523  1.2932 -0.4140  0.8765
 5434TIP3   OH237716   2.129   6.295   4.957  0.2966  0.1531  0.2098
 5434TIP3    H137717   2.106   6.387   4.967 -1.5274 -0.1697 -0.7100
 5434TIP3    H237718   2.119   6.277   4.864 -2.6044 -1.7277  0.7568
 5435TIP3   OH237719   5.501   3.851  16.921 -0.1756 -0.3728  0.6447
 5435TIP3    H137720   5.554   3.854  16.841  0.0927 -2.4367  0.6846
 5435TIP3    H237721   5.414   3.824  16.890 -0.2771 -0.4001  0.9581
 5436TIP3   OH237722   5.491   6.524   4.382  0.7083 -0.3350 -0.7046
 5436TIP3    H137723   5.552   6.451   4.394  1.9316  0.8643  0.8344
 5436TIP3    H237724   5.437   6.524   4.461  1.1049  0.7335 -0.4079
 5437TIP3   OH237725   4.585   1.656  11.490  0.3943  0.4725 -0.0794
 5437TIP3    H137726   4.521   1.658  11.419  1.9720  3.3636 -1.6026
 5437TIP3    H237727   4.632   1.573  11.477 -1.6635 -0.7796 -0.0822
 5438TIP3   OH237728   2.241   5.664  12.437  0.1066 -0.3014  0.0608
 5438TIP3    H137729   2.190   5.732  12.393  1.4995 -0.1972 -1.4936
 5438TIP3    H237730   2.230   5.683  12.530 -1.0781  0.8753 -0.2770
 5439TIP3   OH237731   5.104   3.562   1.467 -0.7036 -0.3650  0.3726
 5439TIP3    H137732   5.023   3.555   1.518  0.2883  0.8399  2.2416
 5439TIP3    H237733   5.172   3.528   1.526  0.9707  3.9029  1.2626
 5440TIP3   OH237734   0.644   2.789  11.617  0.4693  0.0648 -0.0563
 5440TIP3    H137735   0.587   2.755  11.687  0.2796  1.6668  0.6043
 5440TIP3    H237736   0.731   2.789  11.655  0.1785  2.2650  0.7648
 5441TIP3   OH237737   0.200   2.838  11.149  0.4270 -0.5048  0.2834
 5441TIP3    H137738   0.269   2.771  11.147  0.4557 -0.4545 -1.0432
 5441TIP3    H237739   0.122   2.791  11.178  0.4567 -1.1146 -0.5934
 5442TIP3   OH237740   5.067   6.205   3.644  0.1028  0.2564  0.3656
 5442TIP3    H137741   5.073   6.299   3.629  0.7248  0.3418  1.0577
 5442TIP3    H237742   5.144   6.168   3.601  0.7317  0.2622  1.4465
 5443TIP3   OH237743   1.898   2.425  16.756  0.7960  0.4809 -0.2213
 5443TIP3    H137744   1.834   2.491  16.782  0.6025  0.3763 -0.4374
 5443TIP3    H237745   1.922   2.448  16.667  1.4619  0.8371  0.0405
 5444TIP3   OH237746   1.664   4.299  14.955  0.0261 -0.6430 -0.8270
 5444TIP3    H137747   1.726   4.232  14.926 -0.5212 -1.6417  0.2501
 5444TIP3    H237748   1.578   4.260  14.942 -0.2815 -1.3502  2.3385
 5445TIP3   OH237749   1.312   3.442   0.808 -0.0862  0.2709 -0.0962
 5445TIP3    H137750   1.371   3.462   0.735  1.6718 -0.7204  0.9955
 5445TIP3    H237751   1.225   3.441   0.768  0.6934  0.9620 -1.9306
 5446TIP3   OH237752   2.582   4.946   4.241 -0.5180 -0.7268  0.2228
 5446TIP3    H137753   2.570   4.904   4.156 -1.8823  1.9860 -1.0620
 5446TIP3    H237754   2.493   4.963   4.272 -0.0268 -0.3798  1.4906
 5447TIP3   OH237755   3.571   1.692   0.874 -0.2844  0.2252 -0.1035
 5447TIP3    H137756   3.481   1.686   0.844 -0.0262 -2.9869 -0.6568
 5447TIP3    H237757   3.575   1.631   0.948  1.2632  0.9222  0.4322
 5448TIP3   OH237758   4.826   3.504   6.254 -0.2922 -0.3958  0.1438
 5448TIP3    H137759   4.767   3.545   6.317 -0.5653 -0.1276 -0.2806
 5448TIP3    H237760   4.781   3.425   6.226 -0.3807 -0.2709 -0.0657
 5449TIP3   OH237761   6.469   1.862   4.546  0.1576  0.3388  0.1505
 5449TIP3    H137762   6.480   1.773   4.579  0.7204  0.4729  0.3385
 5449TIP3    H237763   6.428   1.910   4.617 -1.2949 -0.0572 -0.3910
 5450TIP3   OH237764   5.469   0.956  12.298 -0.3246  0.2683 -0.3483
 5450TIP3    H137765   5.519   1.033  12.269 -0.1332  0.5221  0.6142
 5450TIP3    H237766   5.408   0.939  12.227  0.7923  0.2580 -1.3403
 5451TIP3   OH237767   6.720   6.760  16.554  0.6707 -0.1912  0.2272
 5451TIP3    H137768   6.669   6.816  16.613  0.5922 -0.8450  0.7869
 5451TIP3    H237769   6.768   6.701  16.612 -0.4373 -1.7467 -0.3730
 5452TIP3   OH237770   1.511   6.630  16.788 -0.2215  0.2596 -0.4260
 5452TIP3    H137771   1.503   6.566  16.858 -0.1523 -0.4585 -1.0616
 5452TIP3    H237772   1.441   6.693  16.804 -0.6236 -0.2673 -0.1013
 5453TIP3   OH237773   4.096   6.605   0.608  0.2900 -0.3459 -0.3660
 5453TIP3    H137774   4.002   6.624   0.607  0.1176 -1.1455 -0.2847
 5453TIP3    H237775   4.130   6.657   0.680 -0.1066 -0.1282 -0.3283
 5454TIP3   OH237776   3.472   4.254  13.822 -0.8915 -0.0699 -0.5932
 5454TIP3    H137777   3.539   4.306  13.777  0.9489  0.3713  2.3657
 5454TIP3    H237778   3.514   4.170  13.839  0.0538  1.0246  3.4580
 5455TIP3   OH237779   2.032   2.510   5.440 -0.0553 -0.0125  0.6096
 5455TIP3    H137780   2.090   2.474   5.373 -2.2996 -1.1154 -0.8540
 5455TIP3    H237781   1.997   2.590   5.401 -2.3603 -1.3218 -0.1937
 5456TIP3   OH237782   0.998   0.650  12.645  0.4926  0.3438  0.6096
 5456TIP3    H137783   0.982   0.738  12.679 -0.7351  1.1713 -1.8283
 5456TIP3    H237784   0.911   0.615  12.628  0.9153  0.6008 -2.8520
 5457TIP3   OH237785   3.958   5.730   2.507 -0.3040  0.3072  0.1996
 5457TIP3    H137786   3.951   5.649   2.455 -2.1507  1.3196 -1.2388
 5457TIP3    H237787   3.996   5.793   2.447  1.5535  0.4535  1.4585
 5458TIP3   OH237788   3.235   0.557   0.303  0.2808 -0.2298  0.3827
 5458TIP3    H137789   3.322   0.545   0.264 -0.9176  1.3321 -3.2267
 5458TIP3    H237790   3.188   0.475   0.282  0.3992 -0.4141  0.8421
 5459TIP3   OH237791   6.572   5.148   0.201 -0.7930  0.4405 -0.1429
 5459TIP3    H137792   6.643   5.089   0.228  0.4769  2.0414  0.1486
 5459TIP3    H237793   6.610   5.236   0.208 -2.0579  1.2206 -2.2851
 5460TIP3   OH237794   3.325   5.376   6.104  0.7675  0.2903  0.1696
 5460TIP3    H137795   3.244   5.402   6.147  0.9009  3.0531 -1.0775
 5460TIP3    H237796   3.378   5.337   6.174 -1.3392 -1.0748  1.1099
 5461TIP3   OH237797   5.952   1.866  16.751  0.1184 -0.5759 -0.0381
 5461TIP3    H137798   5.922   1.815  16.675  1.8973 -2.8714  0.7241
 5461TIP3    H237799   5.888   1.848  16.819  0.3792 -1.2503  0.0269
 5462TIP3   OH237800   5.528   2.820  12.229  0.1087  0.3293  0.5936
 5462TIP3    H137801   5.583   2.897  12.244 -0.4067  0.8761 -0.1779
 5462TIP3    H237802   5.586   2.745  12.237  0.9425  0.8862 -0.0699
 5463TIP3   OH237803   3.904   5.777  13.852  0.1351 -0.2744 -0.4957
 5463TIP3    H137804   3.967   5.833  13.807  1.5953 -1.8093 -0.4882
 5463TIP3    H237805   3.931   5.688  13.829 -0.7017 -1.0368  1.2837
 5464TIP3   OH237806   0.859   2.453   4.213 -0.3910  0.2054 -0.1409
 5464TIP3    H137807   0.777   2.405   4.228  0.5071 -1.5921 -0.6504
 5464TIP3    H237808   0.839   2.512   4.141 -0.7043 -1.7775 -1.7801
 5465TIP3   OH237809   6.789   3.757   1.758  0.0163 -0.0135  0.0449
 5465TIP3    H137810   6.814   3.834   1.809 -1.0634  0.3719  0.0386
 5465TIP3    H237811   6.746   3.699   1.822  0.9316 -0.6733  0.0731
 5466TIP3   OH237812   2.106   6.333   0.822  0.0818 -0.1384 -0.4046
 5466TIP3    H137813   2.061   6.249   0.830  0.6142 -0.4793 -0.9223
 5466TIP3    H237814   2.134   6.353   0.912  1.0238 -1.1210 -0.4553
 5467TIP3   OH237815   0.206   1.645  13.188 -0.4281  0.0087  0.5974
 5467TIP3    H137816   0.196   1.640  13.283  0.2111  0.6016  0.7054
 5467TIP3    H237817   0.301   1.654  13.174 -0.3150 -1.8917 -0.1905
 5468TIP3   OH237818   4.926   3.784   2.990 -0.1812  1.0111 -0.1150
 5468TIP3    H137819   4.910   3.702   3.037 -1.6071  1.4191  0.1694
 5468TIP3    H237820   5.021   3.796   2.994  0.0514 -0.6021 -0.1450
 5469TIP3   OH237821   6.731   0.760   5.439 -0.5261  0.8133  0.8152
 5469TIP3    H137822   6.774   0.690   5.391 -2.4424  0.6208 -0.7292
 5469TIP3    H237823   6.793   0.783   5.508  0.9621 -1.0731  0.1919
 5470TIP3   OH237824   6.544   6.297   6.135  0.3176  0.3685 -0.0207
 5470TIP3    H137825   6.508   6.374   6.091 -0.7110 -0.3846 -0.5279
 5470TIP3    H237826   6.514   6.306   6.226 -1.1996 -0.2484 -0.4354
 5471TIP3   OH237827   0.642   1.243   2.703  0.7579 -0.1761  0.1644
 5471TIP3    H137828   0.637   1.240   2.799 -0.8897  1.5752  0.2000
 5471TIP3    H237829   0.566   1.193   2.674  0.7475  0.0520 -0.2043
 5472TIP3   OH237830   3.105   0.922   4.612  0.6756  0.9700 -0.1656
 5472TIP3    H137831   3.162   0.987   4.654  1.6766 -0.2359  0.4119
 5472TIP3    H237832   3.019   0.937   4.651  0.9937  1.6645  0.2981
 5473TIP3   OH237833   0.232   5.291   5.385  0.0261  0.0919  0.1400
 5473TIP3    H137834   0.242   5.371   5.436  2.2268  0.7078 -1.0892
 5473TIP3    H237835   0.283   5.226   5.433  0.4792  0.1653 -0.2298
 5474TIP3   OH237836   2.304   4.414  13.557  0.6340  0.3050  0.2492
 5474TIP3    H137837   2.279   4.388  13.646  0.8822 -0.6692  0.0514
 5474TIP3    H237838   2.303   4.509  13.558 -0.1798  0.2991  1.0663
 5475TIP3   OH237839   5.935   2.625  14.375 -0.3497  0.0084  0.3837
 5475TIP3    H137840   5.862   2.565  14.356 -0.4287 -0.1309  1.1145
 5475TIP3    H237841   5.915   2.660  14.462  2.1829 -2.6476  2.2124
 5476TIP3   OH237842   3.555   1.400   6.038 -0.1736 -0.9820 -0.3325
 5476TIP3    H137843   3.534   1.402   5.945 -0.6125 -0.5095 -0.2298
 5476TIP3    H237844   3.470   1.407   6.082  0.0665 -0.7028  0.1006
 5477TIP3   OH237845   4.322   6.333   5.313  0.0716 -0.0537 -0.4022
 5477TIP3    H137846   4.327   6.326   5.217  1.4718  1.4132 -0.4792
 5477TIP3    H237847   4.267   6.410   5.328 -0.2684 -0.3689 -0.0096
 5478TIP3   OH237848   0.505   1.929   3.198  0.1383 -0.0390 -0.4453
 5478TIP3    H137849   0.581   1.950   3.253  0.8290 -0.0105 -1.3822
 5478TIP3    H237850   0.435   1.986   3.230  0.4018 -0.3153  0.6674
 5479TIP3   OH237851   2.379   5.861   3.566  0.4017  0.2628  0.3979
 5479TIP3    H137852   2.371   5.939   3.622 -1.3686  1.5165 -1.4682
 5479TIP3    H237853   2.305   5.806   3.592  2.0860 -1.2895  2.2623
 5480TIP3   OH237854   6.035   0.813   1.625 -0.3979  0.7972  0.4648
 5480TIP3    H137855   6.123   0.792   1.595  0.7280  2.3440  2.4405
 5480TIP3    H237856   6.000   0.871   1.557  1.0268  2.0610  0.7708
 5481TIP3   OH237857   1.904   5.032  11.742  0.0365 -0.4027  0.2461
 5481TIP3    H137858   1.827   5.060  11.792  0.3863 -0.9978  1.1499
 5481TIP3    H237859   1.971   5.097  11.763 -0.4379  0.6088 -1.2163
 5482TIP3   OH237860   0.091   0.528  16.303  0.0055 -0.7233 -0.3954
 5482TIP3    H137861   0.038   0.452  16.325 -1.0535 -0.2856 -1.3448
 5482TIP3    H237862   0.065   0.551  16.214  1.7766 -0.4592 -0.8884
 5483TIP3   OH237863   2.807   6.131  13.134  0.3218 -0.3280  0.4245
 5483TIP3    H137864   2.734   6.164  13.082 -0.2377 -0.0658  1.3356
 5483TIP3    H237865   2.768   6.111  13.219  0.8612 -2.3327  0.2460
 5484TIP3   OH237866   0.780   4.591   1.499  1.1713 -0.0411 -0.2588
 5484TIP3    H137867   0.840   4.523   1.469  0.3276 -1.1384  0.4906
 5484TIP3    H237868   0.703   4.583   1.443  0.5485 -0.5698  0.6426
 5485TIP3   OH237869   2.411   0.984   4.451 -0.6908 -0.0832 -0.0735
 5485TIP3    H137870   2.353   0.958   4.523  1.4543  0.8048  2.0967
 5485TIP3    H237871   2.386   1.075   4.433 -1.2069 -0.2942 -0.4379
 5486TIP3   OH237872   2.874   3.271   2.729  0.7380  0.2063 -0.2358
 5486TIP3    H137873   2.862   3.178   2.746  1.1774  0.3212  0.7420
 5486TIP3    H237874   2.932   3.275   2.653  2.1396 -0.3241  0.7704
 5487TIP3   OH237875   5.265   0.585  13.313 -0.7339  0.2060 -0.5682
 5487TIP3    H137876   5.182   0.573  13.359 -1.0403  0.3972 -1.0589
 5487TIP3    H237877   5.240   0.625  13.230 -0.1303  0.4330 -0.6430
 5488TIP3   OH237878   6.166   2.519  14.269  0.6308  0.5428  0.2678
 5488TIP3    H137879   6.112   2.583  14.224  1.2194  0.1502 -1.0385
 5488TIP3    H237880   6.135   2.521  14.360 -0.6413  1.2832 -0.1608
 5489TIP3   OH237881   5.151   2.658  14.772 -0.0245  0.1758  0.0443
 5489TIP3    H137882   5.199   2.716  14.831  0.9620 -0.9959  0.4187
 5489TIP3    H237883   5.099   2.602  14.830 -1.7224  1.2571 -0.3428
 5490TIP3   OH237884   4.603   0.545  14.739  0.7618  0.3046  0.3552
 5490TIP3    H137885   4.525   0.599  14.753  0.8258  0.3229  0.6683
 5490TIP3    H237886   4.607   0.489  14.817  0.0499 -0.9833 -0.5091
 5491TIP3   OH237887   5.646   1.564   5.537 -0.4730  0.0628 -0.2133
 5491TIP3    H137888   5.564   1.609   5.558  0.3563  2.4865 -1.8306
 5491TIP3    H237889   5.714   1.623   5.568  0.6746 -0.9571 -0.7387
 5492TIP3   OH237890   1.267   4.771   1.547 -0.0598 -0.4382  0.0376
 5492TIP3    H137891   1.219   4.843   1.588  1.2617  0.5973 -0.1199
 5492TIP3    H237892   1.251   4.782   1.453 -3.3863 -3.0281  0.1276
 5493TIP3   OH237893   0.636   0.427  16.202  0.7640 -0.2910 -0.0883
 5493TIP3    H137894   0.635   0.492  16.131  0.5266 -0.1638  0.0302
 5493TIP3    H237895   0.614   0.477  16.280 -1.3379 -0.8176 -0.2792
 5494TIP3   OH237896   6.131   6.765  13.333 -0.0328  0.0871 -0.1476
 5494TIP3    H137897   6.218   6.791  13.303 -0.4050  1.8608  0.1543
 5494TIP3    H237898   6.132   6.782  13.427 -0.6251 -0.1188 -0.0987
 5495TIP3   OH237899   2.133   6.569  15.403  0.6956 -0.2233  0.7345
 5495TIP3    H137900   2.147   6.535  15.491  0.9702 -1.0297  0.3913
 5495TIP3    H237901   2.176   6.505  15.346  2.0412  1.1597  0.1069
 5496TIP3   OH237902   2.973   5.749  17.083 -0.1599  0.1446  0.1094
 5496TIP3    H137903   3.000   5.680  17.023 -0.8701  0.5151 -0.6591
 5496TIP3    H237904   3.051   5.803  17.095 -0.6020  1.5496 -2.5401
 5497TIP3   OH237905   2.165   0.396  16.552  1.0640  0.1628 -0.0449
 5497TIP3    H137906   2.247   0.360  16.586  0.4724 -0.9136  0.2600
 5497TIP3    H237907   2.137   0.458  16.618  0.9389 -0.4678  0.5026
 5498TIP3   OH237908   6.721   1.026   2.865  0.0870 -0.2268 -0.1903
 5498TIP3    H137909   6.666   0.949   2.869 -0.3798  0.1439  0.6209
 5498TIP3    H237910   6.793   1.008   2.926 -0.4804  0.3298  0.6518
 5499TIP3   OH237911   0.311   6.396  15.575  0.0418 -0.0736 -0.0665
 5499TIP3    H137912   0.364   6.475  15.583 -2.8809  2.0204  0.0049
 5499TIP3    H237913   0.282   6.395  15.484 -1.6787  0.1983  0.4482
 5500TIP3   OH237914   4.184   0.659   1.595  0.7128  0.3424  0.2811
 5500TIP3    H137915   4.158   0.744   1.561  0.8779  0.0178 -0.6885
 5500TIP3    H237916   4.187   0.602   1.518 -1.1787 -1.0083  1.1034
 5501TIP3   OH237917   3.520   4.242  10.392  0.0531  0.8648  0.5849
 5501TIP3    H137918   3.607   4.281  10.399  0.1092  0.7579  0.4960
 5501TIP3    H237919   3.466   4.291  10.454  0.5020  0.0057  1.6760
 5502TIP3   OH237920   5.699   4.823   2.631 -0.2752  0.1717 -0.0675
 5502TIP3    H137921   5.688   4.801   2.539 -2.2020 -0.8413  0.3541
 5502TIP3    H237922   5.631   4.887   2.649  0.4465  0.7861  0.5389
 5503TIP3   OH237923   5.585   1.766  11.703 -0.7963 -0.0140  0.0804
 5503TIP3    H137924   5.570   1.757  11.609  0.2597  0.8753 -0.1955
 5503TIP3    H237925   5.679   1.752  11.714 -0.7395  0.8567  0.8625
 5504TIP3   OH237926   3.886   3.888  16.909  0.7117 -0.0232  0.8995
 5504TIP3    H137927   3.836   3.941  16.971 -0.9009  0.6546 -0.9012
 5504TIP3    H237928   3.969   3.935  16.900 -0.3538  1.8191  0.0011
 5505TIP3   OH237929   4.647   1.368  14.861 -0.3353  0.5655  0.2037
 5505TIP3    H137930   4.665   1.327  14.945  1.4653  1.3815  0.2615
 5505TIP3    H237931   4.665   1.461  14.875 -2.3975  1.1233 -0.4471
 5506TIP3   OH237932   6.685   3.514   5.254  0.1887  0.1750  0.2410
 5506TIP3    H137933   6.695   3.511   5.350  1.5897  0.5280  0.1245
 5506TIP3    H237934   6.754   3.456   5.221  0.4656  0.9557 -0.5861
 5507TIP3   OH237935   6.703   6.089  14.421  0.2692 -0.0006  0.2749
 5507TIP3    H137936   6.650   6.143  14.362 -0.2833  0.6455  1.3290
 5507TIP3    H237937   6.779   6.144  14.442 -0.7180  0.7404  2.0265
 5508TIP3   OH237938   2.208   5.110  16.242 -0.5096 -0.3099  0.3301
 5508TIP3    H137939   2.291   5.095  16.197  0.4295  1.8156  1.2268
 5508TIP3    H237940   2.164   5.178  16.191 -0.3382  0.6767  1.4489
 5509TIP3   OH237941   1.580   1.778   5.975  0.2344 -0.0838 -0.5480
 5509TIP3    H137942   1.592   1.824   6.059  1.6215 -1.5154  0.1037
 5509TIP3    H237943   1.647   1.709   5.977 -0.5942 -0.9808 -2.2693
 5510TIP3   OH237944   1.495   0.219  13.870 -0.3691 -0.3301  0.1425
 5510TIP3    H137945   1.408   0.194  13.838 -0.9540 -0.6840  1.8787
 5510TIP3    H237946   1.481   0.303  13.915  0.0770 -0.6103  0.8255
 5511TIP3   OH237947   4.737   4.821  13.591  0.4003 -0.1136 -0.2453
 5511TIP3    H137948   4.725   4.870  13.510  1.7433  0.4849 -0.1034
 5511TIP3    H237949   4.812   4.863  13.634 -0.3196 -0.3645  1.3481
 5512TIP3   OH237950   5.588   2.241   1.999  0.3493 -0.6658  0.5709
 5512TIP3    H137951   5.642   2.162   1.995  0.8900 -0.2675 -0.4998
 5512TIP3    H237952   5.628   2.301   1.936  0.2070  0.6361  1.6512
 5513TIP3   OH237953   3.787   5.529  13.493  0.2324  0.6044  0.6603
 5513TIP3    H137954   3.820   5.594  13.431 -0.5138  0.2305 -0.1495
 5513TIP3    H237955   3.718   5.483  13.445 -1.7415  1.5820  2.3846
 5514TIP3   OH237956   1.014   0.596  14.149  0.4564 -0.2099  0.0255
 5514TIP3    H137957   0.936   0.651  14.139 -0.4259 -1.3098  0.5566
 5514TIP3    H237958   1.069   0.643  14.212  0.2503  0.6081 -0.3994
 5515TIP3   OH237959   3.642   3.910  14.273  0.0361  0.2381  0.4990
 5515TIP3    H137960   3.610   3.921  14.363  0.5620  0.4188  0.6697
 5515TIP3    H237961   3.646   3.999  14.238 -0.7165  0.1250  0.0930
 5516TIP3   OH237962   3.573   2.702  16.253  0.0470  0.2756  0.0982
 5516TIP3    H137963   3.624   2.782  16.236 -0.5163  1.0603  1.8718
 5516TIP3    H237964   3.538   2.714  16.341 -0.0070 -1.9763  0.4466
 5517TIP3   OH237965   6.109   2.587   5.875  0.0424  0.5788 -0.1969
 5517TIP3    H137966   6.202   2.608   5.884  0.1900 -0.0751 -0.1401
 5517TIP3    H237967   6.077   2.582   5.965  0.3975 -1.0773 -0.1265
 5518TIP3   OH237968   3.078   2.046  13.118 -0.3024 -0.2786  0.0112
 5518TIP3    H137969   3.132   2.042  13.039 -0.2990 -0.0011 -0.0027
 5518TIP3    H237970   2.993   2.075  13.086 -0.6365 -1.2846 -0.0503
 5519TIP3   OH237971   5.318   3.743  14.189  0.2560 -0.5318  0.2811
 5519TIP3    H137972   5.387   3.750  14.124  1.2333 -0.0489  1.3318
 5519TIP3    H237973   5.238   3.732  14.138  1.0732 -0.8961 -0.9701
 5520TIP3   OH237974   5.965   4.844   3.680 -0.1756 -0.0863 -0.1518
 5520TIP3    H137975   6.010   4.783   3.621 -0.3990 -0.4142  0.0163
 5520TIP3    H237976   6.026   4.917   3.690  0.0543 -0.2382 -0.4269
 5521TIP3   OH237977   6.094   3.354  13.029  0.0738  0.0896 -0.2973
 5521TIP3    H137978   6.120   3.367  12.938 -0.5364  0.8733 -0.3711
 5521TIP3    H237979   6.131   3.269  13.053 -0.9898 -0.8250 -1.7341
 5522TIP3   OH237980   3.819   1.353   5.691  0.2310  0.1582 -0.5020
 5522TIP3    H137981   3.834   1.425   5.630  0.9502  1.5045  1.2007
 5522TIP3    H237982   3.848   1.386   5.776  0.3552 -2.0572  0.3919
 5523TIP3   OH237983   1.004   0.735  16.162  0.5716 -0.0051  0.7028
 5523TIP3    H137984   1.051   0.764  16.240  0.0632  1.2196  0.5705
 5523TIP3    H237985   0.917   0.710  16.193  0.6784 -0.4326  0.6638
 5524TIP3   OH237986   1.574   2.189  14.428 -0.4630  0.0015 -0.3371
 5524TIP3    H137987   1.528   2.135  14.365  0.1150 -0.2950 -0.5152
 5524TIP3    H237988   1.610   2.261  14.377  1.9363 -1.4129 -0.8185
 5525TIP3   OH237989   3.903   2.276  15.716  0.4239  0.5122  0.0682
 5525TIP3    H137990   3.856   2.279  15.800  0.2448 -1.0582  0.0511
 5525TIP3    H237991   3.835   2.256  15.652  0.6560  1.1473 -0.3862
 5526TIP3   OH237992   0.128   6.497  11.614  0.4544  0.4194  0.3242
 5526TIP3    H137993   0.172   6.574  11.649 -0.3245  0.8171  0.4559
 5526TIP3    H237994   0.044   6.495  11.660 -0.1225  0.2968 -0.7110
 5527TIP3   OH237995   4.333   0.797  16.361 -0.1289  0.2494 -0.0595
 5527TIP3    H137996   4.253   0.800  16.309  0.5927  0.7127 -1.1658
 5527TIP3    H237997   4.331   0.710  16.401 -2.0595  0.8813  1.3869
 5528TIP3   OH237998   1.290   1.431   3.974 -0.7324 -0.2525  0.3559
 5528TIP3    H137999   1.366   1.375   3.979  0.9525  1.8881  0.2379
 5528TIP3    H238000   1.278   1.447   3.880 -2.4838 -1.9517  0.2154
 5529TIP3   OH238001   6.335   1.851  15.717 -0.4169  0.0184 -0.0332
 5529TIP3    H138002   6.410   1.871  15.662 -0.1525  0.9749  0.6511
 5529TIP3    H238003   6.319   1.758  15.702  0.3341  0.0048 -0.8699
 5530TIP3   OH238004   3.290   0.794  13.312 -0.3902 -0.2269 -0.1139
 5530TIP3    H138005   3.297   0.766  13.404 -0.7277 -1.2245 -0.3830
 5530TIP3    H238006   3.343   0.731  13.264  0.2214  0.6076 -0.5658
 5531TIP3   OH238007   2.596   6.758   5.660  0.2022 -0.0968  0.0030
 5531TIP3    H138008   2.585   6.685   5.721 -2.6435 -0.0818 -0.3557
 5531TIP3    H238009   2.615   6.716   5.576  1.1896 -0.2446  0.2799
 5532TIP3   OH238010   3.430   2.380  11.140 -0.1904 -0.0851  0.4074
 5532TIP3    H138011   3.336   2.373  11.123  0.0819 -3.4699 -0.3707
 5532TIP3    H238012   3.471   2.335  11.066  2.0006  0.5520  1.1791
 5533TIP3   OH238013   4.093   1.753  14.124 -0.2066 -0.2500 -0.7558
 5533TIP3    H138014   4.073   1.775  14.033 -0.2756 -2.4354 -1.3264
 5533TIP3    H238015   4.188   1.761  14.131 -0.4036  3.5338  0.1028
 5534TIP3   OH238016   4.645   4.756  14.748  0.1688 -0.3301 -0.4182
 5534TIP3    H138017   4.714   4.751  14.681 -0.4672  0.7943 -1.1923
 5534TIP3    H238018   4.637   4.666  14.781  1.5573 -0.6034 -0.7564
 5535TIP3   OH238019   1.982   1.441   2.760 -0.1385  0.3036 -0.3567
 5535TIP3    H138020   2.019   1.400   2.681 -0.0455  1.4002 -0.8979
 5535TIP3    H238021   1.893   1.407   2.764 -0.5614  1.1792 -1.6604
 5536TIP3   OH238022   5.620   0.931   3.634 -0.3243 -0.2004 -0.5630
 5536TIP3    H138023   5.597   0.997   3.700  1.9760 -0.5243  0.6911
 5536TIP3    H238024   5.644   0.981   3.557 -0.9513  0.3000 -0.4393
 5537TIP3   OH238025   6.632   6.363   1.422 -0.0614 -0.5537 -0.0442
 5537TIP3    H138026   6.539   6.342   1.411 -0.0011 -0.2907 -1.3043
 5537TIP3    H238027   6.647   6.435   1.361  1.0638 -0.8788 -0.1794
 5538TIP3   OH238028   5.220   3.646   0.573  0.4575  0.0267  0.0697
 5538TIP3    H138029   5.200   3.701   0.498  1.1583 -0.2179 -0.3117
 5538TIP3    H238030   5.144   3.588   0.582  0.0255  0.5843  0.0490
 5539TIP3   OH238031   2.864   5.129   3.881 -0.1081 -0.3540  0.2026
 5539TIP3    H138032   2.918   5.055   3.853  1.8930  1.3444 -0.7003
 5539TIP3    H238033   2.921   5.180   3.938 -0.6752  1.5356 -0.8201
 5540TIP3   OH238034   5.608   2.631   2.685  0.7460 -0.2626 -0.5708
 5540TIP3    H138035   5.701   2.613   2.698  1.0641  0.6027 -1.5022
 5540TIP3    H238036   5.576   2.556   2.635  0.8899 -0.6866 -0.0240
 5541TIP3   OH238037   2.753   0.376   3.978 -0.3369  0.4209 -0.4828
 5541TIP3    H138038   2.834   0.332   4.007 -0.2894  0.2792 -0.8231
 5541TIP3    H238039   2.707   0.397   4.059 -0.6762 -0.8600 -0.3189
 5542TIP3   OH238040   1.586   4.201  10.642  0.6345 -0.4498  0.3872
 5542TIP3    H138041   1.552   4.267  10.581  1.4096 -1.1104 -0.7822
 5542TIP3    H238042   1.532   4.212  10.721 -0.4860  0.3228 -0.4528
 5543TIP3   OH238043   2.672   1.200   3.282  0.0350  0.2581  0.1613
 5543TIP3    H138044   2.700   1.140   3.351 -0.8653  0.0338  0.3471
 5543TIP3    H238045   2.587   1.166   3.254  0.8608 -0.2795 -1.8184
 5544TIP3   OH238046   3.582   3.246   2.368 -0.2128  0.3584 -0.0022
 5544TIP3    H138047   3.634   3.250   2.287 -0.7486 -1.1156 -0.4508
 5544TIP3    H238048   3.563   3.153   2.380 -3.0481  0.8200 -0.0663
 5545TIP3   OH238049   0.408   0.069   5.202  0.2366  0.7761 -0.3491
 5545TIP3    H138050   0.490   0.029   5.174 -0.3461  0.5691 -1.8653
 5545TIP3    H238051   0.340   0.022   5.152 -0.7413  1.4138  0.3407
 5546TIP3   OH238052   3.966   4.311   5.879  0.5634 -0.3401 -0.1408
 5546TIP3    H138053   4.039   4.364   5.910 -0.0766  0.8996 -0.7180
 5546TIP3    H238054   3.922   4.283   5.959  0.5344  0.5288  0.1562
 5547TIP3   OH238055   5.313   6.648   4.196  0.3508  0.0358  0.0022
 5547TIP3    H138056   5.293   6.727   4.245 -0.0723  0.4337 -0.7897
 5547TIP3    H238057   5.362   6.593   4.257 -1.7903 -0.3021  1.5141
 5548TIP3   OH238058   3.862   3.644  13.942 -0.5170  0.3266 -0.4936
 5548TIP3    H138059   3.833   3.579  13.878  1.5079  0.9476 -2.1460
 5548TIP3    H238060   3.850   3.728  13.898  0.1999  0.8276  0.2475
 5549TIP3   OH238061   5.759   1.125  13.026  0.9958  0.1990 -0.2838
 5549TIP3    H138062   5.725   1.115  12.937  1.4581  1.6371 -0.6539
 5549TIP3    H238063   5.777   1.036  13.056 -1.3619 -0.5043 -0.7456
 5550TIP3   OH238064   3.358   3.256  14.767  0.3656 -0.4074 -0.4992
 5550TIP3    H138065   3.317   3.330  14.722  0.2404  1.9634  3.0802
 5550TIP3    H238066   3.295   3.231  14.834  1.8190 -1.5052  0.5306
 5551TIP3   OH238067   5.575   2.856   2.892 -0.5818  0.2017  0.4436
 5551TIP3    H138068   5.558   2.807   2.811 -0.4468 -0.0824  0.5873
 5551TIP3    H238069   5.670   2.868   2.893 -0.3179 -1.7079  1.6576
 5552TIP3   OH238070   4.103   1.797  16.818  0.0355  0.5095 -0.1082
 5552TIP3    H138071   4.038   1.763  16.757  0.7981  0.5890 -0.9788
 5552TIP3    H238072   4.147   1.867  16.770  1.1774  0.0570  0.2344
 5553TIP3   OH238073   4.691   1.057  12.915  0.0997 -0.2788 -0.1516
 5553TIP3    H138074   4.692   1.060  12.819 -0.8113 -0.6342 -0.1834
 5553TIP3    H238075   4.675   1.148  12.941  0.4192 -0.1680 -0.3308
 5554TIP3   OH238076   4.041   0.324  14.206 -0.2516  0.5522  0.2486
 5554TIP3    H138077   4.041   0.350  14.298  0.3553  0.3696  0.3082
 5554TIP3    H238078   3.949   0.314  14.183 -0.3995 -2.3666  1.6890
 5555TIP3   OH238079   0.731   5.574  15.310  0.3024  0.3911  0.0651
 5555TIP3    H138080   0.779   5.534  15.383 -0.1749 -0.2020  0.0668
 5555TIP3    H238081   0.791   5.638  15.273 -0.0510  1.9650  2.0558
 5556TIP3   OH238082   0.206   4.095  13.582  0.1055 -0.0502 -0.9610
 5556TIP3    H138083   0.150   4.101  13.658 -0.7103 -1.6038 -1.4019
 5556TIP3    H238084   0.276   4.035  13.608  0.1139 -0.1712 -1.2581
 5557TIP3   OH238085   5.899   2.781   3.229  1.0831 -0.2541  0.5268
 5557TIP3    H138086   5.899   2.691   3.198  0.5706  0.2962 -1.2496
 5557TIP3    H238087   5.833   2.784   3.297  1.5856 -1.3519  1.0748
 5558TIP3   OH238088   4.733   0.699   3.601 -0.8900 -0.1282  0.2696
 5558TIP3    H138089   4.638   0.713   3.609 -0.9105 -0.6427  1.0053
 5558TIP3    H238090   4.749   0.696   3.506 -1.7240 -0.7986  0.1409
 5559TIP3   OH238091   2.270   4.915  17.146  0.0971 -0.0527  0.1561
 5559TIP3    H138092   2.209   4.984  17.119  1.3363  0.9270 -0.2281
 5559TIP3    H238093   2.215   4.851  17.193 -1.3025  0.5165 -0.6465
 5560TIP3   OH238094   4.910   4.932  16.238 -0.8765 -0.2347  0.1640
 5560TIP3    H138095   4.890   5.025  16.244  1.6795  0.3148  2.8158
 5560TIP3    H238096   4.857   4.891  16.307  1.0121  0.0351  1.8926
 5561TIP3   OH238097   3.284   1.100  16.797  0.3202  0.0807  0.6486
 5561TIP3    H138098   3.189   1.087  16.785  0.0488  0.3058  2.3407
 5561TIP3    H238099   3.320   1.012  16.801  0.5408 -0.0450 -2.1533
 5562TIP3   OH238100   2.085   4.072  15.728  0.5732  0.0369  0.1496
 5562TIP3    H138101   2.072   3.996  15.672  0.2061  1.1917 -1.4104
 5562TIP3    H238102   2.167   4.055  15.773 -0.0949 -1.8054  0.7470
 5563TIP3   OH238103   0.278   1.153   1.614  0.1968  0.5323 -0.1727
 5563TIP3    H138104   0.293   1.217   1.544  0.6999  1.3509  0.6567
 5563TIP3    H238105   0.353   1.095   1.610  0.6197  1.0444  0.1670
 5564TIP3   OH238106   2.184   2.785  14.578  0.3991  0.4263  0.1290
 5564TIP3    H138107   2.277   2.795  14.555  0.3325  0.6911 -0.0301
 5564TIP3    H238108   2.182   2.789  14.673  0.3280  2.4608  0.0903
 5565TIP3   OH238109   2.160   5.839  16.753  0.6004 -0.7148 -0.5393
 5565TIP3    H138110   2.143   5.813  16.844 -0.8115 -0.9719 -0.8546
 5565TIP3    H238111   2.079   5.882  16.725  1.4861  0.5443 -1.2806
 5566TIP3   OH238112   1.916   0.635  13.394  0.0706 -0.2588  0.2399
 5566TIP3    H138113   1.942   0.568  13.332 -0.1795  0.2090 -0.3900
 5566TIP3    H238114   1.996   0.684  13.413  0.5542 -1.5493  1.7679
 5567TIP3   OH238115   5.278   5.574   2.249 -0.7119 -0.2656  0.6436
 5567TIP3    H138116   5.360   5.532   2.274 -0.5375 -1.4287 -1.6558
 5567TIP3    H238117   5.242   5.605   2.332  2.2892  0.8202  1.6828
 5568TIP3   OH238118   3.468   0.781  13.083  0.2384  0.3554 -0.2101
 5568TIP3    H138119   3.502   0.850  13.027  0.4054  1.6107  1.3516
 5568TIP3    H238120   3.537   0.767  13.148 -0.5784  0.0786  0.6262
 5569TIP3   OH238121   6.082   4.288   1.165  0.3724  0.1355  0.2421
 5569TIP3    H138122   6.094   4.350   1.236  0.6478  0.1642  0.1737
 5569TIP3    H238123   6.160   4.233   1.168 -1.5201 -2.7098  2.7187
 5570TIP3   OH238124   3.954   4.059   3.445  0.2874  0.2456  0.2909
 5570TIP3    H138125   3.877   4.061   3.388 -0.1443  1.1567  0.8856
 5570TIP3    H238126   3.957   3.969   3.478  0.6187 -0.3378 -1.2331
 5571TIP3   OH238127   0.715   2.176  17.000 -0.2180 -0.0579 -0.1724
 5571TIP3    H138128   0.760   2.096  17.027  0.8366  0.8581  0.8955
 5571TIP3    H238129   0.738   2.185  16.907 -0.4388 -1.0412 -0.3344
 5572TIP3   OH238130   1.324   6.017  15.642 -0.5431 -0.4369 -0.2488
 5572TIP3    H138131   1.319   5.930  15.681 -1.3963 -0.5345 -0.5799
 5572TIP3    H238132   1.235   6.052  15.648 -0.4103  0.0479 -0.9603
 5573TIP3   OH238133   6.134   5.378  15.259 -0.0944  0.4489  0.0597
 5573TIP3    H138134   6.068   5.350  15.196 -0.4809  0.6100  0.3868
 5573TIP3    H238135   6.214   5.332  15.233 -0.3929  0.0761 -0.1974
 5574TIP3   OH238136   1.151   4.848   5.318  0.5594 -0.4713 -0.4416
 5574TIP3    H138137   1.056   4.840   5.316  0.6873 -2.7224  0.1884
 5574TIP3    H238138   1.183   4.759   5.331  2.8786 -0.1855 -3.2375
 5575TIP3   OH238139   3.392   5.028   1.818  0.1500  0.0805  0.5347
 5575TIP3    H138140   3.333   5.019   1.892  0.2704  1.2075  0.7788
 5575TIP3    H238141   3.334   5.044   1.743  0.0554 -0.6595  0.4340
 5576TIP3   OH238142   2.055   1.048   2.931 -0.0961  0.5877 -0.0932
 5576TIP3    H138143   2.103   1.130   2.940 -0.0042  0.6478 -1.0521
 5576TIP3    H238144   2.123   0.980   2.931 -0.1148  0.5689 -0.1020
 5577TIP3   OH238145   6.079   3.939   5.958 -0.6823 -0.7164 -0.3366
 5577TIP3    H138146   6.145   3.913   5.894  1.2865 -1.1438  1.7082
 5577TIP3    H238147   6.077   4.034   5.954 -0.2456 -0.7198 -0.7249
 5578TIP3   OH238148   2.058   1.431   0.083  0.4594  0.4249  0.4971
 5578TIP3    H138149   2.001   1.397   0.015  0.9680  1.2396 -0.3663
 5578TIP3    H238150   2.002   1.490   0.134 -0.3084 -1.3220  1.7417
 5579TIP3   OH238151   1.643   4.390  14.191 -0.6532  0.0372 -0.0286
 5579TIP3    H138152   1.677   4.304  14.215  1.4220  0.6945 -0.3970
 5579TIP3    H238153   1.561   4.398  14.240 -0.3069 -1.6627  0.9176
 5580TIP3   OH238154   0.718   4.853  12.139 -0.1036 -0.2798  0.2769
 5580TIP3    H138155   0.734   4.856  12.044 -0.4294  0.1886  0.2366
 5580TIP3    H238156   0.775   4.920  12.176  0.8483 -1.2005  0.5433
 5581TIP3   OH238157   6.342   6.384   3.601 -0.4586 -0.0650  0.5832
 5581TIP3    H138158   6.296   6.376   3.684 -1.2517 -1.3913  0.0403
 5581TIP3    H238159   6.392   6.303   3.593 -1.0773 -0.3535 -0.6132
 5582TIP3   OH238160   5.258   1.662   2.224 -0.2247  0.0303  0.1414
 5582TIP3    H138161   5.287   1.710   2.147  1.3227 -1.4683 -0.2909
 5582TIP3    H238162   5.301   1.705   2.297  1.4348 -0.8124 -0.2748
 5583TIP3   OH238163   2.966   0.918   1.641  0.4359  0.6776  0.0025
 5583TIP3    H138164   2.931   0.836   1.676  1.6073  0.5340  0.8890
 5583TIP3    H238165   3.022   0.953   1.711  2.4220  0.6621 -1.4763
 5584TIP3   OH238166   5.506   4.032  12.905  0.0469 -0.6234 -0.3099
 5584TIP3    H138167   5.544   4.103  12.853 -0.0867  2.0049  2.8255
 5584TIP3    H238168   5.581   3.988  12.944  0.0906 -1.5517 -1.4013
 5585TIP3   OH238169   3.318   5.094   4.806 -0.3765 -0.1005  0.3901
 5585TIP3    H138170   3.358   5.025   4.754  0.3299  0.2464  0.4569
 5585TIP3    H238171   3.244   5.052   4.850  0.2188 -0.8821  0.6554
 5586TIP3   OH238172   4.268   0.261  12.026  0.0832  0.3777 -0.5829
 5586TIP3    H138173   4.299   0.171  12.029  0.0128  0.3610 -0.3475
 5586TIP3    H238174   4.288   0.290  11.937 -0.6749 -0.1551 -0.9452
 5587TIP3   OH238175   5.708   5.037  13.778 -0.9618 -0.0281  0.1489
 5587TIP3    H138176   5.661   5.085  13.710 -0.1842 -0.3513 -0.6380
 5587TIP3    H238177   5.801   5.056  13.761 -0.7821  2.6817  3.1954
 5588TIP3   OH238178   1.892   2.498   1.912  0.4811  0.3887  0.5445
 5588TIP3    H138179   1.802   2.505   1.880 -0.5758 -0.4281  3.1035
 5588TIP3    H238180   1.945   2.535   1.842 -1.7574  0.1506 -1.4080
 5589TIP3   OH238181   3.934   5.043   4.650 -0.2923  0.2075 -0.2611
 5589TIP3    H138182   3.869   5.017   4.715  0.7461 -0.1507  0.6719
 5589TIP3    H238183   3.959   4.962   4.607 -0.4274  0.3403 -0.5970
 5590TIP3   OH238184   3.194   3.764   0.274 -0.1128 -0.4041 -0.1679
 5590TIP3    H138185   3.228   3.846   0.236  0.7148 -0.2828  0.8093
 5590TIP3    H238186   3.100   3.780   0.284 -0.1256  0.0517 -0.9191
 5591TIP3   OH238187   5.317   0.171   3.058  0.0254  0.7178 -0.2695
 5591TIP3    H138188   5.261   0.184   3.134  0.0725 -3.3612  0.6894
 5591TIP3    H238189   5.404   0.154   3.095  0.1601 -0.7919 -1.1878
 5592TIP3   OH238190   4.607   3.242   2.555  0.1943 -0.3746 -0.9472
 5592TIP3    H138191   4.645   3.309   2.498  0.3639 -0.4542 -0.9307
 5592TIP3    H238192   4.681   3.212   2.609  0.6993 -2.2171 -2.5235
 5593TIP3   OH238193   3.167   1.926  14.870 -0.0987 -0.2850  0.3506
 5593TIP3    H138194   3.081   1.892  14.846  0.0977  0.1833 -1.0881
 5593TIP3    H238195   3.149   1.987  14.942 -0.9102 -0.5323  0.3672
 5594TIP3   OH238196   0.172   1.238   4.662 -0.5543  0.2014  0.1108
 5594TIP3    H138197   0.256   1.283   4.652 -0.2251 -0.6658 -1.4979
 5594TIP3    H238198   0.186   1.176   4.733  0.0863  0.2511  0.0326
 5595TIP3   OH238199   5.771   1.390  16.559 -0.3503 -0.7227 -0.0093
 5595TIP3    H138200   5.798   1.482  16.565 -0.2590 -0.7887  0.8302
 5595TIP3    H238201   5.839   1.342  16.607 -1.0129 -1.0934  0.5763
 5596TIP3   OH238202   1.725   4.142   3.039  0.0804 -0.3493  0.4601
 5596TIP3    H138203   1.762   4.063   3.080 -1.4416 -1.9046 -1.0123
 5596TIP3    H238204   1.643   4.157   3.085  0.7052  0.8735  1.2301
 5597TIP3   OH238205   4.504   1.556   1.610  0.1713 -0.4167  0.1824
 5597TIP3    H138206   4.483   1.646   1.585  1.9881  0.0803  0.2991
 5597TIP3    H238207   4.576   1.565   1.673 -0.0742 -1.9222  0.7040
 5598TIP3   OH238208   4.982   0.941   1.541 -0.2340  0.0746  0.3307
 5598TIP3    H138209   4.938   0.954   1.457  0.6244  1.4330  0.0568
 5598TIP3    H238210   5.008   1.029   1.568 -0.3754 -0.3540  1.9693
 5599TIP3   OH238211   6.789   1.608   1.196  0.2466  0.4231 -0.1025
 5599TIP3    H138212   6.724   1.572   1.256 -0.6278  0.5343 -0.9388
 5599TIP3    H238213   6.749   1.598   1.109  0.9583  1.3310 -0.5577
 5600TIP3   OH238214   5.096   0.221   0.861  0.1369 -0.6677  0.3077
 5600TIP3    H138215   5.135   0.225   0.949 -0.9624  1.5513  0.7758
 5600TIP3    H238216   5.167   0.243   0.802  0.5843 -0.8798  0.7620
 5601TIP3   OH238217   4.565   1.902   3.876 -0.1680 -0.2968  0.5378
 5601TIP3    H138218   4.570   1.937   3.965  0.4519  0.3718  0.2492
 5601TIP3    H238219   4.564   1.980   3.820  1.0862 -0.7288 -0.1132
 5602TIP3   OH238220   1.128   0.038   2.037 -0.3344  1.0642  0.3375
 5602TIP3    H138221   1.170  -0.040   2.075  1.1713  0.5247 -2.1485
 5602TIP3    H238222   1.041   0.040   2.075  0.8047  0.2825  3.2427
 5603TIP3   OH238223   1.190   3.929  16.490  0.0723 -0.1496 -0.6054
 5603TIP3    H138224   1.220   3.910  16.401  2.2122  2.4951 -0.6096
 5603TIP3    H238225   1.104   3.969  16.478 -0.0179 -0.5666 -1.4017
 5604TIP3   OH238226   5.928   3.143  12.818  0.0467 -0.2096 -0.3007
 5604TIP3    H138227   5.860   3.091  12.774 -0.8529  0.3609  0.3877
 5604TIP3    H238228   5.948   3.094  12.898 -0.7365  0.4365  0.3034
 5605TIP3   OH238229   0.136   0.910  11.571  0.5727 -0.0042  0.2119
 5605TIP3    H138230   0.134   0.898  11.476 -0.1289  1.1509  0.0551
 5605TIP3    H238231   0.046   0.895  11.599  0.6428  0.2868  0.6021
 5606TIP3   OH238232   6.257   6.087   1.953  0.4519  0.1308  0.1707
 5606TIP3    H138233   6.268   6.182   1.942 -0.0228  0.1133 -0.4795
 5606TIP3    H238234   6.338   6.059   1.995  1.8280  0.4172 -2.0929
 5607TIP3   OH238235   5.599   3.205   2.237  0.1856  0.3117  0.0890
 5607TIP3    H138236   5.570   3.264   2.307 -1.0642 -0.5470  0.3419
 5607TIP3    H238237   5.651   3.138   2.281  0.6407  0.5855 -0.0285
 5608TIP3   OH238238   5.406   5.319  16.128 -0.4909  0.0129 -0.3846
 5608TIP3    H138239   5.395   5.366  16.046 -1.6711  0.8132  0.2185
 5608TIP3    H238240   5.457   5.378  16.184 -0.6785 -0.0566 -0.1383
 5609TIP3   OH238241   2.674   1.403   2.488 -1.0363 -0.1528 -0.2858
 5609TIP3    H138242   2.639   1.318   2.460 -1.3587 -0.4889  1.0670
 5609TIP3    H238243   2.660   1.461   2.414 -1.0393 -1.2202 -1.1432
 5610TIP3   OH238244   5.537   1.754   5.077  0.3766  0.0373  0.1775
 5610TIP3    H138245   5.517   1.844   5.103  0.1281 -0.2604  1.0526
 5610TIP3    H238246   5.601   1.725   5.142 -0.6557 -0.9014  0.8031
 5611TIP3   OH238247   1.926   4.280  13.716  0.5157 -0.4638  0.2502
 5611TIP3    H138248   1.837   4.297  13.748  1.3737 -0.4274  2.8689
 5611TIP3    H238249   1.922   4.191  13.681 -0.3741 -0.8235  1.1928
 5612TIP3   OH238250   0.903   4.471   3.461  0.3770 -0.1190 -0.1797
 5612TIP3    H138251   0.878   4.536   3.396 -0.0725 -0.6091 -0.5049
 5612TIP3    H238252   0.982   4.431   3.425  1.3453  1.0335  0.5749
 5613TIP3   OH238253   6.731   6.277  16.484  0.5313  0.1195 -0.2437
 5613TIP3    H138254   6.787   6.202  16.465 -1.2264 -1.6431  1.0228
 5613TIP3    H238255   6.642   6.244  16.467 -0.2491  2.1940 -0.4077
 5614TIP3   OH238256   6.712   4.181   2.505 -0.0179  0.1512  0.0363
 5614TIP3    H138257   6.656   4.192   2.428 -0.3540 -1.7791 -0.0444
 5614TIP3    H238258   6.693   4.092   2.536  1.4519  0.2282  1.2709
 5615TIP3   OH238259   2.472   4.324   3.413 -0.4421  0.6539 -0.5989
 5615TIP3    H138260   2.466   4.229   3.427 -0.6085  0.9237  1.5246
 5615TIP3    H238261   2.544   4.335   3.351  0.0380 -0.8157 -0.3412
 5616TIP3   OH238262   6.149   5.325   0.761 -0.1857  0.9464  0.4691
 5616TIP3    H138263   6.210   5.399   0.762  0.6710  0.4974  4.9305
 5616TIP3    H238264   6.205   5.247   0.762 -0.9514  0.3759  0.2508
 5617TIP3   OH238265   0.425   6.415  13.258  0.5485  0.0581  0.9237
 5617TIP3    H138266   0.480   6.412  13.179  1.4806  0.8753  1.5224
 5617TIP3    H238267   0.376   6.333  13.256  0.1393  0.2963 -0.7893
 5618TIP3   OH238268   0.680   2.397  11.295  0.0949  0.4815 -0.0021
 5618TIP3    H138269   0.628   2.345  11.234  0.7568  0.3978 -0.5047
 5618TIP3    H238270   0.734   2.453  11.239  1.3732 -0.2326  0.4775
 5619TIP3   OH238271   1.754   4.180  13.999  0.9194 -0.1281 -0.1360
 5619TIP3    H138272   1.722   4.103  13.952  0.6334 -0.5855  0.7856
 5619TIP3    H238273   1.734   4.162  14.091  0.8612  1.0390  0.0924
 5620TIP3   OH238274   0.005   3.791  17.040  0.8174 -0.1148 -0.1024
 5620TIP3    H138275   0.066   3.808  16.968  1.0925 -0.3586  0.0676
 5620TIP3    H238276  -0.063   3.857  17.031  2.2483  1.5826  1.0078
 5621TIP3   OH238277   6.716   4.124   5.640  0.0682  0.2315  0.1403
 5621TIP3    H138278   6.795   4.096   5.594  0.0342 -1.4363  1.0218
 5621TIP3    H238279   6.682   4.044   5.681 -2.7100  0.6688 -1.1081
 5622TIP3   OH238280   2.603   6.788   0.760 -0.1136 -0.0458  0.0962
 5622TIP3    H138281   2.602   6.759   0.851  2.1672  0.4486  0.3428
 5622TIP3    H238282   2.520   6.835   0.749 -0.9152 -1.0322  1.5862
 5623TIP3   OH238283   0.090   4.496  11.612 -0.2465  0.4142 -0.0791
 5623TIP3    H138284   0.095   4.401  11.623 -0.9133  0.3046 -0.6477
 5623TIP3    H238285   0.108   4.531  11.699  1.6839 -0.1591 -0.2123
 5624TIP3   OH238286   3.629   4.625   2.296  0.2665 -0.5411  0.3263
 5624TIP3    H138287   3.628   4.698   2.357  1.6064 -0.3686  0.1581
 5624TIP3    H238288   3.539   4.619   2.264 -0.4072 -0.4561  2.0860
 5625TIP3   OH238289   4.550   1.542   2.144 -0.7819 -0.1379 -0.1076
 5625TIP3    H138290   4.455   1.546   2.134 -0.7358 -0.1811 -0.6276
 5625TIP3    H238291   4.577   1.634   2.153 -1.0313 -0.2278  1.8134
 5626TIP3   OH238292   3.497   3.998  17.135 -0.1615 -0.0057 -0.1053
 5626TIP3    H138293   3.565   4.065  17.145 -0.5956  0.2119  1.7094
 5626TIP3    H238294   3.462   3.986  17.223 -2.8907  0.3194 -1.0444
 5627TIP3   OH238295   5.947   5.778  15.350 -0.3903 -0.3865 -0.5101
 5627TIP3    H138296   5.909   5.857  15.389  1.7753  0.5588 -0.0980
 5627TIP3    H238297   5.946   5.795  15.255 -1.8781 -0.8350 -0.5855
 5628TIP3   OH238298   0.260   4.786  12.011 -0.1926 -0.0312  0.2200
 5628TIP3    H138299   0.330   4.830  11.962 -0.7017 -0.4925 -0.9652
 5628TIP3    H238300   0.250   4.838  12.091  1.4088  0.1090  0.3540
 5629TIP3   OH238301   3.174   2.644  12.775  0.1059 -0.2019  0.9319
 5629TIP3    H138302   3.101   2.670  12.830  0.0798  0.3574  0.6376
 5629TIP3    H238303   3.178   2.711  12.706  0.0706 -0.9333  0.1965
 5630TIP3   OH238304   1.512   5.853  15.858 -0.5165 -0.4561 -0.8953
 5630TIP3    H138305   1.581   5.797  15.894 -1.0544  0.5052  1.8003
 5630TIP3    H238306   1.432   5.800  15.866 -0.6343 -0.2564 -0.7606
 5631TIP3   OH238307   0.629   2.492  13.658  0.3665 -0.7431 -0.9776
 5631TIP3    H138308   0.652   2.454  13.743  0.1455 -0.5234 -0.8185
 5631TIP3    H238309   0.702   2.467  13.600  0.6661 -0.6307 -0.6489
 5632TIP3   OH238310   0.086   5.282   2.970  0.0426 -0.1579  0.0115
 5632TIP3    H138311   0.170   5.323   2.950 -0.7454  0.9097 -1.2918
 5632TIP3    H238312   0.108   5.196   3.006  1.6676 -0.6112 -1.9313
 5633TIP3   OH238313   2.318   0.251  15.498  0.1551 -0.4195  0.0238
 5633TIP3    H138314   2.317   0.157  15.484  1.8187 -0.5928  0.7812
 5633TIP3    H238315   2.251   0.266  15.565  1.2361 -1.3594  1.3626
 5634TIP3   OH238316   2.088   0.385  17.113  0.4006 -0.2116  0.0037
 5634TIP3    H138317   2.160   0.447  17.125  1.0190 -0.9902  0.3956
 5634TIP3    H238318   2.085   0.336  17.195 -0.2981 -0.4776 -0.1729
 5635TIP3   OH238319   4.291   0.181   5.864 -0.0296 -0.0252  0.0241
 5635TIP3    H138320   4.343   0.205   5.940  1.7496 -2.8359 -0.1660
 5635TIP3    H238321   4.355   0.154   5.798 -1.6133  0.1038 -1.6463
 5636TIP3   OH238322   6.419   3.496   3.169  0.0065  0.5701 -0.6963
 5636TIP3    H138323   6.502   3.454   3.145 -0.8881 -2.1393  0.4459
 5636TIP3    H238324   6.434   3.526   3.259  0.6581  2.9036 -1.5301
 5637TIP3   OH238325   2.695   5.875   1.919  0.2517 -0.1750  0.0272
 5637TIP3    H138326   2.782   5.843   1.897  0.9256  1.2215  0.5902
 5637TIP3    H238327   2.654   5.802   1.966  1.4438 -0.5405  0.5410
 5638TIP3   OH238328   0.116   1.079   5.091 -0.3986  0.1713  0.1539
 5638TIP3    H138329   0.051   1.041   5.151 -3.4509  3.2276 -0.8679
 5638TIP3    H238330   0.077   1.066   5.004  1.4117  0.3433 -0.7200
 5639TIP3   OH238331   2.373   4.805   5.618  0.1544 -0.0347 -0.3667
 5639TIP3    H138332   2.348   4.715   5.641  0.5184 -0.6416 -2.1839
 5639TIP3    H238333   2.346   4.815   5.527  1.2008  1.2950 -0.5662
 5640TIP3   OH238334   2.019   3.092  11.603  0.0665  0.1020 -0.0895
 5640TIP3    H138335   1.967   3.099  11.683 -2.0783 -1.6771 -1.2105
 5640TIP3    H238336   2.101   3.136  11.624 -0.2491 -0.6199  3.2124
 5641TIP3   OH238337   6.261   5.464   1.634  0.4893 -0.0907 -0.2232
 5641TIP3    H138338   6.198   5.398   1.605 -1.1944  1.1198  0.5319
 5641TIP3    H238339   6.307   5.423   1.707 -0.8087 -0.3365  0.4903
 5642TIP3   OH238340   0.906   2.327   6.632 -0.1104  0.1763 -0.1370
 5642TIP3    H138341   0.883   2.258   6.569 -1.3450  0.0601  0.4114
 5642TIP3    H238342   0.975   2.288   6.685  0.9652  0.2792 -1.4117
 5643TIP3   OH238343   1.520   6.315   3.373 -0.6439  0.2597 -0.2502
 5643TIP3    H138344   1.549   6.224   3.364  0.3234  0.2622  2.1043
 5643TIP3    H238345   1.593   6.367   3.338  0.8334  0.1597  2.3836
 5644TIP3   OH238346   1.370   0.158   3.174  0.4626 -0.1313 -0.2726
 5644TIP3    H138347   1.308   0.156   3.248  1.4859 -2.5709  0.6337
 5644TIP3    H238348   1.446   0.205   3.208  1.6541 -2.7600  0.9841
 5645TIP3   OH238349   4.250   6.540  12.200  0.0339 -0.0327  0.3161
 5645TIP3    H138350   4.257   6.487  12.121 -2.1986  0.2341 -0.1155
 5645TIP3    H238351   4.236   6.476  12.270 -1.8354 -0.1150 -0.0879
 5646TIP3   OH238352   1.413   6.104   6.156  0.2120 -0.8207  0.1161
 5646TIP3    H138353   1.334   6.067   6.117 -0.7338  1.9760 -0.8386
 5646TIP3    H238354   1.382   6.158   6.228  1.4886 -1.3545  1.1204
 5647TIP3   OH238355   0.863   0.518   3.433  0.0621  0.4587 -0.0049
 5647TIP3    H138356   0.821   0.451   3.379 -0.4999 -1.6653  2.8371
 5647TIP3    H238357   0.917   0.468   3.495  1.0502  2.7579  1.1032
 5648TIP3   OH238358   6.542   4.907  11.829  0.1338  0.0580 -0.0509
 5648TIP3    H138359   6.466   4.965  11.837  0.1358  0.2399 -1.1383
 5648TIP3    H238360   6.593   4.925  11.908  0.3675  1.9051 -0.5580
 5649TIP3   OH238361   0.794   4.540   3.860 -0.1559 -0.5156 -0.5297
 5649TIP3    H138362   0.783   4.488   3.940  1.3179  0.4107  0.3294
 5649TIP3    H238363   0.887   4.533   3.840  0.1004  1.7293 -0.3764
 5650TIP3   OH238364   1.863   6.717  13.979 -0.4330  0.0229  0.0168
 5650TIP3    H138365   1.885   6.656  14.048 -0.1468 -0.8295 -0.8020
 5650TIP3    H238366   1.946   6.756  13.953 -0.8449  2.5930  2.1182
 5651TIP3   OH238367   3.979   4.661  15.140 -0.6531  0.2988  0.3225
 5651TIP3    H138368   3.929   4.707  15.073 -0.0939  0.5854  0.0947
 5651TIP3    H238369   3.961   4.569  15.124 -2.5658  0.4373  1.3972
 5652TIP3   OH238370   1.814   2.267   5.262 -0.4366 -0.0295  0.2835
 5652TIP3    H138371   1.753   2.286   5.333 -0.0395  1.0964  0.3565
 5652TIP3    H238372   1.826   2.172   5.265  0.0714  0.0473  2.1642
 5653TIP3   OH238373   3.921   6.764   4.316  0.3007  0.0930  0.2529
 5653TIP3    H138374   3.890   6.734   4.231 -1.5193 -0.8523  1.1869
 5653TIP3    H238375   3.844   6.799   4.360  1.3934  1.5154  1.1654
 5654TIP3   OH238376   4.039   6.391  15.416 -0.3345 -0.1798 -0.1439
 5654TIP3    H138377   4.060   6.300  15.394 -0.2647  0.1691 -1.6703
 5654TIP3    H238378   4.123   6.435  15.420 -0.4000 -0.0699  0.0044
 5655TIP3   OH238379   3.169   2.609   2.307  0.1540 -0.2665  0.2096
 5655TIP3    H138380   3.199   2.700   2.306  2.3187 -0.9243 -0.1190
 5655TIP3    H238381   3.166   2.584   2.215 -0.5357 -0.4956  0.2949
 5656TIP3   OH238382   5.470   0.451   3.933  0.2305 -0.1210 -0.2140
 5656TIP3    H138383   5.474   0.398   4.013 -0.0329 -0.1174 -0.1970
 5656TIP3    H238384   5.514   0.533   3.956  0.5893 -0.3097 -0.2227
 5657TIP3   OH238385   0.303   6.779  14.290  0.1786  0.3247  0.2085
 5657TIP3    H138386   0.286   6.804  14.380  0.8346  1.7812 -0.0378
 5657TIP3    H238387   0.359   6.701  14.296  0.0482  0.2930  1.0401
 5658TIP3   OH238388   2.080   1.333  10.623 -0.6090 -0.2148 -0.2858
 5658TIP3    H138389   1.998   1.312  10.578 -0.1273 -0.1442 -1.2194
 5658TIP3    H238390   2.068   1.424  10.653 -1.1861 -0.4819  0.3331
 5659TIP3   OH238391   3.146   2.429   5.246 -0.0614  0.6877  0.7061
 5659TIP3    H138392   3.204   2.407   5.319 -0.2463  0.0882  0.6702
 5659TIP3    H238393   3.187   2.388   5.170  0.8096  2.3404  0.2287
 5660TIP3   OH238394   3.147   4.048  12.088 -0.3357  0.5395 -0.3850
 5660TIP3    H138395   3.145   4.000  12.171  0.0246  0.9979 -0.1090
 5660TIP3    H238396   3.088   4.122  12.103 -2.4370 -0.8048 -1.4410
 5661TIP3   OH238397   2.078   2.934  12.220  0.4269 -0.6086  0.6760
 5661TIP3    H138398   2.137   3.005  12.194 -0.4081 -0.6600 -1.6011
 5661TIP3    H238399   2.136   2.860  12.238  1.1418 -0.4264 -0.7292
 5662TIP3   OH238400   5.183   1.814  11.779 -0.3805 -0.2081  0.4579
 5662TIP3    H138401   5.142   1.848  11.699  0.3847  2.1907  0.9796
 5662TIP3    H238402   5.111   1.809  11.843 -0.6591 -0.3562  0.1342
 5663TIP3   OH238403   6.286   2.377  10.849 -0.2065  0.0901  0.5932
 5663TIP3    H138404   6.290   2.323  10.769  0.9290  0.1995  0.5528
 5663TIP3    H238405   6.329   2.459  10.824 -0.7781  0.5239  1.0274
 5664TIP3   OH238406   0.060   6.683   4.595  0.0599 -0.2719  0.6258
 5664TIP3    H138407   0.071   6.635   4.677 -1.3058 -2.7742 -0.5323
 5664TIP3    H238408  -0.035   6.689   4.583  0.2209 -0.1901 -0.8711
 5665TIP3   OH238409   1.823   3.899   0.745  0.7485 -0.3951  0.4083
 5665TIP3    H138410   1.782   3.825   0.790 -3.1680  0.2368 -1.6664
 5665TIP3    H238411   1.751   3.941   0.697  3.7342  1.5679 -2.8495
 5666TIP3   OH238412   3.663   1.290   3.240 -0.2266 -0.1085  0.4049
 5666TIP3    H138413   3.628   1.342   3.168 -0.6138 -1.5171 -0.4507
 5666TIP3    H238414   3.701   1.213   3.198  0.5540 -0.4135  1.6228
 5667TIP3   OH238415   1.204   5.841   1.252 -0.0742 -0.0564  0.1448
 5667TIP3    H138416   1.119   5.837   1.294 -0.0441  1.0088  0.3273
 5667TIP3    H238417   1.251   5.764   1.285 -0.5550 -0.0118  0.9505
 5668TIP3   OH238418   5.528   3.446   5.249  0.2095 -0.0272  0.5662
 5668TIP3    H138419   5.540   3.500   5.326 -0.6346 -2.0883  2.2321
 5668TIP3    H238420   5.614   3.445   5.207  0.5711  1.4733  1.2054
 5669TIP3   OH238421   0.002   4.612   4.023 -0.3022  0.3071  0.0550
 5669TIP3    H138422  -0.049   4.581   4.099  0.9013  0.0439  0.7775
 5669TIP3    H238423   0.037   4.696   4.050  0.8138 -0.1651  0.1125
 5670TIP3   OH238424   4.193   1.154  14.457 -0.0884  0.2554 -0.6064
 5670TIP3    H138425   4.173   1.237  14.501  1.0033  0.5862 -0.6979
 5670TIP3    H238426   4.262   1.115  14.511 -0.7507 -0.7083 -0.4368
 5671TIP3   OH238427   1.236   3.697  16.644 -0.6518 -0.1989 -0.1297
 5671TIP3    H138428   1.308   3.668  16.588 -0.4754 -0.3256  0.1584
 5671TIP3    H238429   1.234   3.792  16.635  1.0575  0.0693  1.6362
 5672TIP3   OH238430   1.427   0.517   4.665 -0.0912 -0.4183 -0.4960
 5672TIP3    H138431   1.412   0.427   4.636  1.7983 -1.5475  1.6838
 5672TIP3    H238432   1.509   0.513   4.714 -0.3868  2.3436  0.3991
 5673TIP3   OH238433   6.251   1.197   3.846  0.1250  0.1130  0.3616
 5673TIP3    H138434   6.219   1.147   3.771  0.0872 -0.5184  0.7969
 5673TIP3    H238435   6.204   1.160   3.921 -1.1409  1.8754  0.5051
 5674TIP3   OH238436   1.098   6.386  15.622 -0.7715  0.1856  0.6636
 5674TIP3    H138437   1.189   6.367  15.644 -0.8604  0.4955  1.3436
 5674TIP3    H238438   1.089   6.362  15.530  0.4681  1.8671  0.0770
 5675TIP3   OH238439   6.366   0.912  10.484 -0.0749  0.1259 -0.0761
 5675TIP3    H138440   6.335   0.915  10.575  0.5264  0.9908  0.1047
 5675TIP3    H238441   6.428   0.984  10.477  0.9706 -0.8006 -0.7788
 5676TIP3   OH238442   1.688   1.767  16.551 -0.1772  0.0116 -0.3398
 5676TIP3    H138443   1.618   1.809  16.501 -1.5739  0.0159  1.4859
 5676TIP3    H238444   1.704   1.684  16.506 -1.9824 -0.3728 -0.3539
 5677TIP3   OH238445   4.246   0.800   0.868 -0.0060  0.0829  0.1334
 5677TIP3    H138446   4.265   0.810   0.774 -1.6711 -2.1977 -0.5379
 5677TIP3    H238447   4.303   0.729   0.896 -0.4822 -0.1533  0.5137
 5678TIP3   OH238448   2.797   4.576   4.460 -0.8746 -0.1170  0.0371
 5678TIP3    H138449   2.762   4.640   4.398  1.0471  0.2736 -0.6973
 5678TIP3    H238450   2.744   4.497   4.445 -1.9136  0.6666 -0.5002
 5679TIP3   OH238451   5.907   3.467   1.395 -0.7134 -0.1099  0.5460
 5679TIP3    H138452   5.857   3.386   1.388 -0.2967 -0.3147 -0.2338
 5679TIP3    H238453   5.905   3.504   1.306 -0.5491  0.5161  0.7987
 5680TIP3   OH238454   4.337   5.380   5.013 -0.1098  0.3117 -0.2606
 5680TIP3    H138455   4.406   5.409   5.074  1.9438 -0.0750 -2.2861
 5680TIP3    H238456   4.261   5.366   5.069  1.4978  0.5369  2.1407
 5681TIP3   OH238457   3.433   2.015  14.376 -0.1442 -0.0431 -0.0312
 5681TIP3    H138458   3.528   2.011  14.388 -0.1298  0.1324 -0.0892
 5681TIP3    H238459   3.406   2.093  14.425 -0.6486 -1.7010  2.5667
 5682TIP3   OH238460   2.884   3.472   5.014 -0.1343 -0.1370  0.6959
 5682TIP3    H138461   2.923   3.390   4.986  0.3621 -0.1537  1.4058
 5682TIP3    H238462   2.958   3.530   5.031 -0.4899  1.0330 -1.3916
 5683TIP3   OH238463   4.568   0.855  13.006  0.7114  0.7465  0.0627
 5683TIP3    H138464   4.533   0.854  13.095  2.0923 -0.3364  0.6274
 5683TIP3    H238465   4.622   0.933  13.002 -0.0626  1.2859 -0.1392
 5684TIP3   OH238466   3.968   0.333  10.748  0.2333  0.3500 -0.4970
 5684TIP3    H138467   4.017   0.368  10.822 -0.0253  0.1634 -0.2370
 5684TIP3    H238468   4.029   0.340  10.674  1.7575 -2.5116  0.3213
 5685TIP3   OH238469   4.593   1.067  15.201 -0.3211 -0.0035 -0.2038
 5685TIP3    H138470   4.652   1.127  15.247 -0.0786 -0.3605 -0.0404
 5685TIP3    H238471   4.615   0.981  15.237  0.0582 -0.3260 -1.1779
 5686TIP3   OH238472   4.694   1.889  14.585  0.4811 -0.0553  0.1308
 5686TIP3    H138473   4.699   1.985  14.594  3.0545 -0.0307 -0.6991
 5686TIP3    H238474   4.627   1.875  14.518 -0.0623  1.1260  0.3848
 5687TIP3   OH238475   6.541   0.569   5.224 -0.1058 -0.0332  0.5883
 5687TIP3    H138476   6.608   0.616   5.175  0.0830 -1.6005 -0.7088
 5687TIP3    H238477   6.471   0.634   5.237  0.3783  0.7727 -0.6695
 5688TIP3   OH238478   4.249   1.444   1.633  0.1419 -0.2421  0.2372
 5688TIP3    H138479   4.236   1.424   1.726  1.6527 -1.1910  0.2820
 5688TIP3    H238480   4.331   1.494   1.631 -1.0069  1.7223 -0.3999
 5689TIP3   OH238481   4.897   3.279   5.885 -0.2337 -0.0168  0.0901
 5689TIP3    H138482   4.949   3.360   5.876  0.2391 -0.2413  0.6697
 5689TIP3    H238483   4.946   3.228   5.950 -0.0474 -1.1528 -0.9145
 5690TIP3   OH238484   5.457   0.530  14.243 -0.2912 -0.5893 -0.5979
 5690TIP3    H138485   5.453   0.514  14.149 -0.1254  0.4115 -0.7951
 5690TIP3    H238486   5.369   0.561  14.265 -0.4789 -1.3060 -0.3190
 5691TIP3   OH238487   3.034   5.758   4.993  0.5638  0.1875  0.2718
 5691TIP3    H138488   2.952   5.710   4.987 -0.0053  1.1936 -0.4799
 5691TIP3    H238489   3.047   5.772   5.087 -1.8363  2.7307  0.3815
 5692TIP3   OH238490   2.844   6.559  15.043  0.1693  0.2199  0.3257
 5692TIP3    H138491   2.865   6.625  15.110  0.1935 -1.1575  1.7119
 5692TIP3    H238492   2.777   6.504  15.083  0.1869 -0.6455 -0.7942
 5693TIP3   OH238493   4.077   5.576  15.484  0.1090  0.3458 -0.5417
 5693TIP3    H138494   4.020   5.585  15.560  1.8495  1.5980  0.6708
 5693TIP3    H238495   4.103   5.665  15.462  0.6532 -0.1006 -1.8238
 5694TIP3   OH238496   0.230   6.527  11.118  0.0019 -0.0938  0.1629
 5694TIP3    H138497   0.318   6.565  11.116  0.6419 -1.5340 -0.5782
 5694TIP3    H238498   0.208   6.510  11.026 -0.7319 -0.4500  0.3940
 5695TIP3   OH238499   6.366   3.896  13.364  0.4546  0.4325 -0.1338
 5695TIP3    H138500   6.348   3.924  13.454 -1.8607 -0.1585 -0.3539
 5695TIP3    H238501   6.343   3.803  13.363 -0.1433  0.5797 -1.4837
 5696TIP3   OH238502   6.423   3.117  13.802  0.4497  0.6131 -0.0597
 5696TIP3    H138503   6.468   3.046  13.847  0.2052  0.4438 -0.0769
 5696TIP3    H238504   6.445   3.104  13.710  0.9111  0.9310  0.0046
 5697TIP3   OH238505   6.388   5.733  13.608 -0.2649 -0.1641 -0.0336
 5697TIP3    H138506   6.362   5.737  13.700 -2.2296  0.3173 -0.5738
 5697TIP3    H238507   6.407   5.640  13.593  0.0025 -0.2622  0.8234
 5698TIP3   OH238508   4.234   6.762  13.010  0.4652  0.4867  0.2139
 5698TIP3    H138509   4.274   6.713  12.939  2.1429 -0.2747  1.6107
 5698TIP3    H238510   4.302   6.767  13.077 -1.3231  0.3946  2.1411
 5699TIP3   OH238511   1.161   3.543   2.802 -0.0596 -0.0641 -0.2344
 5699TIP3    H138512   1.235   3.582   2.848 -0.6041  1.7140 -0.7500
 5699TIP3    H238513   1.176   3.449   2.806  0.2103  0.0305  3.0276
 5700TIP3   OH238514   6.082   0.417  11.358  0.5127  0.2539  0.3076
 5700TIP3    H138515   6.123   0.446  11.440 -0.5520 -1.7268  1.6278
 5700TIP3    H238516   6.014   0.356  11.386  0.1630 -0.5534 -2.0920
 5701TIP3   OH238517   5.317   4.996   5.124  0.7886  0.9190  0.1711
 5701TIP3    H138518   5.345   5.012   5.215 -0.2447 -2.3769  1.2131
 5701TIP3    H238519   5.224   5.015   5.124  0.1605 -1.7729  0.6821
 5702TIP3   OH238520   1.773   3.409  16.762 -0.2688  0.3348 -0.2088
 5702TIP3    H138521   1.707   3.376  16.823 -0.3676  1.3194  0.2297
 5702TIP3    H238522   1.733   3.486  16.723  0.6327  0.9669  0.0919
 5703TIP3   OH238523   1.354   2.906  11.812 -0.1853  0.1140  0.4980
 5703TIP3    H138524   1.335   2.848  11.738 -0.6420  1.1609 -0.2162
 5703TIP3    H238525   1.273   2.955  11.826  0.3649  0.9803  0.7311
 5704TIP3   OH238526   2.579   0.830  11.468 -0.4395  0.2170  0.0020
 5704TIP3    H138527   2.608   0.774  11.397  0.3586  0.0813  0.4267
 5704TIP3    H238528   2.551   0.770  11.537  1.5314  0.2769  0.9241
 5705TIP3   OH238529   2.991   0.969  12.153 -0.4861  0.5252  0.6335
 5705TIP3    H138530   2.967   0.953  12.062  0.6955 -1.4095  0.6177
 5705TIP3    H238531   2.935   0.909  12.203 -0.8719  1.3163  1.1819
 5706TIP3   OH238532   2.707   1.278  16.511  0.3273  0.4967  0.1239
 5706TIP3    H138533   2.692   1.190  16.545  0.3043  0.3421 -0.2889
 5706TIP3    H238534   2.795   1.274  16.473 -0.4495  0.0748 -1.7269
 5707TIP3   OH238535   3.308   5.619  13.279  0.3870 -0.0308  0.4357
 5707TIP3    H138536   3.326   5.708  13.310  0.3703  0.0305  0.2666
 5707TIP3    H238537   3.330   5.620  13.186 -0.3568 -0.0002  0.2588
 5708TIP3   OH238538   1.106   4.214  15.482 -0.9536 -0.2243  0.3692
 5708TIP3    H138539   1.137   4.299  15.511 -0.8414  0.1927 -0.8855
 5708TIP3    H238540   1.168   4.151  15.519  2.3454  0.6323 -3.0533
 5709TIP3   OH238541   6.254   1.667   1.737  0.5712 -0.3638 -0.1809
 5709TIP3    H138542   6.293   1.753   1.729  2.0198 -1.0799 -1.2554
 5709TIP3    H238543   6.292   1.630   1.817  1.4628 -0.7129 -0.7452
 5710TIP3   OH238544   2.130   2.452  16.918  0.6081  0.2473 -0.5762
 5710TIP3    H138545   2.215   2.447  16.875  0.8210 -1.3367 -0.0176
 5710TIP3    H238546   2.069   2.417  16.854  0.2672  1.7747 -1.1419
 5711TIP3   OH238547   4.170   1.197   3.813 -0.2079  0.2180 -0.3753
 5711TIP3    H138548   4.243   1.216   3.872 -0.3916  0.2274 -0.1509
 5711TIP3    H238549   4.097   1.246   3.850 -1.1725 -2.2691  1.2327
 5712TIP3   OH238550   3.704   4.835  15.993 -0.1233 -0.1294 -0.3227
 5712TIP3    H138551   3.702   4.798  16.081  1.1677 -0.8909 -0.5731
 5712TIP3    H238552   3.618   4.816  15.956 -0.5049 -0.2334  0.6095
 5713TIP3   OH238553   6.638   0.868  14.199 -0.3974 -0.1920 -0.0980
 5713TIP3    H138554   6.728   0.888  14.227 -0.6078 -0.6253  0.9373
 5713TIP3    H238555   6.647   0.788  14.147 -0.1127  0.1270 -0.5548
 5714TIP3   OH238556   1.979   0.813   2.754  0.3090 -0.2601  0.2397
 5714TIP3    H138557   1.937   0.839   2.836  0.4044 -2.1254  0.9286
 5714TIP3    H238558   2.035   0.887   2.731 -1.9842  1.5706  0.2007
 5715TIP3   OH238559   5.380   4.961  10.383 -0.5750 -0.0450 -0.6698
 5715TIP3    H138560   5.454   4.931  10.437 -0.4907  0.8624 -0.2653
 5715TIP3    H238561   5.350   4.882  10.338 -0.8806 -0.9048  0.9774
 5716TIP3   OH238562   4.342   2.208  12.018 -0.0914 -0.1701  0.2800
 5716TIP3    H138563   4.391   2.249  12.089 -0.4623  0.4908  0.1595
 5716TIP3    H238564   4.305   2.129  12.058  0.1150 -0.0637  0.6877
 5717TIP3   OH238565   5.400   4.230   4.525  0.3686  0.3919 -0.1362
 5717TIP3    H138566   5.339   4.220   4.453  0.6178 -1.2503 -0.1597
 5717TIP3    H238567   5.478   4.270   4.486 -0.2542  1.4324 -0.3350
 5718TIP3   OH238568   0.752   0.930   5.188 -0.4189 -0.3973 -0.2520
 5718TIP3    H138569   0.760   0.997   5.120  0.5017  0.2213  0.4306
 5718TIP3    H238570   0.821   0.867   5.166 -0.1680 -0.2332  0.0557
 5719TIP3   OH238571   3.946   0.645   0.350  0.4129  0.0895 -0.3600
 5719TIP3    H138572   3.889   0.633   0.426  0.1153 -2.4682 -0.9017
 5719TIP3    H238573   4.018   0.699   0.383  0.5342 -1.3242  1.9349
 5720TIP3   OH238574   3.937   5.492   2.386 -0.1287  0.0035 -0.5254
 5720TIP3    H138575   3.916   5.482   2.293  1.3022 -0.8029 -0.7907
 5720TIP3    H238576   3.964   5.404   2.414  1.0378  0.5856  0.2275
 5721TIP3   OH238577   3.792   5.193  13.307  0.4995 -0.0414  0.4954
 5721TIP3    H138578   3.784   5.143  13.226 -1.6243  0.1410  0.5487
 5721TIP3    H238579   3.758   5.135  13.375  1.8289 -0.0219  1.2218
 5722TIP3   OH238580   5.149   1.887  15.491 -0.0422 -0.0341 -0.2544
 5722TIP3    H138581   5.058   1.861  15.499 -0.2089  0.9339  1.5730
 5722TIP3    H238582   5.157   1.964  15.548  1.9313 -0.1937 -0.2456
 5723TIP3   OH238583   5.984   2.356  11.606 -0.5977  0.0945  0.5064
 5723TIP3    H138584   6.067   2.320  11.638 -0.5274  0.7478  1.0989
 5723TIP3    H238585   5.919   2.321  11.666 -0.9986 -1.7217 -0.9103
 5724TIP3   OH238586   0.393   2.813   5.723 -0.4383  0.0577  0.0446
 5724TIP3    H138587   0.471   2.843   5.678 -0.3861  1.8240  1.2103
 5724TIP3    H238588   0.420   2.802   5.814 -1.5945  1.0370  0.5406
 5725TIP3   OH238589   2.187   5.848   5.005 -0.3028 -0.1713  0.4510
 5725TIP3    H138590   2.218   5.917   5.063 -0.0192 -0.9891  1.2873
 5725TIP3    H238591   2.101   5.879   4.974 -0.7463  0.0051  1.8030
 5726TIP3   OH238592   1.173   0.344  16.257  0.1219 -0.3260 -0.1460
 5726TIP3    H138593   1.210   0.384  16.336 -1.3203 -1.8820  1.4039
 5726TIP3    H238594   1.084   0.379  16.252  0.3831  0.2099 -1.4664
 5727TIP3   OH238595   0.243   1.029   0.775  0.3021 -0.6031 -0.2276
 5727TIP3    H138596   0.334   1.044   0.751  0.1348 -0.1398 -0.6126
 5727TIP3    H238597   0.203   1.116   0.771 -0.9253 -1.1620 -3.4100
 5728TIP3   OH238598   4.085   3.957  14.146  0.3408  0.0377  0.2072
 5728TIP3    H138599   4.142   4.000  14.211  2.0217  0.3438 -1.3823
 5728TIP3    H238600   4.087   4.015  14.070 -0.6131 -0.8884 -0.5534
 5729TIP3   OH238601   1.116   0.484   3.971 -0.2692  0.3086 -0.1666
 5729TIP3    H138602   1.026   0.486   4.004  0.0288 -0.2533  0.6955
 5729TIP3    H238603   1.125   0.398   3.930  0.1794 -0.0345  0.6372
 5730TIP3   OH238604   2.110   6.217  13.506 -0.6727  0.2519  0.0076
 5730TIP3    H138605   2.159   6.135  13.496 -2.0377 -0.8980  2.1394
 5730TIP3    H238606   2.033   6.206  13.450 -1.5303 -0.5312  1.2975
 5731TIP3   OH238607   2.524   1.095   3.916  0.3046  0.5227 -0.0865
 5731TIP3    H138608   2.435   1.111   3.887  0.3302 -0.5570 -0.8089
 5731TIP3    H238609   2.520   1.104   4.012 -0.4940  0.8258 -0.1436
 5732TIP3   OH238610   6.444   0.659  11.906  0.4247  0.5471 -0.1355
 5732TIP3    H138611   6.446   0.568  11.935  0.3865  0.9680  1.2649
 5732TIP3    H238612   6.536   0.684  11.896  0.5096  0.8825  1.2927
 5733TIP3   OH238613   6.394   0.008  15.932 -0.2932  0.3242  0.3255
 5733TIP3    H138614   6.412  -0.076  15.975  0.7484  0.0370 -0.6159
 5733TIP3    H238615   6.365  -0.016  15.844 -0.4652  0.9348  0.2141
 5734TIP3   OH238616   3.762   1.009  13.950 -0.0360  0.1845 -0.0403
 5734TIP3    H138617   3.794   1.022  13.860 -1.0553  0.7805 -0.3274
 5734TIP3    H238618   3.841   0.984  13.999  0.9438  1.8068 -0.6786
 5735TIP3   OH238619   3.902   3.041   5.967 -0.3271 -0.4963  0.1478
 5735TIP3    H138620   3.855   3.070   6.046  2.6337 -1.5629  2.5013
 5735TIP3    H238621   3.884   2.947   5.963  0.0027 -0.5461 -0.1090
 5736TIP3   OH238622   5.272   0.501   3.344 -0.4233 -0.0977  0.0950
 5736TIP3    H138623   5.181   0.512   3.372  0.2227  2.4938  1.6190
 5736TIP3    H238624   5.323   0.535   3.418  1.7513 -0.7224 -1.0396
 5737TIP3   OH238625   4.775   1.022   1.341  0.4094 -0.4439 -0.1728
 5737TIP3    H138626   4.734   0.938   1.320 -0.2396  0.2276 -1.7913
 5737TIP3    H238627   4.787   1.064   1.255  0.9152  1.0196  0.5882
 5738TIP3   OH238628   6.083   1.578   2.356 -0.1555 -0.7573 -0.2857
 5738TIP3    H138629   6.086   1.626   2.273  0.9750 -2.1666 -1.1064
 5738TIP3    H238630   6.164   1.527   2.357 -0.0826 -0.6682  1.7778
 5739TIP3   OH238631   6.464   4.494   3.681 -0.4846 -0.4060  0.1107
 5739TIP3    H138632   6.471   4.471   3.588  1.9356 -2.5420  0.7078
 5739TIP3    H238633   6.383   4.452   3.710 -1.7770  1.0879 -1.1746
 5740TIP3   OH238634   4.282   3.698   5.283 -0.3373 -0.4626 -0.1717
 5740TIP3    H138635   4.191   3.724   5.294 -0.5122 -1.8760  2.3203
 5740TIP3    H238636   4.278   3.621   5.225 -0.5864  0.0639 -0.8772
 5741TIP3   OH238637   5.037   2.922   4.035  0.3860 -0.0772 -0.3641
 5741TIP3    H138638   5.019   2.829   4.050  0.5901 -0.3006 -1.4235
 5741TIP3    H238639   5.078   2.925   3.949  3.7478  0.5617  1.0591
 5742TIP3   OH238640   4.253   1.893  16.026 -0.8213 -0.4696  0.1611
 5742TIP3    H138641   4.253   1.989  16.033  1.3061 -0.4219  0.2630
 5742TIP3    H238642   4.179   1.865  16.079 -0.6923  1.0664  1.2275
 5743TIP3   OH238643   6.426   5.784  11.550 -0.7969 -0.0896 -0.1752
 5743TIP3    H138644   6.371   5.805  11.474 -0.5033 -0.1230 -0.3987
 5743TIP3    H238645   6.515   5.794  11.518 -0.6704  0.6659  0.3826
 5744TIP3   OH238646   6.358   0.093   0.875 -0.1185 -0.0145 -0.2452
 5744TIP3    H138647   6.365   0.188   0.866  0.2228 -0.0875 -0.7712
 5744TIP3    H238648   6.385   0.059   0.790 -1.8729 -0.5159 -0.6300
 5745TIP3   OH238649   0.482   4.162  11.557  0.2594  0.1984 -0.3790
 5745TIP3    H138650   0.506   4.070  11.566  0.6834  0.1858 -1.4219
 5745TIP3    H238651   0.497   4.199  11.644 -3.0394 -1.3660  1.0113
 5746TIP3   OH238652   2.548   5.838  16.339 -0.0816  0.6535 -0.1973
 5746TIP3    H138653   2.536   5.743  16.336 -0.9103  0.6695  1.4022
 5746TIP3    H238654   2.470   5.871  16.384  0.2486  2.0867 -0.6209
 5747TIP3   OH238655   2.584   5.724   0.366 -0.9492  0.2146 -0.2050
 5747TIP3    H138656   2.513   5.778   0.402 -0.6795 -0.1576  0.9147
 5747TIP3    H238657   2.574   5.639   0.409  0.5489  0.3403  0.4256
 5748TIP3   OH238658   1.650   4.350  13.782 -0.0574 -0.3298 -0.2390
 5748TIP3    H138659   1.677   4.312  13.866  0.8117  0.2397 -0.2404
 5748TIP3    H238660   1.596   4.425  13.806  0.5574  0.0999 -0.1618
 5749TIP3   OH238661   4.102   5.555   5.082  0.0788  0.0638 -0.2023
 5749TIP3    H138662   4.069   5.489   5.021 -0.1602  0.1145 -0.1282
 5749TIP3    H238663   4.193   5.568   5.055  0.5724 -1.3472  0.6968
 5750TIP3   OH238664   6.722   2.969   1.980  0.3497  0.0155 -0.3234
 5750TIP3    H138665   6.795   2.917   2.016 -2.5074 -2.1578  2.9776
 5750TIP3    H238666   6.674   2.908   1.924  0.2081  0.9851 -1.2942
 5751TIP3   OH238667   3.482   0.814   4.282 -0.4552  0.1123  0.2603
 5751TIP3    H138668   3.444   0.729   4.259  0.9431 -0.5011  0.1356
 5751TIP3    H238669   3.408   0.864   4.316 -1.3933 -1.0056 -0.0473
 5752TIP3   OH238670   3.871   5.811  11.778  0.1880  0.3012 -0.3940
 5752TIP3    H138671   3.866   5.849  11.865 -0.7429  0.1997 -0.3908
 5752TIP3    H238672   3.886   5.886  11.720 -0.6076  0.5485 -0.2862
 5753TIP3   OH238673   0.376   6.722  13.109  0.0904 -0.1802 -0.4033
 5753TIP3    H138674   0.304   6.662  13.128 -1.0926  0.7222 -1.8133
 5753TIP3    H238675   0.362   6.796  13.168  0.4932 -0.4920  0.0800
 5754TIP3   OH238676   2.630   2.580  12.163  0.0694  0.2967  0.1257
 5754TIP3    H138677   2.687   2.540  12.097  0.8582 -0.6525  1.3260
 5754TIP3    H238678   2.541   2.562  12.133  0.4185 -0.7156 -0.3279
 5755TIP3   OH238679   6.193   3.169  12.646 -0.2039 -0.0650 -0.2273
 5755TIP3    H138680   6.141   3.229  12.593  0.0179  1.2563  1.0201
 5755TIP3    H238681   6.128   3.113  12.689 -0.5460  0.7436  0.3312
 5756TIP3   OH238682   6.765   3.129   4.437  0.6392  0.7168  0.1902
 5756TIP3    H138683   6.719   3.126   4.353  0.8110  1.6242  0.0523
 5756TIP3    H238684   6.831   3.197   4.426  2.5634 -1.0533  0.1272
 5757TIP3   OH238685   3.318   5.098  13.872 -0.4149 -0.0007 -0.2068
 5757TIP3    H138686   3.265   5.053  13.938  0.9207 -0.9429  0.2594
 5757TIP3    H238687   3.360   5.028  13.823 -0.2890  0.7211 -1.1487
 5758TIP3   OH238688   4.522   3.935   2.262 -0.1229 -0.1895 -0.3154
 5758TIP3    H138689   4.455   3.904   2.202 -1.2732 -0.7803  1.1912
 5758TIP3    H238690   4.473   3.985   2.328  0.8451 -0.9335  1.0183
 5759TIP3   OH238691   0.402   3.938  13.409 -0.2566  0.6394  0.4762
 5759TIP3    H138692   0.376   3.892  13.330  0.3770  0.6449  0.2618
 5759TIP3    H238693   0.497   3.943  13.405  0.0030 -1.3806  2.3468
 5760TIP3   OH238694   4.602   0.358   1.809  0.2032 -0.0458 -0.1529
 5760TIP3    H138695   4.513   0.381   1.781  0.3165 -0.2224 -0.6667
 5760TIP3    H238696   4.659   0.417   1.760  0.4876 -1.2933 -1.4098
 5761TIP3   OH238697   2.109   0.975  14.560  0.7069  0.4709 -0.3974
 5761TIP3    H138698   2.159   0.931  14.491  0.0344 -0.2854 -0.4212
 5761TIP3    H238699   2.155   1.058  14.573  0.3148  1.0576 -2.3948
 5762TIP3   OH238700   5.726   1.692   5.283 -0.2662 -0.0473  0.2737
 5762TIP3    H138701   5.671   1.752   5.333 -0.9845 -0.1620 -0.3720
 5762TIP3    H238702   5.815   1.710   5.315 -0.6969 -0.1050  1.5658
 5763TIP3   OH238703   5.466   2.826  16.186  0.1994  0.3376  0.8282
 5763TIP3    H138704   5.427   2.769  16.253 -0.7989 -0.9575 -0.7491
 5763TIP3    H238705   5.511   2.894  16.235  1.2350 -1.6629  2.8407
 5764TIP3   OH238706   2.885   1.898  12.022 -0.4424  0.7475 -0.1939
 5764TIP3    H138707   2.970   1.860  12.001 -0.4596 -1.0183  2.4148
 5764TIP3    H238708   2.828   1.873  11.949  0.4798 -1.0783 -0.3450
 5765TIP3   OH238709   6.279   6.095   6.561  0.2110 -0.6384 -0.1714
 5765TIP3    H138710   6.280   6.160   6.491  2.7846 -1.8760 -1.4127
 5765TIP3    H238711   6.192   6.056   6.556 -0.8192  1.5227 -0.4441
 5766TIP3   OH238712   4.420   1.395   4.037  0.1950 -0.4832  0.7714
 5766TIP3    H138713   4.327   1.381   4.053  0.1747 -2.2145 -0.5407
 5766TIP3    H238714   4.462   1.313   4.063  1.1137 -0.3734 -0.2691
 5767TIP3   OH238715   1.926   0.079  16.601  0.1743 -0.1777 -0.0470
 5767TIP3    H138716   1.950   0.083  16.694 -0.0818 -1.0710  0.0736
 5767TIP3    H238717   1.968  -0.001  16.569 -1.0937 -0.7960 -0.2726
 5768TIP3   OH238718   1.835   1.225   1.076 -0.3030  0.9095 -0.3805
 5768TIP3    H138719   1.924   1.195   1.058 -0.7224 -0.1357 -0.7903
 5768TIP3    H238720   1.847   1.305   1.127  0.8682 -0.2366  1.2505
 5769TIP3   OH238721   4.841   1.235  12.471 -0.2235 -0.2104  0.1395
 5769TIP3    H138722   4.824   1.283  12.552  0.4118  2.1169 -1.0020
 5769TIP3    H238723   4.932   1.206  12.479 -0.0925  0.2043  0.1843
 5770TIP3   OH238724   0.635   2.138  15.181 -0.5799 -0.0038  0.5943
 5770TIP3    H138725   0.667   2.226  15.201 -1.1677  0.1597  0.8340
 5770TIP3    H238726   0.687   2.081  15.237  0.3937  0.0957 -0.1593
 5771TIP3   OH238727   3.924   5.951   5.005 -0.2610 -0.0199  0.1572
 5771TIP3    H138728   3.950   5.917   4.920 -0.3710 -0.6744  0.3777
 5771TIP3    H238729   3.904   5.873   5.057 -0.8780  0.3961  0.5637
 5772TIP3   OH238730   0.392   6.202  12.493  0.0612  0.6799  0.8262
 5772TIP3    H138731   0.316   6.157  12.530  0.7894  0.3720  2.0112
 5772TIP3    H238732   0.400   6.167  12.404  0.5362 -1.5056  1.6696
 5773TIP3   OH238733   2.996   1.684  15.621  0.1504 -0.1034 -0.1344
 5773TIP3    H138734   2.904   1.712  15.623 -0.0900 -0.8425 -0.4481
 5773TIP3    H238735   2.996   1.598  15.663  1.2727  1.3426  3.0964
 5774TIP3   OH238736   3.537   6.580  15.929  0.3769 -0.0517 -0.4379
 5774TIP3    H138737   3.487   6.589  16.010  0.4867 -0.3084 -0.3396
 5774TIP3    H238738   3.563   6.488  15.927  0.3961 -0.0396 -0.7534
 5775TIP3   OH238739   6.453   1.540   0.039 -0.1953 -0.2732  0.3534
 5775TIP3    H138740   6.496   1.457   0.020  1.9191  0.6780  0.6866
 5775TIP3    H238741   6.394   1.521   0.112  0.1596 -1.4980  0.3424
 5776TIP3   OH238742   3.500   5.280  15.008  0.3223  0.3466 -0.1808
 5776TIP3    H138743   3.515   5.325  15.090 -1.4937 -0.3484  0.5953
 5776TIP3    H238744   3.531   5.340  14.941  0.1255  1.7300  0.9249
 5777TIP3   OH238745   0.635   6.518  15.973  0.1965 -0.3125 -0.2983
 5777TIP3    H138746   0.563   6.543  16.031 -0.7979 -2.4094 -0.5287
 5777TIP3    H238747   0.712   6.558  16.011 -0.7174 -0.0836  1.4057
 5778TIP3   OH238748   2.798   0.652  12.111 -0.1917 -0.0857  0.1957
 5778TIP3    H138749   2.722   0.638  12.166 -0.3685  0.5872  0.1242
 5778TIP3    H238750   2.803   0.572  12.058  0.4369 -1.0827  1.6909
 5779TIP3   OH238751   6.063   3.851   0.295  0.2598 -0.5783  0.2908
 5779TIP3    H138752   5.976   3.840   0.332  0.3613  1.6804  1.3478
 5779TIP3    H238753   6.049   3.898   0.213  0.5202  0.8361  1.0282
 5780TIP3   OH238754   5.380   5.409  13.367  0.6018 -0.0069 -0.1881
 5780TIP3    H138755   5.359   5.339  13.305 -1.0247 -1.0268  1.4078
 5780TIP3    H238756   5.366   5.490  13.318  1.8481 -0.7456 -1.8664
 5781TIP3   OH238757   6.584   1.290   2.169  0.7191  0.2403 -0.3387
 5781TIP3    H138758   6.528   1.365   2.147  1.4656  1.1636  0.8151
 5781TIP3    H238759   6.657   1.296   2.107  2.2128  2.1566  1.4517
 5782TIP3   OH238760   2.208   4.147   2.248 -0.5498 -0.4369 -0.0673
 5782TIP3    H138761   2.296   4.168   2.216 -1.5428  2.3106 -1.3395
 5782TIP3    H238762   2.215   4.150   2.343  0.7302 -0.1776 -0.1548
 5783TIP3   OH238763   0.795   3.556  16.373  0.4681 -0.1989  0.3628
 5783TIP3    H138764   0.773   3.472  16.415  0.4107 -1.6916 -2.4129
 5783TIP3    H238765   0.710   3.599  16.361  0.4362  0.0011  1.2114
 5784TIP3   OH238766   5.288   0.157   2.772  0.2242 -0.4441 -0.1116
 5784TIP3    H138767   5.237   0.078   2.787  1.2067 -1.2136 -0.7464
 5784TIP3    H238768   5.292   0.200   2.857 -2.0060 -0.0197 -0.1650
 5785TIP3   OH238769   0.635   5.541  11.642 -0.2131  0.5517 -0.6505
 5785TIP3    H138770   0.631   5.547  11.738  0.5212 -0.2454 -0.5603
 5785TIP3    H238771   0.579   5.466  11.621 -0.8900  1.1128 -0.9144
 5786TIP3   OH238772   1.299   3.713  14.289 -0.2134  0.5627 -0.0220
 5786TIP3    H138773   1.249   3.793  14.305  0.1778  0.5306  1.5294
 5786TIP3    H238774   1.365   3.712  14.358  1.6834  0.3858 -1.7375
 5787TIP3   OH238775   3.114   5.938   5.979 -0.1049 -0.4052  0.1130
 5787TIP3    H138776   3.034   5.885   5.979  0.9377 -2.0895  2.1494
 5787TIP3    H238777   3.177   5.887   6.030  1.0309  2.7238  2.0743
 5788TIP3   OH238778   4.516   1.628   3.691  0.5072  0.9655 -0.1575
 5788TIP3    H138779   4.426   1.653   3.709  0.2552 -2.1230  5.1412
 5788TIP3    H238780   4.511   1.535   3.668  2.3188  0.8429 -0.2479
 5789TIP3   OH238781   2.579   1.949   1.382 -0.1093  0.1459 -0.1006
 5789TIP3    H138782   2.542   1.872   1.339  0.7008  0.1241 -0.7630
 5789TIP3    H238783   2.651   1.977   1.326  1.3858 -0.2639  1.5306
 5790TIP3   OH238784   3.425   0.124   0.665 -0.1548  0.2392  0.1235
 5790TIP3    H138785   3.348   0.115   0.609 -0.8508  1.3689  0.8656
 5790TIP3    H238786   3.481   0.187   0.620  0.5674 -0.9068 -0.6326
 5791TIP3   OH238787   4.304   2.630   5.131 -0.1044 -0.1954  0.8723
 5791TIP3    H138788   4.250   2.579   5.071  0.3380  0.6386 -0.2713
 5791TIP3    H238789   4.364   2.566   5.169  1.0829 -0.4446 -1.2585
 5792TIP3   OH238790   6.638   4.539   4.209  0.1876 -0.0932 -0.5363
 5792TIP3    H138791   6.602   4.616   4.252  1.2550  0.3279 -0.3629
 5792TIP3    H238792   6.563   4.480   4.199 -0.4789  0.6241  0.0676
 5793TIP3   OH238793   2.288   0.943  11.411 -0.1233  0.5795  0.1348
 5793TIP3    H138794   2.215   0.880  11.415 -0.0224  0.4106 -0.4814
 5793TIP3    H238795   2.363   0.891  11.381  0.2159  0.7825  0.6295
 5794TIP3   OH238796   1.369   5.827   1.882 -0.6979  0.2390 -0.3856
 5794TIP3    H138797   1.430   5.807   1.953  0.3533 -0.2795 -1.3983
 5794TIP3    H238798   1.310   5.753   1.879  1.2831 -1.4215 -2.1180
 5795TIP3   OH238799   5.543   2.498   0.224 -0.2406 -0.4324  0.2782
 5795TIP3    H138800   5.555   2.584   0.264  0.6764 -0.6552  0.5136
 5795TIP3    H238801   5.600   2.440   0.274  0.4416 -0.8531 -0.9277
 5796TIP3   OH238802   0.372   4.197   4.290  0.3551 -0.9068  0.5418
 5796TIP3    H138803   0.371   4.132   4.360  2.4556  0.1701  1.6742
 5796TIP3    H238804   0.319   4.269   4.325 -0.2040 -1.1379  0.1832
 5797TIP3   OH238805   1.477   6.441   0.088  0.4540  0.3795  0.0532
 5797TIP3    H138806   1.395   6.393   0.081  0.4816  0.5603 -2.1706
 5797TIP3    H238807   1.465   6.518   0.033  1.8179  0.8418  0.3525
 5798TIP3   OH238808   4.494   2.522   1.567  0.3553  0.2610 -0.2672
 5798TIP3    H138809   4.555   2.562   1.504 -0.0601  1.4588  0.0631
 5798TIP3    H238810   4.455   2.449   1.519  1.2416  0.1431 -0.8468
 5799TIP3   OH238811   6.109   2.311   3.331 -0.4339 -0.5510 -0.1646
 5799TIP3    H138812   6.152   2.391   3.362 -1.3069  0.1559 -0.7367
 5799TIP3    H238813   6.120   2.249   3.403  2.4377 -0.7566 -0.6940
 5800TIP3   OH238814   2.926   4.592   0.830  0.1698  0.0155  0.1109
 5800TIP3    H138815   2.934   4.497   0.826 -0.6500 -0.2251  2.6068
 5800TIP3    H238816   2.833   4.608   0.841  0.1769  1.1990 -1.2295
 5801TIP3   OH238817   5.641   3.928   3.738  0.5400 -0.0479 -0.2220
 5801TIP3    H138818   5.566   3.964   3.691 -0.0878 -2.4284 -1.1756
 5801TIP3    H238819   5.685   4.005   3.774 -0.8293  1.6241 -1.8858
 5802TIP3   OH238820   1.226   2.125  16.045  0.6114  0.2202  0.2876
 5802TIP3    H138821   1.141   2.150  16.080  0.0797 -0.9488 -0.1393
 5802TIP3    H238822   1.263   2.207  16.012 -0.7313  0.6041 -0.3277
 5803TIP3   OH238823   2.393   1.940   2.604  0.8000  0.3198  0.4404
 5803TIP3    H138824   2.315   1.964   2.654  0.1087 -1.0805  0.0894
 5803TIP3    H238825   2.462   1.928   2.670 -0.0056 -1.1400  1.0751
 5804TIP3   OH238826   2.362   6.575  11.591  0.0617 -0.1662  0.1885
 5804TIP3    H138827   2.432   6.531  11.543  0.0089 -0.2869  0.2228
 5804TIP3    H238828   2.378   6.669  11.575 -0.1580 -0.2155 -0.3502
 5805TIP3   OH238829   3.252   2.796  13.276  0.0965 -0.4975  0.4162
 5805TIP3    H138830   3.291   2.753  13.201  0.0630  0.9008 -0.4381
 5805TIP3    H238831   3.312   2.778  13.348  2.3824  1.5444 -0.8453
 5806TIP3   OH238832   0.598   6.422   5.333 -0.0340  0.5182  0.3313
 5806TIP3    H138833   0.549   6.493   5.375 -1.0636  0.0634 -0.0721
 5806TIP3    H238834   0.531   6.360   5.305  0.7900 -0.1801 -0.1398
 5807TIP3   OH238835   0.991   5.375  14.885 -0.1888  0.4337  0.0557
 5807TIP3    H138836   0.919   5.438  14.890 -0.0121  0.6296  0.1678
 5807TIP3    H238837   1.053   5.405  14.951  0.7791  1.2419 -1.1853
 5808TIP3   OH238838   2.549   4.001   2.055 -0.0503  0.8218 -0.2207
 5808TIP3    H138839   2.514   4.045   2.133 -1.5354  0.6367 -0.7682
 5808TIP3    H238840   2.564   3.911   2.083 -3.3522 -0.0407 -0.8527
 5809TIP3   OH238841   0.593   3.327  14.972 -0.4996  0.2751 -0.3364
 5809TIP3    H138842   0.613   3.248  15.022 -2.4004 -0.6761 -0.9982
 5809TIP3    H238843   0.499   3.338  14.980 -0.4812  1.6305 -1.5082
 5810TIP3   OH238844   6.300   1.528  12.451 -0.6010 -0.8824 -0.6441
 5810TIP3    H138845   6.322   1.621  12.458 -5.0009  0.3362  0.8485
 5810TIP3    H238846   6.292   1.512  12.357 -0.0357  0.3290 -0.9211
 5811TIP3   OH238847   1.245   2.818  13.729 -0.4039 -0.3198  0.1258
 5811TIP3    H138848   1.268   2.766  13.652  0.6037 -0.6870  0.6600
 5811TIP3    H238849   1.149   2.825  13.726 -0.6742 -2.9230  0.4784
 5812TIP3   OH238850   6.295   0.740   1.566 -0.3254  0.2174  0.2567
 5812TIP3    H138851   6.365   0.721   1.628  0.2106 -1.4316 -0.7793
 5812TIP3    H238852   6.337   0.789   1.496 -0.8031  1.5550  0.8779
 5813TIP3   OH238853   3.597   2.708   4.002 -0.5224 -0.3168  0.1637
 5813TIP3    H138854   3.553   2.791   4.021  1.8511  0.7542  1.3833
 5813TIP3    H238855   3.688   2.732   3.986 -0.3099 -2.4141 -2.4304
 5814TIP3   OH238856   2.004   2.343   0.771 -0.2134  0.4068 -0.3816
 5814TIP3    H138857   1.957   2.406   0.826  1.5282  0.7770  0.7774
 5814TIP3    H238858   2.001   2.381   0.683 -2.5285  0.1083 -0.4937
 5815TIP3   OH238859   2.024   5.114  15.017 -0.3576  0.0688 -1.1119
 5815TIP3    H138860   1.956   5.071  15.069  1.4442 -1.0078  0.4864
 5815TIP3    H238861   2.011   5.207  15.032  0.7083 -0.1879  2.2645
 5816TIP3   OH238862   0.963   1.655  13.542 -0.0021 -0.1978  0.0796
 5816TIP3    H138863   0.873   1.665  13.574 -0.5714  2.0833 -1.8994
 5816TIP3    H238864   0.959   1.687  13.452  2.6516 -0.8360 -0.3291
 5817TIP3   OH238865   5.526   6.619   5.561  0.2750  0.0060 -1.2493
 5817TIP3    H138866   5.542   6.533   5.600 -1.3842  0.4228  0.5562
 5817TIP3    H238867   5.611   6.648   5.530  0.8897 -2.2217 -1.7832
 5818TIP3   OH238868   2.476   3.500   0.831  0.8018 -0.2370 -0.3633
 5818TIP3    H138869   2.518   3.468   0.911  0.2942 -0.1231 -0.0428
 5818TIP3    H238870   2.465   3.594   0.846  1.2268 -0.1149 -0.8100
 5819TIP3   OH238871   4.104   6.207   3.330 -0.3217  0.3251  0.0603
 5819TIP3    H138872   4.160   6.230   3.404 -0.1396  1.5318 -0.4295
 5819TIP3    H238873   4.165   6.192   3.258 -0.5662  0.5597 -0.1986
 5820TIP3   OH238874   4.302   5.863  13.315 -0.6457 -0.0754 -0.2810
 5820TIP3    H138875   4.289   5.929  13.247 -1.7810  0.5259  0.4848
 5820TIP3    H238876   4.281   5.908  13.396 -0.5297 -1.1276  0.3487
 5821TIP3   OH238877   3.188   2.583  14.316  0.0609 -0.5730 -0.4799
 5821TIP3    H138878   3.247   2.642  14.363 -0.2833 -0.3198 -0.3657
 5821TIP3    H238879   3.126   2.554  14.382 -0.8421  0.3105 -0.9081
 5822TIP3   OH238880   3.026   3.309   4.464  0.3177  0.3633  0.0709
 5822TIP3    H138881   2.987   3.361   4.534  1.8114  0.4056  0.9071
 5822TIP3    H238882   3.054   3.374   4.399 -2.9361  0.2339 -1.6747
 5823TIP3   OH238883   5.769   5.432   5.055  0.1087  0.0629  0.3525
 5823TIP3    H138884   5.748   5.360   5.115 -0.2572 -0.0817  0.0554
 5823TIP3    H238885   5.795   5.388   4.973  1.0516  0.2466  0.5337
 5824TIP3   OH238886   6.679   6.282  14.729  0.6019 -0.6337  0.3210
 5824TIP3    H138887   6.757   6.227  14.721  0.5126 -0.7817  0.4836
 5824TIP3    H238888   6.693   6.351  14.664  1.2063 -0.2563  0.8388
 5825TIP3   OH238889   6.771   1.841   1.410 -0.1442  0.0711 -0.3742
 5825TIP3    H138890   6.777   1.881   1.323 -1.7231  0.0726 -0.4972
 5825TIP3    H238891   6.764   1.747   1.392 -2.2566  0.1959 -0.3543
 5826TIP3   OH238892   1.654   5.016   2.509  0.0673  0.5151  0.4968
 5826TIP3    H138893   1.666   5.007   2.415 -1.1519 -2.3464  0.5070
 5826TIP3    H238894   1.723   4.962   2.548  2.3555  3.8197  1.4892
 5827TIP3   OH238895   3.548   2.883   0.950 -0.1459  0.6077 -0.1645
 5827TIP3    H138896   3.631   2.900   0.907  0.0028 -1.5645 -0.8812
 5827TIP3    H238897   3.484   2.878   0.879 -0.3141 -0.7228  0.0451
 5828TIP3   OH238898   0.409   6.270  16.057 -0.2497  0.5367  0.5618
 5828TIP3    H138899   0.449   6.267  15.970  0.8217  0.2017  1.0445
 5828TIP3    H238900   0.331   6.215  16.050  0.2351 -0.0995  0.0058
 5829TIP3   OH238901   2.717   6.685  12.699 -0.4168 -0.0068  0.2522
 5829TIP3    H138902   2.732   6.692  12.793 -2.4097 -1.6526  0.7678
 5829TIP3    H238903   2.722   6.592  12.681  0.7770  0.3448 -1.4850
 5830TIP3   OH238904   2.772   5.075   0.871 -0.2112  0.2480 -0.0478
 5830TIP3    H138905   2.720   5.016   0.925 -1.1545  0.2638 -0.9155
 5830TIP3    H238906   2.709   5.116   0.812  0.7412  0.4741 -0.9417
 5831TIP3   OH238907   1.465   2.742  15.876 -0.2775  0.0608 -0.2089
 5831TIP3    H138908   1.541   2.751  15.933 -0.5216  0.5963  0.0374
 5831TIP3    H238909   1.491   2.784  15.794  0.1951 -1.0059 -0.6267
 5832TIP3   OH238910   0.610   0.527   3.090  0.2490  0.2376 -0.1475
 5832TIP3    H138911   0.522   0.535   3.129  0.0064  1.8500 -0.9399
 5832TIP3    H238912   0.593   0.517   2.997  0.8997  0.2110 -0.2619
 5833TIP3   OH238913   1.479   2.520   2.961  0.0480 -0.1786 -0.5375
 5833TIP3    H138914   1.570   2.548   2.950  0.4106  0.2472  2.6197
 5833TIP3    H238915   1.429   2.602   2.962  0.0349 -0.1868  0.5388
 5834TIP3   OH238916   5.517   3.601  10.692  0.1775  0.3833  0.1716
 5834TIP3    H138917   5.496   3.682  10.646  1.4934  0.6684  0.0274
 5834TIP3    H238918   5.538   3.539  10.622  1.2713  0.5515  0.3278
 5835TIP3   OH238919   6.508   5.599   2.235  0.1657 -0.4883 -0.2560
 5835TIP3    H138920   6.585   5.542   2.236  0.4590 -0.1949 -2.2551
 5835TIP3    H238921   6.435   5.541   2.256  0.8854 -0.7589  1.7306
 5836TIP3   OH238922   6.738   4.967  10.780  0.2156  0.0082  0.4887
 5836TIP3    H138923   6.769   5.028  10.713  0.9122  0.4099  1.1581
 5836TIP3    H238924   6.642   4.972  10.774  0.2682  0.6986  0.1143
 5837TIP3   OH238925   2.142   2.829  16.025  0.0628  0.5203 -0.0732
 5837TIP3    H138926   2.174   2.769  15.957 -0.0803  0.6838 -0.2836
 5837TIP3    H238927   2.090   2.894  15.978  0.3836  0.9283  0.1309
 5838TIP3   OH238928   2.231   2.027   0.251 -0.2014 -0.2478  0.4981
 5838TIP3    H138929   2.157   2.047   0.308  0.6072 -0.2880  1.5910
 5838TIP3    H238930   2.203   1.948   0.203 -1.8564  1.1789 -1.0173
 5839TIP3   OH238931   0.499   2.791  12.484  0.0129 -0.2923  0.3738
 5839TIP3    H138932   0.449   2.710  12.495 -0.3722 -0.2379 -0.8129
 5839TIP3    H238933   0.585   2.762  12.455  0.1602 -0.3104  0.8202
 5840TIP3   OH238934   3.076   3.294   4.946 -0.1143  0.4970 -0.0579
 5840TIP3    H138935   3.154   3.328   4.990 -1.4321 -0.0005  2.9020
 5840TIP3    H238936   3.063   3.207   4.983 -1.1684 -0.1183 -1.7493
 5841TIP3   OH238937   5.982   4.971  11.669 -0.4935  0.3234 -0.0132
 5841TIP3    H138938   5.915   4.912  11.703 -0.0343 -0.1957  0.0090
 5841TIP3    H238939   6.061   4.917  11.663  0.2149  1.1837  0.9789
 5842TIP3   OH238940   0.361   2.479  17.163 -0.8451  0.3894  0.0648
 5842TIP3    H138941   0.414   2.436  17.097 -1.7617  0.2714 -0.6190
 5842TIP3    H238942   0.423   2.510  17.228  0.0571  0.3023 -0.7401
 5843TIP3   OH238943   6.446   0.454   4.644 -0.1020 -0.1744 -0.4142
 5843TIP3    H138944   6.462   0.548   4.641  0.1388 -0.2274 -0.8289
 5843TIP3    H238945   6.384   0.437   4.574  0.3352 -0.4138 -0.7507
 5844TIP3   OH238946   0.726   3.835   1.033  0.1468 -0.1742  0.4481
 5844TIP3    H138947   0.634   3.841   1.009  0.6674  0.7608 -1.4396
 5844TIP3    H238948   0.731   3.759   1.091 -1.4372 -1.6603 -1.2787
 5845TIP3   OH238949   5.833   4.432   2.635  0.0547  0.1764 -0.2049
 5845TIP3    H138950   5.818   4.442   2.729  0.4475 -1.1683  0.0307
 5845TIP3    H238951   5.904   4.493   2.616  0.1725  0.2507  0.4327
 5846TIP3   OH238952   5.007   3.437  13.018 -0.0952 -0.4632 -0.2645
 5846TIP3    H138953   5.027   3.513  13.072 -1.4594  1.3098 -2.0818
 5846TIP3    H238954   4.913   3.422  13.033 -0.1629 -0.8346 -1.0301
 5847TIP3   OH238955   1.527   5.577  14.121  0.2334 -0.0459  0.1805
 5847TIP3    H138956   1.451   5.548  14.072 -0.5610  0.7921  0.8793
 5847TIP3    H238957   1.602   5.551  14.068 -0.5810  0.3705 -1.2089
 5848TIP3   OH238958   3.505   4.789  11.521 -0.0726 -0.0053  0.6820
 5848TIP3    H138959   3.416   4.824  11.531  0.1248  0.0190  3.0668
 5848TIP3    H238960   3.501   4.703  11.563  0.8422 -0.3623  0.0648
 5849TIP3   OH238961   2.396   0.425   4.151 -0.3524  0.0315 -0.0745
 5849TIP3    H138962   2.359   0.399   4.235 -0.6388  0.0055 -0.2063
 5849TIP3    H238963   2.491   0.422   4.164 -0.3739 -1.0553 -0.0754
 5850TIP3   OH238964   5.590   2.980  11.043  0.6504  0.2333  0.3659
 5850TIP3    H138965   5.667   2.956  10.992  1.0408 -0.0540  1.0884
 5850TIP3    H238966   5.519   2.929  11.004  0.7006  0.8860 -0.6402
 5851TIP3   OH238967   3.886   2.622   3.442  0.1558  0.1906 -0.3693
 5851TIP3    H138968   3.838   2.539   3.446  0.5696 -0.0054  1.6158
 5851TIP3    H238969   3.817   2.689   3.440 -0.2090 -0.1469  0.3944
 5852TIP3   OH238970   2.654   1.676  12.052 -0.2272  0.1221 -0.1501
 5852TIP3    H138971   2.611   1.595  12.078 -0.7961 -0.1613 -1.8241
 5852TIP3    H238972   2.744   1.669  12.086 -0.7739 -0.3783  1.2541
 5853TIP3   OH238973   4.823   3.747   1.894 -0.8792 -0.1414 -0.1203
 5853TIP3    H138974   4.821   3.721   1.802  0.7849  1.7464 -0.7664
 5853TIP3    H238975   4.917   3.754   1.915 -1.2276  0.0227  1.5450
 5854TIP3   OH238976   6.092   4.505   3.264  0.1460 -0.1656  0.3741
 5854TIP3    H138977   6.143   4.581   3.237  0.6378 -0.9249 -0.9795
 5854TIP3    H238978   6.150   4.457   3.322  1.1648 -1.1641 -1.3715
 5855TIP3   OH238979   1.528   6.164  17.099 -0.0561 -0.3783 -0.1814
 5855TIP3    H138980   1.568   6.167  17.186  1.9933  0.7387 -1.0707
 5855TIP3    H238981   1.479   6.245  17.092 -0.6191 -0.6915  0.0938
 5856TIP3   OH238982   2.038   0.864   3.554 -0.8100  0.0410 -0.3705
 5856TIP3    H138983   2.086   0.947   3.555  0.8064 -0.7609 -2.4972
 5856TIP3    H238984   2.097   0.801   3.595 -1.6749 -0.2470  0.4676
 5857TIP3   OH238985   3.104   5.200   5.179  0.0058  0.8344  0.3101
 5857TIP3    H138986   3.125   5.284   5.137  2.3385 -0.2340 -0.8092
 5857TIP3    H238987   3.170   5.139   5.146 -2.4909 -1.8764 -0.1202
 5858TIP3   OH238988   6.417   3.996  11.873  0.3679  0.2555  0.0547
 5858TIP3    H138989   6.467   3.993  11.791  0.0194  0.2229 -0.1609
 5858TIP3    H238990   6.461   3.934  11.931 -0.7600 -1.5014 -0.8967
 5859TIP3   OH238991   1.395   1.292  15.042 -0.5385  0.4140 -0.6448
 5859TIP3    H138992   1.308   1.331  15.051 -0.3457  0.7667 -0.2871
 5859TIP3    H238993   1.449   1.339  15.105 -0.9638 -2.4218  2.0933
 5860TIP3   OH238994   4.827   0.457  10.286  0.0322 -0.1123  0.1722
 5860TIP3    H138995   4.743   0.490  10.317  0.3486  0.1507  0.7647
 5860TIP3    H238996   4.866   0.530  10.239 -0.1952 -0.3295 -0.3658
 5861TIP3   OH238997   3.872   1.024   3.893 -0.1826 -0.2889 -0.1319
 5861TIP3    H138998   3.893   1.008   3.801  2.3551  0.6242  0.2373
 5861TIP3    H238999   3.837   0.940   3.924 -0.5327 -0.7791 -1.7567
 5862TIP3   OH239000   5.880   2.530  14.987 -0.0058 -0.4169  0.3019
 5862TIP3    H139001   5.895   2.623  15.002 -1.3580  0.2254 -1.7800
 5862TIP3    H239002   5.964   2.488  15.006  1.1904  1.4863 -0.4654
 5863TIP3   OH239003   2.370   2.526  13.297 -0.2105  0.1424 -0.0598
 5863TIP3    H139004   2.354   2.486  13.383  1.0296  1.7161  0.9773
 5863TIP3    H239005   2.455   2.570  13.308 -1.3657  2.8293 -1.1516
 5864TIP3   OH239006   4.457   1.638  14.179  0.2923  0.2430 -0.2601
 5864TIP3    H139007   4.467   1.546  14.153  2.0686  0.0467  0.9529
 5864TIP3    H239008   4.492   1.688  14.106 -0.7750 -0.0101 -0.9707
 5865TIP3   OH239009   5.035   2.080   0.627  0.5078  0.2237 -0.0471
 5865TIP3    H139010   5.067   2.164   0.593 -0.5191  0.5628 -0.2079
 5865TIP3    H239011   5.051   2.085   0.721 -0.0322  0.8298  0.0197
 5866TIP3   OH239012   0.092   3.741   5.930  0.0475  0.4790  0.7130
 5866TIP3    H139013   0.166   3.717   5.874  1.0007  3.8902  0.3273
 5866TIP3    H239014   0.123   3.725   6.019  0.1168 -0.8381  0.4766
 5867TIP3   OH239015   5.633   1.515  15.576 -0.7843  0.0646  0.6320
 5867TIP3    H139016   5.700   1.520  15.508  1.6161 -0.6744  2.7604
 5867TIP3    H239017   5.558   1.563  15.540  0.1854 -0.6414 -2.6142
 5868TIP3   OH239018   6.301   3.996  16.815 -0.1522 -0.0038 -0.6396
 5868TIP3    H139019   6.282   3.937  16.888  0.8954 -0.1058 -0.4427
 5868TIP3    H239020   6.288   3.942  16.737 -0.2269 -0.1947 -0.4993
 5869TIP3   OH239021   2.413   1.477  16.755 -0.1485 -0.3587 -0.6161
 5869TIP3    H139022   2.451   1.559  16.786  1.1415 -0.5593 -1.5702
 5869TIP3    H239023   2.322   1.480  16.784  0.3497  0.5719  0.9564
 5870TIP3   OH239024   0.054   5.727   5.566  0.0036 -0.4545 -0.3470
 5870TIP3    H139025   0.047   5.810   5.613  0.9433 -0.2770 -0.4884
 5870TIP3    H239026  -0.021   5.725   5.508 -0.5417 -0.1434  0.3330
 5871TIP3   OH239027   1.268   0.104  15.755 -0.9959  0.4653  0.0345
 5871TIP3    H139028   1.263   0.010  15.738 -1.8054 -0.0251  2.5878
 5871TIP3    H239029   1.358   0.117  15.785 -1.2087  0.2786  0.7694
 5872TIP3   OH239030   4.817   0.347   2.971  0.1584 -0.1403 -0.4005
 5872TIP3    H139031   4.727   0.337   3.002 -0.3547  1.7044 -1.1196
 5872TIP3    H239032   4.824   0.286   2.898 -0.8989  0.4536 -1.0389
 5873TIP3   OH239033   2.540   5.930   0.138 -0.4632  0.2690  0.2316
 5873TIP3    H139034   2.563   6.020   0.115  0.7062  0.4059  1.7667
 5873TIP3    H239035   2.624   5.887   0.153 -1.0405 -0.8421  0.3833
 5874TIP3   OH239036   0.024   6.333   3.766 -0.2527  0.1600 -0.1243
 5874TIP3    H139037  -0.038   6.263   3.743 -1.4154  1.3406 -0.6697
 5874TIP3    H239038   0.005   6.352   3.858 -0.0411 -0.1042 -0.0209
 5875TIP3   OH239039   3.814   0.130  13.738 -0.1876 -0.0228 -0.2066
 5875TIP3    H139040   3.733   0.150  13.786 -0.3318  0.4274 -0.6337
 5875TIP3    H239041   3.841   0.044  13.771  0.2566  0.7052  1.3992
 5876TIP3   OH239042   3.797   4.455  10.927 -0.1707 -0.1486  0.0366
 5876TIP3    H139043   3.840   4.440  10.842 -1.4367 -1.6407 -0.3764
 5876TIP3    H239044   3.870   4.468  10.988  0.7715  0.9504 -1.2447
 5877TIP3   OH239045   5.759   2.485  11.923 -0.1306 -0.2946  0.0447
 5877TIP3    H139046   5.758   2.412  11.860 -0.3876 -1.5438  1.4503
 5877TIP3    H239047   5.672   2.482  11.963 -0.8714  2.0374 -1.2212
 5878TIP3   OH239048   4.479   4.828  11.030 -0.0743  0.7937 -0.0913
 5878TIP3    H139049   4.397   4.866  11.062 -0.4610 -1.6499  2.0988
 5878TIP3    H239050   4.452   4.757  10.972  0.4839  0.0574  0.5357
 5879TIP3   OH239051   3.624   2.599  14.953  0.0340  0.6862  0.0746
 5879TIP3    H139052   3.694   2.636  15.008 -0.9541  1.6671  0.7277
 5879TIP3    H239053   3.543   2.624  14.999 -0.7329 -0.7796 -0.4460
 5880TIP3   OH239054   3.801   2.278  12.232 -0.2307 -1.0075  0.2197
 5880TIP3    H139055   3.796   2.374  12.233  1.2597 -0.9052 -0.3219
 5880TIP3    H239056   3.729   2.251  12.175  0.4170 -0.1093 -1.0627
 5881TIP3   OH239057   6.021   4.227   3.655  0.1815 -0.0953 -0.3263
 5881TIP3    H139058   6.074   4.211   3.733 -1.3562 -0.0130  0.7809
 5881TIP3    H239059   6.016   4.141   3.612  1.1389 -0.1174 -0.4176
 5882TIP3   OH239060   2.193   5.418   4.844 -0.0563 -0.1897 -0.8113
 5882TIP3    H139061   2.114   5.464   4.872 -0.7365 -0.3602 -2.3652
 5882TIP3    H239062   2.169   5.326   4.846  0.2473 -0.2710 -0.8596
 5883TIP3   OH239063   1.737   5.517   3.105  0.0374 -0.1674 -0.3078
 5883TIP3    H139064   1.664   5.553   3.053  0.0593 -0.3081 -0.4384
 5883TIP3    H239065   1.809   5.510   3.042  0.2651  0.2863 -0.0982
 5884TIP3   OH239066   1.086   1.494   4.866 -0.0159 -0.0406  0.5032
 5884TIP3    H139067   1.002   1.498   4.820 -0.5594 -0.9734  1.3806
 5884TIP3    H239068   1.131   1.419   4.829 -0.9607 -1.5504  2.2475
 5885TIP3   OH239069   2.606   0.319  15.818  0.0021  0.1150  0.0535
 5885TIP3    H139070   2.540   0.385  15.836 -0.1618 -0.2536  0.8990
 5885TIP3    H239071   2.559   0.236  15.826  0.4207 -0.1303 -0.0034
 5886TIP3   OH239072   3.256   3.148   5.812  0.1071 -0.0235 -0.0874
 5886TIP3    H139073   3.296   3.115   5.892 -0.1848  1.3494  0.6578
 5886TIP3    H239074   3.290   3.091   5.743  2.1854  0.1762  0.6900
 5887TIP3   OH239075   2.453   4.708  17.094 -0.9747  0.1446 -0.1306
 5887TIP3    H139076   2.401   4.778  17.133 -1.2847 -1.7128  3.1716
 5887TIP3    H239077   2.388   4.649  17.055 -0.9278  0.3235 -0.4822
 5888TIP3   OH239078   0.567   4.310   5.407  0.3545 -0.5362  0.0541
 5888TIP3    H139079   0.586   4.218   5.388  0.1171 -0.4454 -0.6714
 5888TIP3    H239080   0.562   4.315   5.502 -2.3581 -1.8609  0.0881
 5889TIP3   OH239081   1.765   3.644  16.269  0.0238  0.0705  0.3923
 5889TIP3    H139082   1.754   3.554  16.298 -0.8605 -0.4395 -1.3614
 5889TIP3    H239083   1.852   3.669  16.300 -1.4185  0.3355  5.0403
 5890TIP3   OH239084   0.287   4.343   4.510  0.2956  0.4274  0.0428
 5890TIP3    H139085   0.341   4.270   4.541 -1.0518 -0.0282  1.5048
 5890TIP3    H239086   0.348   4.415   4.497  1.3826 -0.3376  0.7140
 5891TIP3   OH239087   2.693   0.051  12.944  0.0139 -0.2792  0.6885
 5891TIP3    H139088   2.723   0.123  13.000  1.4152  0.7655 -1.2773
 5891TIP3    H239089   2.728  -0.028  12.986  1.1803  0.4810  1.2094
 5892TIP3   OH239090   0.353   5.679  16.776 -0.0533  0.2992  0.0072
 5892TIP3    H139091   0.284   5.652  16.836  0.6375 -0.4405  0.5031
 5892TIP3    H239092   0.355   5.610  16.710  0.2471  0.2829  0.0314
 5893TIP3   OH239093   0.126   5.222   5.675  0.2755  0.0533 -0.5950
 5893TIP3    H139094   0.076   5.276   5.614  0.5716  1.0351  0.0148
 5893TIP3    H239095   0.086   5.239   5.760  1.1129  0.2155 -0.2242
 5894TIP3   OH239096   2.925   2.487  14.553  0.0379 -0.0380  0.2870
 5894TIP3    H139097   2.957   2.458  14.639  0.8509  0.4049  0.1499
 5894TIP3    H239098   2.837   2.519  14.570 -0.0471 -0.5324  0.8404
 5895TIP3   OH239099   2.219   6.437  15.627 -0.1757 -0.2957 -0.0299
 5895TIP3    H139100   2.291   6.500  15.632 -0.0172 -0.5181  0.5826
 5895TIP3    H239101   2.227   6.385  15.707 -1.0343 -0.3055  0.0579
 5896TIP3   OH239102   6.757   5.230   5.308 -0.3474 -0.0524  0.2184
 5896TIP3    H139103   6.845   5.261   5.288 -0.8585  0.2278 -1.8834
 5896TIP3    H239104   6.748   5.240   5.402  1.0536  2.1176  0.1740
 5897TIP3   OH239105   0.625   2.980   3.973 -0.2731 -0.0266  0.2284
 5897TIP3    H139106   0.532   2.973   3.951 -0.5692 -0.4320  1.4819
 5897TIP3    H239107   0.660   3.043   3.911 -1.5588  0.7232  0.2185
 5898TIP3   OH239108   4.526   5.645  14.155  0.5783 -0.2189  0.2849
 5898TIP3    H139109   4.443   5.645  14.107  0.0288 -0.7907  1.2042
 5898TIP3    H239110   4.501   5.633  14.246  1.4935  2.2568  0.9426
 5899TIP3   OH239111   5.686   5.085  10.779 -0.0921 -0.3996  0.2555
 5899TIP3    H139112   5.605   5.120  10.742  1.1465  0.8126 -1.5191
 5899TIP3    H239113   5.684   4.992  10.756 -1.7179 -0.7979  1.7641
 5900TIP3   OH239114   4.702   3.034   1.799 -0.7166 -0.8253 -0.1562
 5900TIP3    H139115   4.766   3.100   1.775  1.2355 -2.8806 -0.9233
 5900TIP3    H239116   4.679   3.054   1.890  0.2455  0.5266 -0.1840
 5901TIP3   OH239117   0.428   2.189   4.162 -0.4458  0.1569 -0.1422
 5901TIP3    H139118   0.392   2.239   4.088 -0.7551  2.1158  1.2483
 5901TIP3    H239119   0.352   2.143   4.198 -0.3730 -0.4741 -0.7657
 5902TIP3   OH239120   5.756   2.784   1.307  0.1694 -0.0732  0.0010
 5902TIP3    H139121   5.686   2.779   1.373  0.7555 -2.9286  0.5384
 5902TIP3    H239122   5.718   2.744   1.229  0.3575  0.8383 -0.5721
 5903TIP3   OH239123   2.887   5.618  15.378 -0.7649 -0.0004 -0.2526
 5903TIP3    H139124   2.826   5.597  15.449 -0.9285 -0.7855 -0.6155
 5903TIP3    H239125   2.831   5.634  15.302 -0.5388 -0.2141 -0.4630
 5904TIP3   OH239126   6.489   5.441   1.255  0.1306  0.3781  0.2914
 5904TIP3    H139127   6.504   5.478   1.342 -1.8760  0.2137  0.7604
 5904TIP3    H239128   6.538   5.498   1.196  1.5432  0.4832  1.5114
 5905TIP3   OH239129   0.991   3.134  11.058 -0.4001 -0.3037  0.0623
 5905TIP3    H139130   1.056   3.205  11.063  0.3805 -1.0812  3.1282
 5905TIP3    H239131   0.907   3.178  11.065  0.0331  0.4165  0.9254
 5906TIP3   OH239132   6.801   2.944   5.967 -0.0444 -0.0648 -0.6361
 5906TIP3    H139133   6.708   2.962   5.954 -0.0153  0.3580 -0.2526
 5906TIP3    H239134   6.839   3.027   5.996  0.6233  0.0125 -1.6467
 5907TIP3   OH239135   2.152   1.406  16.835  0.2474 -0.1562  0.0219
 5907TIP3    H139136   2.143   1.330  16.893  1.7233 -0.2089  0.2196
 5907TIP3    H239137   2.145   1.482  16.893 -0.1144 -0.1550 -0.0173
 5908TIP3   OH239138   2.557   3.124   4.549 -0.2325 -0.2492 -0.2533
 5908TIP3    H139139   2.544   3.210   4.509 -0.6112 -0.6274 -0.9604
 5908TIP3    H239140   2.642   3.095   4.516 -1.6643 -1.6791 -2.9266
 5909TIP3   OH239141   0.326   2.327  16.528  0.1500  0.5908  0.1670
 5909TIP3    H139142   0.403   2.282  16.564  0.2917  0.1912 -0.6054
 5909TIP3    H239143   0.265   2.333  16.601 -0.1620 -1.4983  0.1288
 5910TIP3   OH239144   2.841   1.581   2.697  0.8156  0.4036 -0.4761
 5910TIP3    H139145   2.792   1.572   2.779  0.4730  0.2130 -0.6968
 5910TIP3    H239146   2.818   1.502   2.647 -0.3262  1.3011 -1.4495
 5911TIP3   OH239147   3.472   3.225  11.719  0.2985  0.1360  0.0081
 5911TIP3    H139148   3.565   3.204  11.728  0.3182  0.2300  0.0322
 5911TIP3    H239149   3.439   3.227  11.809  0.3950  0.6347  0.0381
 5912TIP3   OH239150   4.906   0.936  13.048  0.1326 -0.3797 -0.0824
 5912TIP3    H139151   4.842   0.959  12.980 -1.3420  1.3151  1.7459
 5912TIP3    H239152   4.862   0.870  13.101  1.5759 -2.2761 -1.0876
 5913TIP3   OH239153   4.246   0.282  12.552 -0.1610 -0.2637  0.0311
 5913TIP3    H139154   4.337   0.311  12.548 -0.1745  0.0914  1.5824
 5913TIP3    H239155   4.242   0.228  12.631 -1.3678  0.0144  0.1792
 5914TIP3   OH239156   1.092   5.940  13.805 -0.4020  0.0171  0.4450
 5914TIP3    H139157   1.089   5.895  13.889  0.5202 -0.5902  0.1624
 5914TIP3    H239158   1.153   6.013  13.818 -0.1171 -0.1856  0.2563
 5915TIP3   OH239159   1.137   3.435  15.845  0.1680 -0.6530  0.5189
 5915TIP3    H139160   1.061   3.416  15.791  0.2111  0.1582  0.1521
 5915TIP3    H239161   1.161   3.351  15.884 -2.3071 -0.5629  2.5062
 5916TIP3   OH239162   1.171   5.006  11.990 -0.7444 -0.3950  0.7856
 5916TIP3    H139163   1.251   4.991  11.941 -0.4284  1.5018  0.6348
 5916TIP3    H239164   1.192   4.981  12.080  0.5477  1.4461  1.0517
 5917TIP3   OH239165   6.416   4.364   5.464  0.6028 -0.4679  0.2197
 5917TIP3    H139166   6.427   4.310   5.542  0.2342 -0.8708 -0.0081
 5917TIP3    H239167   6.506   4.386   5.438  0.7179  0.5913  1.3849
 5918TIP3   OH239168   1.789   4.932  13.784  0.0509  0.0174 -0.4580
 5918TIP3    H139169   1.712   4.936  13.727  0.4651 -0.1950 -1.0340
 5918TIP3    H239170   1.800   4.839  13.803 -0.3911  0.1266  0.3986
 5919TIP3   OH239171   1.277   6.463   5.837  0.0936 -0.9594  0.1671
 5919TIP3    H139172   1.238   6.379   5.863  2.3433 -1.7485  1.3101
 5919TIP3    H239173   1.352   6.438   5.783  1.9019  0.1243  2.0107
 5920TIP3   OH239174   4.656   0.500   3.246  0.4747  0.2175  0.2487
 5920TIP3    H139175   4.561   0.514   3.247  0.3994 -0.3296  1.2714
 5920TIP3    H239176   4.666   0.406   3.231  0.8388  0.1716  0.7581
 5921TIP3   OH239177   4.096   4.648   5.163 -0.0105 -0.1100 -0.2468
 5921TIP3    H139178   4.167   4.622   5.104 -1.2299 -0.3862 -1.6568
 5921TIP3    H239179   4.117   4.604   5.245  1.7296  0.2605 -0.4445
 5922TIP3   OH239180   0.183   0.022   6.210 -0.1128 -0.3790 -0.1852
 5922TIP3    H139181   0.116  -0.046   6.205 -0.9281  0.4283 -0.5606
 5922TIP3    H239182   0.249  -0.013   6.269 -0.5735 -1.4421 -0.2851
 5923TIP3   OH239183   1.368   4.573  13.574  0.2602  0.3375  0.0483
 5923TIP3    H139184   1.316   4.556  13.653 -0.4808  0.2631 -0.4592
 5923TIP3    H239185   1.307   4.566  13.502  0.9151  0.5326 -0.5376
 5924TIP3   OH239186   6.450   1.602  15.692  0.3501 -0.4733  0.1823
 5924TIP3    H139187   6.468   1.553  15.772 -0.9341  1.1284  1.5136
 5924TIP3    H239188   6.531   1.651  15.674 -0.0951  0.9855  1.8954
 5925TIP3   OH239189   3.126   0.767  13.979 -0.3680  0.0399  0.2032
 5925TIP3    H139190   3.189   0.822  14.025 -0.5749 -0.4609  1.0986
 5925TIP3    H239191   3.052   0.761  14.039 -0.2004 -1.5116  0.2854
 5926TIP3   OH239192   5.937   5.771   2.363 -0.1267  0.2624  0.0991
 5926TIP3    H139193   6.028   5.778   2.333 -0.3954 -0.3491 -0.9117
 5926TIP3    H239194   5.944   5.764   2.458  0.8477  0.7702  0.0779
 5927TIP3   OH239195   1.052   5.632   3.215 -0.0302 -0.2509 -0.2025
 5927TIP3    H139196   1.015   5.611   3.301 -1.2917  2.2798 -0.0207
 5927TIP3    H239197   1.083   5.722   3.224  1.8158 -0.6646 -1.8233
 5928TIP3   OH239198   4.105   2.852  10.827  0.0816  0.6667 -0.2540
 5928TIP3    H139199   4.139   2.941  10.815 -0.0567  0.7198 -0.2455
 5928TIP3    H239200   4.091   2.820  10.738 -1.7325  1.3577 -0.2657
 5929TIP3   OH239201   2.358   1.180   0.979 -0.3813  0.1256 -0.2767
 5929TIP3    H139202   2.277   1.141   1.012  0.0225 -1.8470 -1.4643
 5929TIP3    H239203   2.336   1.273   0.967 -2.2233 -0.2047  0.1133
 5930TIP3   OH239204   6.043   3.097   0.107  0.1433 -0.5039  0.2692
 5930TIP3    H139205   5.986   3.061   0.039  0.7867 -0.9985 -0.0237
 5930TIP3    H239206   6.052   3.190   0.084 -1.0075 -0.2850  0.6570
 5931TIP3   OH239207   2.659   0.240   6.234 -0.2893 -0.3174 -0.3801
 5931TIP3    H139208   2.729   0.218   6.295  1.0626  0.4346 -1.6288
 5931TIP3    H239209   2.644   0.159   6.185 -2.1133 -1.2584  1.5504
 5932TIP3   OH239210   2.975   3.174  11.712  0.0729 -0.7690  0.0302
 5932TIP3    H139211   3.057   3.131  11.737  0.4303  0.1743  0.5369
 5932TIP3    H239212   2.955   3.231  11.786  0.3723  1.0052 -1.1974
 5933TIP3   OH239213   2.360   5.375   1.718 -0.1240 -0.2596 -0.2089
 5933TIP3    H139214   2.304   5.365   1.795 -0.7942  1.0019 -0.4894
 5933TIP3    H239215   2.315   5.441   1.665  0.6647 -0.6235 -1.3672
 5934TIP3   OH239216   2.388   6.603   2.601 -0.3485 -0.0207  0.0002
 5934TIP3    H139217   2.362   6.691   2.573 -1.0859  0.4926  2.1582
 5934TIP3    H239218   2.371   6.548   2.525  0.1112  1.6696 -1.4011
 5935TIP3   OH239219   5.177   5.894   3.046 -0.1233 -0.0418  0.1017
 5935TIP3    H139220   5.244   5.895   2.978 -0.5551  1.0657 -0.3280
 5935TIP3    H239221   5.106   5.842   3.010  0.6243 -1.5483  0.7101
 5936TIP3   OH239222   2.539   5.254   4.588  0.6961 -0.2982  0.2199
 5936TIP3    H139223   2.587   5.204   4.654 -1.2441 -2.7685 -0.0765
 5936TIP3    H239224   2.503   5.329   4.635  2.9256  0.4341  0.8993
 5937TIP3   OH239225   5.483   6.685  14.696  0.5379 -0.5614 -0.2003
 5937TIP3    H139226   5.512   6.704  14.785 -0.9089  0.7912  0.0478
 5937TIP3    H239227   5.516   6.758  14.644 -1.6369  0.6389 -0.0333
 5938TIP3   OH239228   4.472   3.872   1.943 -0.2890 -0.1103 -0.3025
 5938TIP3    H139229   4.482   3.960   1.907  0.2257 -0.2618 -0.5357
 5938TIP3    H239230   4.509   3.814   1.876 -0.6733 -0.5135 -0.1767
 5939TIP3   OH239231   4.656   3.158  13.416 -0.0370  0.0603  0.4209
 5939TIP3    H139232   4.739   3.160  13.368 -0.4370  0.8555 -0.2628
 5939TIP3    H239233   4.621   3.246  13.406 -0.6554 -0.0797  1.2677
 5940TIP3   OH239234   2.189   0.514   2.528  0.4031 -0.5369  0.4920
 5940TIP3    H139235   2.141   0.585   2.485  1.3373 -0.6964 -0.9019
 5940TIP3    H239236   2.160   0.516   2.619 -0.9041  0.4883  0.0816
 5941TIP3   OH239237   4.712   0.975   4.299 -0.2980 -0.1632  0.4758
 5941TIP3    H139238   4.661   0.916   4.243 -1.5407 -0.2686  1.6645
 5941TIP3    H239239   4.783   1.006   4.243  0.0349 -2.2837 -0.3947
 5942TIP3   OH239240   0.109   3.671   3.870 -0.4790 -0.2524 -0.0469
 5942TIP3    H139241   0.109   3.625   3.954  4.4829 -1.6275 -0.4860
 5942TIP3    H239242   0.096   3.763   3.893  1.5285 -0.4796  2.4286
 5943TIP3   OH239243   2.578   4.267   3.749  0.0127 -0.2023 -0.2720
 5943TIP3    H139244   2.624   4.323   3.811  0.8884 -1.6404  0.4256
 5943TIP3    H239245   2.498   4.315   3.728  0.7224  1.2818  0.3069
 5944TIP3   OH239246   3.229   1.758   6.216 -0.1098 -0.0202  0.0513
 5944TIP3    H139247   3.197   1.821   6.280 -1.0702 -0.4906  0.0561
 5944TIP3    H239248   3.218   1.673   6.258 -1.6802 -0.4207 -1.0862
 5945TIP3   OH239249   4.416   0.452  13.119  0.0936 -0.4150 -0.3658
 5945TIP3    H139250   4.511   0.460  13.116  0.0397  0.4342 -0.1722
 5945TIP3    H239251   4.394   0.462  13.212 -0.1609 -0.9585 -0.3625
 5946TIP3   OH239252   5.993   5.374  17.114  0.1069 -0.0739  0.1634
 5946TIP3    H139253   6.068   5.432  17.101 -0.8288  1.1681  0.1702
 5946TIP3    H239254   6.032   5.286  17.121  1.5840  0.5823  0.5793
 5947TIP3   OH239255   1.187   6.552  12.979  0.8460 -0.0122 -0.1216
 5947TIP3    H139256   1.180   6.490  12.907  1.6000  1.0093 -1.1162
 5947TIP3    H239257   1.134   6.627  12.951 -1.3749 -0.7338  1.7424
 5948TIP3   OH239258   4.834   6.372  16.205 -0.4329 -0.4580 -0.1338
 5948TIP3    H139259   4.830   6.278  16.186  0.2770 -0.8007  1.3132
 5948TIP3    H239260   4.913   6.383  16.257 -0.3981  0.9927 -0.4421
 5949TIP3   OH239261   0.168   1.932  10.900 -0.4467 -0.4376 -0.2590
 5949TIP3    H139262   0.231   1.997  10.869 -0.3554 -0.4662 -0.1362
 5949TIP3    H239263   0.184   1.854  10.847 -1.0020 -0.1498 -0.8615
 5950TIP3   OH239264   2.835   1.686   3.501 -0.0307 -0.6507 -0.4609
 5950TIP3    H139265   2.845   1.648   3.588  1.6257 -1.2334 -0.8641
 5950TIP3    H239266   2.824   1.610   3.443 -3.4244 -0.2201 -0.5855
 5951TIP3   OH239267   4.255   2.869   2.521 -0.2300  0.0409  0.2139
 5951TIP3    H139268   4.192   2.939   2.536  0.2211  0.4195  0.3963
 5951TIP3    H239269   4.322   2.883   2.588  0.3226 -0.0151 -0.3145
 5952TIP3   OH239270   2.368   5.140   2.462  0.2914 -0.3461 -0.3289
 5952TIP3    H139271   2.402   5.224   2.491 -0.1770 -0.0086 -0.7519
 5952TIP3    H239272   2.445   5.093   2.430  0.7646 -0.6034  1.1190
 5953TIP3   OH239273   0.604   6.089   5.193  0.1683 -0.2535  0.3829
 5953TIP3    H139274   0.694   6.097   5.161 -0.0151 -3.0184 -1.1297
 5953TIP3    H239275   0.605   6.012   5.250 -0.9662  0.5346  1.5217
 5954TIP3   OH239276   0.531   5.033  12.437 -0.7109 -0.5068 -0.4765
 5954TIP3    H139277   0.523   5.024  12.342 -1.7230 -1.0372 -0.3653
 5954TIP3    H239278   0.452   4.989  12.471  0.4012 -1.7089  0.6687
 5955TIP3   OH239279   4.975   5.509  13.530  0.2340 -0.6111  0.4147
 5955TIP3    H139280   4.962   5.541  13.620  0.9071  0.3246  0.1974
 5955TIP3    H239281   5.047   5.447  13.537 -1.9816 -3.3160  1.0773
 5956TIP3   OH239282   6.409   0.163  14.892  1.1814 -0.0209  0.0209
 5956TIP3    H139283   6.320   0.140  14.865  0.4518  2.2285  0.3380
 5956TIP3    H239284   6.419   0.122  14.978 -0.2378  1.1059  0.7779
 5957TIP3   OH239285   4.919   3.734  15.036  0.4393 -0.2572 -0.1039
 5957TIP3    H139286   4.953   3.760  14.951  0.7788 -0.1599  0.0593
 5957TIP3    H239287   4.895   3.816  15.079 -0.1071 -0.3328 -0.2606
 5958TIP3   OH239288   1.209   2.580   4.858 -0.3643 -0.0211 -0.0291
 5958TIP3    H139289   1.262   2.555   4.933  0.4825  1.6105 -0.0567
 5958TIP3    H239290   1.120   2.555   4.883 -0.0619  0.2476  1.4064
 5959TIP3   OH239291   3.491   5.658   0.778  0.6581  0.4606 -0.2606
 5959TIP3    H139292   3.540   5.586   0.739 -1.8972 -2.2716  1.1625
 5959TIP3    H239293   3.419   5.674   0.717 -0.4078 -0.2499  0.7689
 5960TIP3   OH239294   0.515   0.418   5.839  0.3808  0.4920  0.2143
 5960TIP3    H139295   0.431   0.405   5.881  0.5178  0.8109  0.5890
 5960TIP3    H239296   0.574   0.355   5.881  0.0107 -0.7620 -1.0387
 5961TIP3   OH239297   2.601   6.769   1.806  0.3923 -0.1732  0.5591
 5961TIP3    H139298   2.507   6.752   1.794  0.6255  0.1682 -2.6900
 5961TIP3    H239299   2.643   6.684   1.793  0.6615  0.1902 -1.2431
 5962TIP3   OH239300   0.011   4.079   0.903  0.0283 -0.0876  0.5632
 5962TIP3    H139301   0.011   4.142   0.974 -2.9929 -0.4946  1.0470
 5962TIP3    H239302  -0.046   4.117   0.836  0.0654 -1.2411 -0.1565
 5963TIP3   OH239303   5.201   1.134  14.000 -0.4035  0.3372 -0.1685
 5963TIP3    H139304   5.210   1.210  13.942  0.8846  1.0565  0.9123
 5963TIP3    H239305   5.212   1.059  13.942  1.5468  1.0510 -0.7971
 5964TIP3   OH239306   6.157   0.221  12.729  0.1787 -0.1352 -0.0800
 5964TIP3    H139307   6.230   0.200  12.787  0.5043 -1.3477 -0.8885
 5964TIP3    H239308   6.113   0.138  12.715  0.7217 -0.1165 -2.3581
 5965TIP3   OH239309   0.654   2.447  16.251 -0.3405 -0.6288 -0.1071
 5965TIP3    H139310   0.655   2.446  16.155 -0.2109 -2.3450 -0.1193
 5965TIP3    H239311   0.738   2.409  16.276 -1.4262 -2.6926  0.6282
 5966TIP3   OH239312   4.800   5.412  14.428 -0.0121  0.1977 -0.8237
 5966TIP3    H139313   4.883   5.413  14.382  1.0012 -0.1261  0.9040
 5966TIP3    H239314   4.793   5.500  14.466 -1.3555  0.8297 -2.3838
 5967TIP3   OH239315   1.894   5.734  13.955 -0.4598 -0.1501 -0.1837
 5967TIP3    H139316   1.919   5.643  13.969  1.7916  0.3876 -0.4026
 5967TIP3    H239317   1.810   5.729  13.909 -0.5303 -2.0866  0.0830
 5968TIP3   OH239318   3.225   5.993  10.751  0.7801 -0.1969 -0.5971
 5968TIP3    H139319   3.258   6.049  10.681  1.5007 -1.4900 -1.3333
 5968TIP3    H239320   3.299   5.981  10.810  0.6837 -0.5120 -0.5353
 5969TIP3   OH239321   6.116   4.309   4.419 -0.2285 -0.4456  0.3824
 5969TIP3    H139322   6.140   4.236   4.361 -1.8866 -1.5162  0.9597
 5969TIP3    H239323   6.129   4.274   4.508 -0.4018  0.2031  0.6683
 5970TIP3   OH239324   5.938   0.662   0.566 -0.5757  0.7181  0.3322
 5970TIP3    H139325   6.004   0.596   0.548  1.3302  1.8424  2.6296
 5970TIP3    H239326   5.866   0.614   0.607 -0.0130 -0.1569  0.3161
 5971TIP3   OH239327   5.618   6.699  11.478  0.3149 -0.0500 -0.1109
 5971TIP3    H139328   5.577   6.646  11.409 -0.7655  0.4506  0.1309
 5971TIP3    H239329   5.642   6.635  11.545 -2.3526 -0.1437  0.8642
 5972TIP3   OH239330   4.522   0.827  10.600  0.1048 -0.0941 -0.1625
 5972TIP3    H139331   4.458   0.882  10.556  0.3533  0.5348  0.2434
 5972TIP3    H239332   4.545   0.876  10.679 -1.2580 -1.7315  1.3467
 5973TIP3   OH239333   6.152   5.914   2.878 -0.0874 -0.4551  0.0419
 5973TIP3    H139334   6.212   5.977   2.917 -2.1163  1.0893  0.8000
 5973TIP3    H239335   6.162   5.835   2.931  0.8968 -0.0823  0.4375
 5974TIP3   OH239336   1.736   3.178  16.607 -0.0750  0.4552 -0.0922
 5974TIP3    H139337   1.745   3.257  16.661  0.8078  0.9847 -0.9859
 5974TIP3    H239338   1.822   3.166  16.567 -0.2164 -0.9405 -0.0273
 5975TIP3   OH239339   1.962   4.280  16.054  0.7235  0.4827  0.0225
 5975TIP3    H139340   1.869   4.289  16.037  0.6098  0.1371  0.4385
 5975TIP3    H239341   1.975   4.186  16.067  1.0829  0.5550  0.2042
 5976TIP3   OH239342   2.385   3.068   3.839  0.1528  0.3808  0.5111
 5976TIP3    H139343   2.387   3.159   3.868 -2.6923  0.8210 -0.4050
 5976TIP3    H239344   2.368   3.017   3.919  0.2246  0.7993  0.7931
 5977TIP3   OH239345   1.691   4.728  14.021 -0.5133  0.0584  0.1664
 5977TIP3    H139346   1.736   4.717  13.938  0.1603 -0.1957  0.5539
 5977TIP3    H239347   1.726   4.658  14.077 -1.6576 -0.3758  0.3648
 5978TIP3   OH239348   0.116   4.514   0.384  0.4471 -0.2436  0.1133
 5978TIP3    H139349   0.099   4.504   0.477 -1.0477  0.1353 -0.1056
 5978TIP3    H239350   0.057   4.452   0.342  0.1239  0.5649 -0.6489
 5979TIP3   OH239351   1.945   5.288   3.792 -0.1783  0.8871 -0.2065
 5979TIP3    H139352   1.959   5.325   3.880 -0.7126  2.8793 -0.9043
 5979TIP3    H239353   2.026   5.240   3.774  0.3464  1.2626  0.9793
 5980TIP3   OH239354   0.128   3.910  12.441  0.1148 -0.2340  0.5168
 5980TIP3    H139355   0.077   3.973  12.491 -1.0969  0.4303 -1.4153
 5980TIP3    H239356   0.066   3.839  12.421  0.4432 -0.3026 -0.3158
 5981TIP3   OH239357   6.409   2.797   1.426 -0.2582 -0.3665  0.0582
 5981TIP3    H139358   6.488   2.768   1.380  0.3804  1.4991 -0.0967
 5981TIP3    H239359   6.438   2.818   1.514 -0.4349  0.8824 -0.1630
 5982TIP3   OH239360   4.078   3.086   2.599  0.5021  1.0855 -0.1397
 5982TIP3    H139361   4.042   3.127   2.521  2.4782  2.6886 -0.3039
 5982TIP3    H239362   4.031   3.127   2.672 -0.5125  0.4498 -0.4124
 5983TIP3   OH239363   2.204   1.170  11.543  1.0777 -1.2043 -0.2989
 5983TIP3    H139364   2.226   1.086  11.504  0.4767 -1.3510 -0.3417
 5983TIP3    H239365   2.120   1.193  11.504  0.1366 -1.6555  1.3467
 5984TIP3   OH239366   3.796   5.379  15.657 -0.1237 -0.1104 -0.1163
 5984TIP3    H139367   3.735   5.387  15.584 -0.8519  1.7583  0.6338
 5984TIP3    H239368   3.833   5.466  15.667  0.6237 -0.5567  1.1700
 5985TIP3   OH239369   0.928   2.154   5.401 -0.7979  0.0927  0.4172
 5985TIP3    H139370   1.004   2.142   5.458 -0.3848  0.1984 -0.1047
 5985TIP3    H239371   0.864   2.200   5.456 -0.6834 -0.4432  1.0146
 5986TIP3   OH239372   5.102   0.112   4.247 -0.8250  0.2538 -0.3655
 5986TIP3    H139373   5.172   0.121   4.312 -0.6653 -0.6561 -0.3983
 5986TIP3    H239374   5.105   0.194   4.197 -0.1664  0.4631  0.0007
 5987TIP3   OH239375   6.263   5.198   4.905  0.2357  0.4244  0.2568
 5987TIP3    H139376   6.277   5.171   4.814  0.4801  1.8831 -0.1669
 5987TIP3    H239377   6.352   5.213   4.938  0.3105 -2.0194  1.4138
 5988TIP3   OH239378   4.646   0.344   4.844  0.1750  0.7203 -0.5959
 5988TIP3    H139379   4.646   0.248   4.837  1.5197  0.7840 -1.9856
 5988TIP3    H239380   4.554   0.368   4.848 -0.2495 -0.5326 -2.1316
 5989TIP3   OH239381   0.249   2.262   4.681  0.4266 -0.6832 -0.2091
 5989TIP3    H139382   0.167   2.284   4.727 -1.6356 -3.2357 -2.3671
 5989TIP3    H239383   0.294   2.201   4.740  0.4935  0.2458  0.7212
 5990TIP3   OH239384   1.111   4.186   4.911  0.0034  0.1211  0.1535
 5990TIP3    H139385   1.114   4.251   4.981  0.7618 -0.9518  1.1884
 5990TIP3    H239386   1.023   4.149   4.916 -0.0884  0.3527  0.2556
 5991TIP3   OH239387   4.028   3.946  16.522  0.0810  0.1670 -0.6530
 5991TIP3    H139388   4.117   3.965  16.552 -0.0820 -0.7429  0.4602
 5991TIP3    H239389   4.034   3.859  16.484 -0.0677  0.6456 -1.8220
 5992TIP3   OH239390   1.229   1.074  14.762 -0.2522 -0.0552 -0.3409
 5992TIP3    H139391   1.135   1.056  14.761  0.1183 -2.3083  0.1435
 5992TIP3    H239392   1.259   1.050  14.674 -0.2024  1.3416 -0.7321
 5993TIP3   OH239393   2.601   4.516   5.536  0.3095  0.4679  0.4559
 5993TIP3    H139394   2.519   4.484   5.572  0.4669  0.9126  1.2384
 5993TIP3    H239395   2.614   4.466   5.456  0.0367 -0.6743  1.1108
 5994TIP3   OH239396   6.778   4.898  16.808  0.0669  0.6515 -0.3548
 5994TIP3    H139397   6.806   4.933  16.724 -0.8383  2.3155  0.0066
 5994TIP3    H239398   6.852   4.843  16.836  0.0487 -0.6247 -2.5768
 5995TIP3   OH239399   2.098   6.086  11.629  0.2400 -0.2732 -0.7270
 5995TIP3    H139400   2.091   6.027  11.554 -0.2943 -1.2223  0.0481
 5995TIP3    H239401   2.055   6.166  11.601  1.4651 -0.0272 -1.9944
 5996TIP3   OH239402   6.770   4.423  14.006 -0.7660  0.1748 -0.4392
 5996TIP3    H139403   6.710   4.348  14.008  0.1028 -0.5146  0.3782
 5996TIP3    H239404   6.848   4.393  14.053  0.7467  0.6145 -2.5154
 5997TIP3   OH239405   5.748   0.493   1.102  0.6151 -0.3917  0.5544
 5997TIP3    H139406   5.807   0.419   1.119  0.6819 -0.4110  0.2381
 5997TIP3    H239407   5.662   0.452   1.093  0.7089 -0.4785 -0.0048
 5998TIP3   OH239408   6.683   1.703   3.470 -0.4815  0.1584 -0.4750
 5998TIP3    H139409   6.765   1.743   3.498 -0.8498  1.3554 -1.0127
 5998TIP3    H239410   6.633   1.776   3.432 -0.9381 -0.9340 -2.0776
 5999TIP3   OH239411   5.393   0.718   4.278  0.1320 -0.4913 -0.2890
 5999TIP3    H139412   5.370   0.781   4.346 -0.2782 -0.9132 -0.0253
 5999TIP3    H239413   5.353   0.753   4.198  0.8869  0.1682 -0.3821
 6000TIP3   OH239414   1.907   2.788  14.197  0.2948  0.6748 -0.2802
 6000TIP3    H139415   1.992   2.752  14.171  0.7745  1.3336  0.3148
 6000TIP3    H239416   1.878   2.838  14.121  0.3780  0.3420 -0.5340
 6001TIP3   OH239417   2.446   5.174  16.546  0.3605  0.2310 -0.7827
 6001TIP3    H139418   2.423   5.239  16.479 -1.0509  0.5739 -0.0106
 6001TIP3    H239419   2.536   5.195  16.570  0.1999  1.3888 -1.1328
 6002TIP3   OH239420   4.821   3.802  11.412 -0.5637 -0.4794  0.2269
 6002TIP3    H139421   4.894   3.754  11.450 -2.2125 -0.2080  4.2766
 6002TIP3    H239422   4.748   3.740  11.414 -1.0418 -0.0494 -1.6260
 6003TIP3   OH239423   4.493   5.252  10.319  0.5799 -0.1924  0.1799
 6003TIP3    H139424   4.567   5.302  10.353  1.8069 -1.1218 -1.0074
 6003TIP3    H239425   4.446   5.314  10.263  1.3577  0.0004 -0.2778
 6004TIP3   OH239426   2.228   1.750   4.382 -0.1114  0.4061  0.1575
 6004TIP3    H139427   2.222   1.720   4.473 -3.2870  1.6623  0.4912
 6004TIP3    H239428   2.158   1.704   4.337 -0.7668  2.2790 -0.8411
 6005TIP3   OH239429   1.084   6.460   1.149  0.2585  0.6487 -0.4809
 6005TIP3    H139430   1.067   6.393   1.082 -0.0652  1.4282 -1.1982
 6005TIP3    H239431   0.998   6.498   1.166 -0.0344 -0.8637  1.8617
 6006TIP3   OH239432   6.400   6.064   2.385 -0.1234 -0.3182 -0.4870
 6006TIP3    H139433   6.397   6.153   2.350 -0.2480 -0.4242 -0.7475
 6006TIP3    H239434   6.414   6.009   2.308 -0.4557 -0.5553 -0.3766
 6007TIP3   OH239435   5.993   4.452  13.463 -0.1537  0.1204  0.7470
 6007TIP3    H139436   6.054   4.521  13.490  0.4470  1.1460 -2.6563
 6007TIP3    H239437   6.041   4.371  13.478  0.5645  0.6693  1.5404
 6008TIP3   OH239438   3.089   5.724   1.118 -0.0133  0.0528  0.0638
 6008TIP3    H139439   3.141   5.713   1.198 -0.9390 -0.6277  0.5938
 6008TIP3    H239440   3.146   5.692   1.048  0.2153 -0.8830  0.6534
 6009TIP3   OH239441   4.058   6.001   1.037  0.1683 -0.1638 -0.6141
 6009TIP3    H139442   4.063   5.954   0.954  3.2200 -1.5407  0.1796
 6009TIP3    H239443   4.059   5.931   1.103  1.5027  0.9351  0.5800
 6010TIP3   OH239444   3.240   2.083  16.777 -0.2442 -0.2210 -0.6364
 6010TIP3    H139445   3.331   2.054  16.787 -0.6175 -1.3568 -0.4177
 6010TIP3    H239446   3.206   2.085  16.867 -0.6085 -0.3825 -0.7719
 6011TIP3   OH239447   5.761   2.235  13.894  0.0576 -0.1980 -0.0053
 6011TIP3    H139448   5.820   2.278  13.956 -1.0342  0.8790  0.3484
 6011TIP3    H239449   5.808   2.237  13.811 -0.4438  3.0977 -0.3579
 6012TIP3   OH239450   0.238   6.452  12.996  0.4720  0.2103 -0.3286
 6012TIP3    H139451   0.212   6.443  12.905 -0.3194  0.0987 -0.0953
 6012TIP3    H239452   0.328   6.420  12.999  0.0186 -1.1386 -0.7973
 6013TIP3   OH239453   2.683   2.483  13.849 -0.3056 -0.2165 -0.2291
 6013TIP3    H139454   2.688   2.573  13.816  0.7060  0.6519  2.0616
 6013TIP3    H239455   2.672   2.429  13.771  1.4102  1.7120 -1.9163
 6014TIP3   OH239456   0.984   2.358  12.713 -0.3653 -0.1016  0.3846
 6014TIP3    H139457   0.896   2.356  12.751  0.5103  1.3643  2.7042
 6014TIP3    H239458   1.016   2.446  12.733  1.8563 -0.8141  0.1637
 6015TIP3   OH239459   4.355   5.166   1.562  0.7937  0.3644  0.3307
 6015TIP3    H139460   4.398   5.184   1.478 -1.2151 -0.8940 -1.0520
 6015TIP3    H239461   4.325   5.252   1.593  0.2865  0.6758 -0.9780
 6016TIP3   OH239462   0.645   1.002  15.351 -0.8585  0.7210  0.8609
 6016TIP3    H139463   0.671   1.094  15.355 -0.6528  0.7884 -1.0733
 6016TIP3    H239464   0.617   0.988  15.260  0.2362 -1.4100  0.7795
 6017TIP3   OH239465   5.003   3.461   4.593  0.0793  0.0477 -0.0960
 6017TIP3    H139466   5.027   3.522   4.524 -2.0226 -1.4183 -2.2892
 6017TIP3    H239467   4.907   3.464   4.597 -0.0860 -2.5424  0.1288
 6018TIP3   OH239468   0.491   5.413   6.205  0.4574  0.5527  0.1707
 6018TIP3    H139469   0.463   5.434   6.294  0.4892 -0.2668  0.3858
 6018TIP3    H239470   0.585   5.433   6.204  0.5396  0.2061  0.4478
 6019TIP3   OH239471   3.257   3.523  10.574  0.2703 -0.3435 -0.2169
 6019TIP3    H139472   3.264   3.573  10.656  1.3825  1.1034 -1.1424
 6019TIP3    H239473   3.346   3.492  10.558 -0.3095 -2.2764  0.0784
 6020TIP3   OH239474   2.177   5.390   2.637  0.2859  0.6883  0.2774
 6020TIP3    H139475   2.100   5.337   2.615 -0.6134  1.3211  1.7932
 6020TIP3    H239476   2.225   5.397   2.554 -0.6906 -0.6586 -0.4486
 6021TIP3   OH239477   5.582   3.430  14.645  0.1955 -0.4785 -0.3134
 6021TIP3    H139478   5.494   3.451  14.675  0.3482  0.4038 -0.4630
 6021TIP3    H239479   5.577   3.438  14.549  0.5395 -0.0174 -0.2953
 6022TIP3   OH239480   4.832   5.130  14.356 -0.8801 -0.2591  0.6518
 6022TIP3    H139481   4.795   5.217  14.371 -0.9674 -0.3862  1.1996
 6022TIP3    H239482   4.890   5.116  14.431 -1.8508 -1.2026  1.2536
 6023TIP3   OH239483   1.509   4.491  11.378  0.0430 -0.5387 -0.3108
 6023TIP3    H139484   1.522   4.463  11.287 -0.2471  0.5920 -0.7215
 6023TIP3    H239485   1.414   4.485  11.391  0.1301 -1.1273  0.0693
 6024TIP3   OH239486   4.361   6.492   4.359  0.1474 -0.0048 -0.0041
 6024TIP3    H139487   4.311   6.574   4.360 -0.2862 -0.1084  4.1314
 6024TIP3    H239488   4.451   6.519   4.380  0.4686 -0.4188 -0.8245
 6025TIP3   OH239489   2.325   6.650   1.715  0.6424  0.9885  0.0168
 6025TIP3    H139490   2.341   6.557   1.696 -2.4250  0.5868 -1.2305
 6025TIP3    H239491   2.316   6.654   1.810  2.7408  0.4373  0.2907
 6026TIP3   OH239492   4.460   5.747  14.407  0.1805  0.0142  0.1157
 6026TIP3    H139493   4.477   5.822  14.350 -0.2113  0.0069 -0.0136
 6026TIP3    H239494   4.477   5.779  14.495  0.4792  0.1169  0.0211
 6027TIP3   OH239495   6.524   0.776  12.751 -0.0925 -0.2566  0.3648
 6027TIP3    H139496   6.456   0.843  12.750  0.7170  0.6063 -0.9200
 6027TIP3    H239497   6.526   0.743  12.661  0.8191 -0.6388  0.5114
 6028TIP3   OH239498   4.741   5.692   3.218  0.2404  0.5457  0.4734
 6028TIP3    H139499   4.827   5.652   3.227  1.0064  2.2671  1.3252
 6028TIP3    H239500   4.700   5.646   3.144  2.2302  0.3156 -0.5455
 6029TIP3   OH239501   4.725   0.060  11.987 -0.5205 -0.1068 -0.3084
 6029TIP3    H139502   4.797   0.097  12.037 -0.1511 -0.3961 -0.6188
 6029TIP3    H239503   4.678   0.004  12.050  1.4649 -2.5764 -0.8510
 6030TIP3   OH239504   4.475   4.580  11.492  0.2659  0.1494  0.2318
 6030TIP3    H139505   4.553   4.628  11.467  0.7748  0.2355  1.8714
 6030TIP3    H239506   4.403   4.641  11.479  0.5050  0.2210 -0.8444
 6031TIP3   OH239507   3.893   4.666   1.181 -0.3422 -0.2153  0.0678
 6031TIP3    H139508   3.935   4.634   1.102  2.1532  1.9503  0.3962
 6031TIP3    H239509   3.814   4.711   1.150 -2.1562 -3.5812 -0.6415
 6032TIP3   OH239510   2.817   5.366  16.069  0.3072  0.1433 -0.2052
 6032TIP3    H139511   2.809   5.461  16.075 -0.6785  0.1145 -0.8879
 6032TIP3    H239512   2.801   5.335  16.159 -0.2995  0.5672 -0.1615
 6033TIP3   OH239513   4.326   1.308  10.272 -0.7346 -0.3140 -0.4232
 6033TIP3    H139514   4.243   1.262  10.256 -1.2638  0.7720 -0.8664
 6033TIP3    H239515   4.339   1.300  10.366 -2.3287  1.0841 -0.0298
 6034TIP3   OH239516   1.039   4.438  14.246  0.3921 -0.2899  0.4524
 6034TIP3    H139517   1.077   4.489  14.317  3.2714 -1.2304 -0.2619
 6034TIP3    H239518   1.000   4.503  14.187  0.2300  0.6854  1.6105
 6035TIP3   OH239519   6.305   3.109   6.043  0.1272 -0.0836 -0.5149
 6035TIP3    H139520   6.263   3.024   6.057  1.3881 -0.2874  2.7336
 6035TIP3    H239521   6.232   3.171   6.043 -0.5556 -0.8532  0.4172
 6036TIP3   OH239522   4.114   2.448   5.009 -0.2560 -0.0045  0.0046
 6036TIP3    H139523   4.067   2.464   4.927  0.2195  0.8213 -0.1139
 6036TIP3    H239524   4.189   2.395   4.984  1.6562  2.8183 -0.6631
 6037TIP3   OH239525   0.435   4.543  15.853 -0.2587 -0.3533  0.4921
 6037TIP3    H139526   0.473   4.465  15.813 -0.2158  0.1560 -0.4815
 6037TIP3    H239527   0.509   4.591  15.889  0.0826  0.7179 -1.5411
 6038TIP3   OH239528   5.029   1.490   4.205  0.0061  0.4622 -0.6681
 6038TIP3    H139529   4.950   1.451   4.243 -0.7227  1.1678 -1.4005
 6038TIP3    H239530   5.004   1.580   4.187  0.9366  0.6467 -1.0855
 6039TIP3   OH239531   2.400   4.657   0.753 -0.2747  0.2627  0.0315
 6039TIP3    H139532   2.379   4.588   0.689  0.6199 -0.3654  0.3833
 6039TIP3    H239533   2.340   4.728   0.732 -2.4137 -1.2491  0.7385
 6040TIP3   OH239534   5.165   0.084   6.302 -0.3781  0.0546 -0.0305
 6040TIP3    H139535   5.128   0.171   6.287 -0.9220 -0.3116 -0.8583
 6040TIP3    H239536   5.246   0.101   6.351 -0.9534  0.9526  0.6527
 6041TIP3   OH239537   1.456   2.718   3.391 -0.1668 -0.0081  0.5195
 6041TIP3    H139538   1.470   2.625   3.373 -2.7468 -0.7057  1.7584
 6041TIP3    H239539   1.403   2.750   3.318  0.1255  0.3493  0.4545
 6042TIP3   OH239540   0.104   1.192   2.618  0.3638 -0.0604 -0.1650
 6042TIP3    H139541   0.150   1.274   2.637  0.4144  0.2830 -1.6083
 6042TIP3    H239542   0.052   1.175   2.696  1.2816  0.6987  0.6428
 6043TIP3   OH239543   4.833   0.203  11.432 -0.4559 -0.0623 -0.5087
 6043TIP3    H139544   4.780   0.167  11.361  0.8599  1.0428 -2.1346
 6043TIP3    H239545   4.770   0.240  11.493 -1.6047 -0.6172 -1.3221
 6044TIP3   OH239546   4.160   6.357  16.222 -0.5780  0.3983  0.6543
 6044TIP3    H139547   4.098   6.428  16.202  0.5286  1.2697  0.2250
 6044TIP3    H239548   4.208   6.388  16.298 -0.0796  0.1138  0.4568
 6045TIP3   OH239549   5.833   0.755  13.655  0.0805  0.2809 -0.0433
 6045TIP3    H139550   5.921   0.758  13.691 -0.7238  2.7740  2.0255
 6045TIP3    H239551   5.839   0.697  13.579  2.6602 -2.6437  2.1588
 6046TIP3   OH239552   6.072   2.632  16.384  0.1052  0.3387  0.3728
 6046TIP3    H139553   6.089   2.699  16.318  2.4350 -0.9063 -0.4033
 6046TIP3    H239554   6.036   2.558  16.334 -0.8091  0.3853  0.9507
 6047TIP3   OH239555   6.294   6.366   1.906 -0.2932 -0.5082 -0.0490
 6047TIP3    H139556   6.228   6.434   1.921  0.3811  0.1922 -0.2064
 6047TIP3    H239557   6.298   6.357   1.811  0.0367 -0.3485 -0.0508
 6048TIP3   OH239558   2.455   0.546  16.849 -0.0173  0.3899 -0.3624
 6048TIP3    H139559   2.452   0.606  16.775 -0.3764  1.3464  0.3980
 6048TIP3    H239560   2.473   0.602  16.925  1.9806 -0.7496  0.0875
 6049TIP3   OH239561   4.847   0.597   3.958  0.6288 -0.3437 -0.3026
 6049TIP3    H139562   4.776   0.534   3.945 -0.8048  0.8530  1.2397
 6049TIP3    H239563   4.802   0.682   3.962  1.8397  0.2695  2.8556
 6050TIP3   OH239564   1.482   6.657  14.484  0.0661 -0.5102 -0.5951
 6050TIP3    H139565   1.541   6.697  14.548 -0.5961  0.8447 -0.7941
 6050TIP3    H239566   1.536   6.644  14.406  0.3707 -0.2993 -0.4211
 6051TIP3   OH239567   5.724   6.706  11.791  0.0705 -0.2850  0.0446
 6051TIP3    H139568   5.747   6.763  11.717 -0.2542 -0.4889 -0.2198
 6051TIP3    H239569   5.788   6.726  11.858  0.5750 -0.3243 -0.4162
 6052TIP3   OH239570   2.890   3.929   4.713 -0.0097  0.0739  0.5320
 6052TIP3    H139571   2.971   3.913   4.665  0.6400  3.6956  0.1464
 6052TIP3    H239572   2.828   3.960   4.647 -0.5619  0.7372  1.3334
 6053TIP3   OH239573   1.282   6.589  13.984  0.4363 -0.5435 -0.0312
 6053TIP3    H139574   1.283   6.505  13.940  1.3605 -1.0856  0.9929
 6053TIP3    H239575   1.246   6.650  13.919 -1.8515 -1.9953 -0.2606
 6054TIP3   OH239576   3.576   3.219  10.383 -0.0076  0.0359  0.3318
 6054TIP3    H139577   3.550   3.193  10.471 -1.1534  0.6985  0.2080
 6054TIP3    H239578   3.498   3.206  10.330 -0.1865  2.2417 -0.0303
 6055TIP3   OH239579   5.281   0.817   5.562 -0.4230  0.4377 -0.2605
 6055TIP3    H139580   5.275   0.911   5.581  0.9986  0.4973 -0.0408
 6055TIP3    H239581   5.193   0.784   5.583 -0.1321  1.1915  2.6337
 6056TIP3   OH239582   2.943   3.953   2.497 -0.2010 -0.0703 -0.0946
 6056TIP3    H139583   2.923   3.860   2.491  0.3553 -0.1541 -0.9011
 6056TIP3    H239584   2.934   3.975   2.590 -2.8322 -0.3418 -0.2085
 6057TIP3   OH239585   5.395   2.399  16.518  0.4695 -0.3139 -0.2371
 6057TIP3    H139586   5.435   2.482  16.493 -0.5568  0.1792 -0.2814
 6057TIP3    H239587   5.321   2.423  16.573 -0.0255 -1.1746 -0.4955
 6058TIP3   OH239588   0.043   5.793   4.132 -0.3783 -0.3392 -0.2650
 6058TIP3    H139589   0.139   5.790   4.127 -0.2814  0.5028  0.7813
 6058TIP3    H239590   0.015   5.806   4.042  0.5293  0.0333 -0.5110
 6059TIP3   OH239591   1.215   4.835   4.815  0.4645 -0.6138  0.2629
 6059TIP3    H139592   1.280   4.805   4.879  1.1638 -0.0533 -0.1635
 6059TIP3    H239593   1.262   4.901   4.763 -0.3767 -0.3851 -0.2177
 6060TIP3   OH239594   6.662   6.631   3.084 -0.2813  0.5832 -0.8045
 6060TIP3    H139595   6.589   6.633   3.022  1.7110 -0.7783 -3.4325
 6060TIP3    H239596   6.717   6.706   3.059 -0.4941  1.2876  0.7808
 6061TIP3   OH239597   2.178   6.787  15.682  0.3352 -0.2202  0.4212
 6061TIP3    H139598   2.127   6.775  15.602 -1.1199  1.8952  0.9393
 6061TIP3    H239599   2.141   6.724  15.744 -0.6318  0.2102  0.3070
 6062TIP3   OH239600   0.121   3.818  12.071  0.1930  0.4496 -0.2577
 6062TIP3    H139601   0.188   3.771  12.121  2.1674  1.5093 -1.7662
 6062TIP3    H239602   0.134   3.910  12.094 -2.1840  0.5633  0.9791
 6063TIP3   OH239603   1.623   6.321   6.211 -0.4955  0.3206  0.4934
 6063TIP3    H139604   1.586   6.361   6.132 -2.3108 -0.9127  0.6514
 6063TIP3    H239605   1.586   6.233   6.213  2.2231 -0.9130  0.9206
 6064TIP3   OH239606   0.409   5.310  15.775  0.0588  0.9291  0.2374
 6064TIP3    H139607   0.396   5.356  15.858 -0.2300  1.3101 -0.0157
 6064TIP3    H239608   0.493   5.342  15.742  0.3442  0.5137  0.5497
 6065TIP3   OH239609   2.399   5.073  12.914 -0.4716  0.5869  0.2446
 6065TIP3    H139610   2.378   5.058  12.822 -0.0347 -0.6134  0.3149
 6065TIP3    H239611   2.421   4.986  12.948  1.8294  1.3408  0.8572
 6066TIP3   OH239612   6.496   4.764  13.014 -0.2627 -0.3990  0.3864
 6066TIP3    H139613   6.523   4.786  13.103  0.9125  2.2926 -0.5193
 6066TIP3    H239614   6.419   4.709  13.025 -0.4840  0.3180  3.0586
 6067TIP3   OH239615   0.212   4.182  12.792  0.0380  0.3618  0.0775
 6067TIP3    H139616   0.157   4.215  12.721 -1.6179  0.5220  1.3487
 6067TIP3    H239617   0.301   4.190  12.760 -0.6952 -1.0389 -2.5653
 6068TIP3   OH239618   5.215   6.374   2.033  0.0082  0.2277  0.3182
 6068TIP3    H139619   5.240   6.287   2.003  1.0608  0.8757 -0.8166
 6068TIP3    H239620   5.299   6.417   2.052 -0.4272  1.3068 -0.1235
 6069TIP3   OH239621   0.335   0.771  14.315  0.1419  0.4023  0.3239
 6069TIP3    H139622   0.289   0.841  14.268  0.5107  0.8340  0.5904
 6069TIP3    H239623   0.346   0.701  14.250 -1.1513  0.1639  0.3374
 6070TIP3   OH239624   2.458   0.397  14.051  0.3140  0.3915 -0.3144
 6070TIP3    H139625   2.507   0.356  14.122  2.6806  1.5518 -1.1377
 6070TIP3    H239626   2.488   0.488  14.051 -2.0155  1.2231 -0.8205
 6071TIP3   OH239627   5.762   4.136   4.559  0.2206  0.0073  0.0631
 6071TIP3    H139628   5.764   4.180   4.474 -0.5705  1.7765  0.9221
 6071TIP3    H239629   5.848   4.095   4.566  2.0398  3.5155  0.2569
 6072TIP3   OH239630   2.320   3.279   1.152 -0.4286 -0.0903  0.0788
 6072TIP3    H139631   2.279   3.320   1.076  1.4178 -0.9465 -1.4603
 6072TIP3    H239632   2.317   3.185   1.132 -0.9603 -0.4396  1.6520
 6073TIP3   OH239633   6.490   5.086   2.746  0.2242  0.1283 -0.3189
 6073TIP3    H139634   6.526   4.999   2.760 -1.0043 -0.3456  0.0101
 6073TIP3    H239635   6.437   5.079   2.667  1.3092  0.9783 -1.1575
 6074TIP3   OH239636   2.454   6.016  13.794 -0.1057  0.3281  0.2957
 6074TIP3    H139637   2.491   6.038  13.879 -0.8326  0.8148  0.4817
 6074TIP3    H239638   2.367   5.981  13.813 -1.1005  2.3128 -0.3613
 6075TIP3   OH239639   6.103   5.546   0.252 -0.3073  0.1785 -0.5906
 6075TIP3    H139640   6.151   5.539   0.169  0.9762  0.1260  0.1287
 6075TIP3    H239641   6.156   5.497   0.314 -1.1275  0.4264  0.3320
 6076TIP3   OH239642   1.280   1.768  16.424 -0.0154  0.2323 -0.1765
 6076TIP3    H139643   1.209   1.812  16.377  0.1043 -0.0318 -0.6067
 6076TIP3    H239644   1.360   1.808  16.389  0.1574 -1.1742 -1.4774
 6077TIP3   OH239645   1.072   1.550   6.465 -0.2020  0.2239  0.1561
 6077TIP3    H139646   1.044   1.462   6.441 -1.4740 -0.0034  2.2171
 6077TIP3    H239647   1.122   1.581   6.390  0.3480 -2.2787 -0.5991
 6078TIP3   OH239648   0.998   1.007   1.701 -0.1306  0.1571  0.2014
 6078TIP3    H139649   0.988   0.913   1.716  0.2868  0.1422  0.4231
 6078TIP3    H239650   1.029   1.015   1.611  1.3748 -0.0340  0.6664
 6079TIP3   OH239651   1.112   5.621   0.686 -0.0697 -0.3175  0.7187
 6079TIP3    H139652   1.157   5.571   0.618 -0.2435  2.9035 -2.0634
 6079TIP3    H239653   1.032   5.572   0.703 -0.7744 -0.6118 -2.6477
 6080TIP3   OH239654   3.538   0.820   1.057  0.2641  0.1410  0.0907
 6080TIP3    H139655   3.467   0.837   1.118 -2.8095  0.3327 -3.2070
 6080TIP3    H239656   3.543   0.724   1.052  1.3154  0.0943  1.3261
 6081TIP3   OH239657   2.588   2.707  13.354 -0.1149  0.0003 -0.3502
 6081TIP3    H139658   2.671   2.692  13.310  0.3379 -0.4699  0.6310
 6081TIP3    H239659   2.563   2.796  13.329 -0.1217 -0.4007 -1.9072
 6082TIP3   OH239660   4.274   5.610  17.124  0.5660 -0.0599 -0.5265
 6082TIP3    H139661   4.327   5.583  17.049  3.0952  0.1255  1.0833
 6082TIP3    H239662   4.248   5.528  17.166  1.9811 -0.1705  0.2046
 6083TIP3   OH239663   2.488   2.442   2.622  0.2668  0.0297  0.6067
 6083TIP3    H139664   2.500   2.362   2.570 -1.3037  0.0530  0.1676
 6083TIP3    H239665   2.567   2.493   2.604 -0.8093  0.7084 -3.0470
 6084TIP3   OH239666   1.927   6.189  13.280  0.5963  0.1588 -0.2875
 6084TIP3    H139667   1.836   6.183  13.309  0.2338  3.5191 -0.3082
 6084TIP3    H239668   1.923   6.168  13.186 -0.3968  1.3273 -0.5350
 6085TIP3   OH239669   4.490   2.244   0.888 -0.2672 -0.5082  0.1008
 6085TIP3    H139670   4.448   2.315   0.936  0.0185  0.3443 -0.8609
 6085TIP3    H239671   4.457   2.253   0.798 -1.4402 -2.5558  0.2576
 6086TIP3   OH239672   0.779   5.235  13.577  0.3078  0.1096 -0.2978
 6086TIP3    H139673   0.736   5.314  13.609  0.4938 -0.1197  0.5524
 6086TIP3    H239674   0.716   5.165  13.593  0.3199  0.0175 -0.6408
 6087TIP3   OH239675   5.042   5.081   1.065  0.1127 -0.0904  0.4340
 6087TIP3    H139676   5.020   5.172   1.043  0.2884 -0.0280  0.5195
 6087TIP3    H239677   5.136   5.074   1.046 -0.3257 -0.8905 -1.8402
 6088TIP3   OH239678   6.801   0.654   1.984  0.0688 -0.2695 -0.5238
 6088TIP3    H139679   6.730   0.711   1.955 -0.2432  0.5234  1.6148
 6088TIP3    H239680   6.766   0.610   2.062  1.4909 -0.8291 -0.1671
 6089TIP3   OH239681   4.612   6.193  15.255  0.0369 -0.3511  0.0533
 6089TIP3    H139682   4.535   6.203  15.199  0.2400  0.2347 -0.1326
 6089TIP3    H239683   4.576   6.178  15.342 -0.2930 -0.0837 -0.0321
 6090TIP3   OH239684   5.703   6.707  15.909  0.6454  0.6406  0.0899
 6090TIP3    H139685   5.661   6.781  15.952  0.1450  2.1694 -2.7884
 6090TIP3    H239686   5.750   6.662  15.979 -0.3157  2.7459  2.2249
 6091TIP3   OH239687   0.724   5.513  14.882  0.3447  0.3568 -0.7851
 6091TIP3    H139688   0.657   5.445  14.867 -2.0687  2.3689  0.1018
 6091TIP3    H239689   0.736   5.553  14.796 -1.0225  1.1370 -0.6491
 6092TIP3   OH239690   1.508   3.111  15.037 -0.3533 -0.4857  0.0406
 6092TIP3    H139691   1.476   3.197  15.062  1.5575  0.4135 -0.4440
 6092TIP3    H239692   1.578   3.128  14.974  0.0872 -2.3918 -0.0584
 6093TIP3   OH239693   1.314   3.024   2.164  0.5310 -0.4105  0.5068
 6093TIP3    H139694   1.226   3.056   2.145  0.4354 -0.1807  1.2690
 6093TIP3    H239695   1.300   2.950   2.224  0.9023  1.1379  2.6361
 6094TIP3   OH239696   0.689   1.535  16.331  0.1926  0.5065  0.5731
 6094TIP3    H139697   0.735   1.453  16.345 -1.6577 -0.6598  0.0921
 6094TIP3    H239698   0.616   1.513  16.274 -0.7546  2.3539  0.9876
 6095TIP3   OH239699   4.401   6.108   1.039 -0.0398  0.5170 -0.1274
 6095TIP3    H139700   4.387   6.017   1.011 -1.4223  0.7840 -0.3805
 6095TIP3    H239701   4.389   6.106   1.134 -0.0440  0.4189 -0.1297
 6096TIP3   OH239702   2.874   3.968   4.425  0.6864 -0.3395  0.0350
 6096TIP3    H139703   2.788   3.991   4.459  0.6697  2.3500 -1.5044
 6096TIP3    H239704   2.906   4.049   4.385  2.1603 -2.2784 -3.1156
 6097TIP3   OH239705   2.883   4.396   3.166  0.8240  0.3727  0.6342
 6097TIP3    H139706   2.930   4.471   3.130  0.0919  0.3130 -0.5067
 6097TIP3    H239707   2.948   4.327   3.174  0.7772 -0.0509 -1.9212
 6098TIP3   OH239708   1.970   3.806   3.344 -0.0750  0.2305 -0.7490
 6098TIP3    H139709   2.037   3.872   3.362  0.1666 -0.1395 -0.2809
 6098TIP3    H239710   1.946   3.772   3.430  0.2298 -0.7179 -1.0299
 6099TIP3   OH239711   1.809   4.319   5.792 -0.1557  0.6123 -0.5345
 6099TIP3    H139712   1.757   4.349   5.866  0.0443 -1.5132  0.5471
 6099TIP3    H239713   1.744   4.285   5.730 -0.3190  2.3420 -1.3710
 6100TIP3   OH239714   3.452   5.335   2.857  0.4175 -0.1625 -0.3341
 6100TIP3    H139715   3.440   5.386   2.777 -0.6551 -0.3251 -0.2916
 6100TIP3    H239716   3.514   5.267   2.832  0.1954 -0.1319 -0.9960
 6101TIP3   OH239717   6.306   0.458   1.439 -0.8501  0.2229  0.6894
 6101TIP3    H139718   6.373   0.497   1.383  0.2440 -3.0947 -0.5925
 6101TIP3    H239719   6.309   0.509   1.520  1.4237  1.7857 -0.2905
 6102TIP3   OH239720   3.097   1.601   1.357  0.5305 -0.1223  0.1221
 6102TIP3    H139721   3.162   1.533   1.344  0.9554  0.3486 -0.2683
 6102TIP3    H239722   3.012   1.556   1.349  0.8029 -0.5641 -0.3197
 6103TIP3   OH239723   4.242   1.574  12.462 -0.1546 -0.2600 -0.3210
 6103TIP3    H139724   4.218   1.662  12.490 -2.0343 -0.7871 -0.1239
 6103TIP3    H239725   4.177   1.517  12.504  0.9922 -1.7456 -0.4646
 6104TIP3   OH239726   5.156   2.471  16.664  0.3684 -0.2325 -0.6482
 6104TIP3    H139727   5.137   2.565  16.669 -1.1450 -0.4305 -1.8329
 6104TIP3    H239728   5.070   2.430  16.650  0.8806 -1.8869  0.7158
 6105TIP3   OH239729   6.633   4.545   4.921 -0.3174 -0.0495  0.0531
 6105TIP3    H139730   6.591   4.630   4.929  1.1754  0.8165 -0.8877
 6105TIP3    H239731   6.623   4.505   5.007  0.3907  1.7732  1.0247
 6106TIP3   OH239732   4.424   3.067   3.553 -0.2576  0.0641 -0.2191
 6106TIP3    H139733   4.413   3.154   3.516 -0.6791  1.0762  2.1424
 6106TIP3    H239734   4.426   3.009   3.477 -2.2050  1.8822 -1.7734
 6107TIP3   OH239735   5.962   4.663   1.604  0.5716 -0.2732 -0.4074
 6107TIP3    H139736   6.037   4.659   1.664  0.1568 -1.5145  0.0613
 6107TIP3    H239737   5.888   4.687   1.659  0.5158  0.3743 -0.7628
 6108TIP3   OH239738   5.681   5.851   0.929 -0.4494  0.3137  0.0452
 6108TIP3    H139739   5.609   5.904   0.963  0.4887 -0.1645  3.0575
 6108TIP3    H239740   5.719   5.809   1.006  0.3324 -2.9341 -1.9073
 6109TIP3   OH239741   6.093   3.837  16.086 -0.4779  0.2726  0.0285
 6109TIP3    H139742   6.123   3.799  16.003  0.0033 -1.3908  0.9053
 6109TIP3    H239743   6.009   3.795  16.102 -1.7293  2.3749 -0.7426
 6110TIP3   OH239744   0.963   4.660   0.768 -0.1963  0.7180 -0.5089
 6110TIP3    H139745   0.890   4.719   0.788 -1.2226 -0.6455 -0.0732
 6110TIP3    H239746   0.932   4.574   0.795  1.6600  0.1199 -0.1559
 6111TIP3   OH239747   2.447   2.037   5.747  0.2763  0.0635 -0.0673
 6111TIP3    H139748   2.387   2.088   5.693  1.1649 -0.4460 -1.5835
 6111TIP3    H239749   2.443   2.079   5.833 -2.0856  0.1507 -0.1625
 6112TIP3   OH239750   1.496   2.695  13.782 -0.1660 -0.1993  0.2761
 6112TIP3    H139751   1.488   2.789  13.765 -0.1521 -0.1068  0.7524
 6112TIP3    H239752   1.405   2.664  13.785 -0.1534 -0.3704 -0.7435
 6113TIP3   OH239753   2.768   3.034  11.003 -0.7772  0.2469  0.2196
 6113TIP3    H139754   2.801   2.958  10.954 -1.8261  1.1915 -2.0610
 6113TIP3    H239755   2.814   3.109  10.966 -1.6792  1.0071  0.5986
 6114TIP3   OH239756   3.727   3.124   2.622 -0.4022  0.3634  0.1578
 6114TIP3    H139757   3.645   3.166   2.649 -0.3004  1.9189 -1.7535
 6114TIP3    H239758   3.796   3.181   2.657 -0.0578 -0.9923  1.8464
 6115TIP3   OH239759   0.446   5.857  12.173  0.1463 -0.6597 -0.0314
 6115TIP3    H139760   0.515   5.886  12.233 -1.6948  1.1576  1.3253
 6115TIP3    H239761   0.380   5.819  12.230 -0.5031 -1.2930 -1.1886
 6116TIP3   OH239762   4.821   2.877   0.132 -0.3780  0.6078 -0.3526
 6116TIP3    H139763   4.768   2.956   0.120 -1.2278 -0.2618 -2.9485
 6116TIP3    H239764   4.766   2.819   0.186 -0.8882  0.7836 -0.6768
 6117TIP3   OH239765   6.043   1.905  14.808 -0.2728  0.8683 -0.1346
 6117TIP3    H139766   6.097   1.883  14.732 -1.3418 -1.2656 -0.3550
 6117TIP3    H239767   6.098   1.885  14.883  0.0928  1.0597 -0.3495
 6118TIP3   OH239768   3.822   2.739  13.736 -0.4282  0.0112 -0.1286
 6118TIP3    H139769   3.821   2.789  13.654  0.0039 -1.3255 -0.9720
 6118TIP3    H239770   3.797   2.803  13.803 -2.1903  0.8084 -1.4708
 6119TIP3   OH239771   0.360   4.726  11.118  0.1893  0.0231  0.4462
 6119TIP3    H139772   0.356   4.663  11.046 -0.8097  0.0329  0.4786
 6119TIP3    H239773   0.444   4.709  11.160  0.6408 -0.2012 -0.5175
 6120TIP3   OH239774   1.116   5.971   0.491 -0.1478  0.3796 -1.1195
 6120TIP3    H139775   1.208   5.976   0.516 -0.5428 -2.3691  1.4440
 6120TIP3    H239776   1.068   5.980   0.574 -2.1118  0.0962 -2.1543
 6121TIP3   OH239777   1.347   4.565   0.323  0.0084 -0.2886 -0.2311
 6121TIP3    H139778   1.275   4.623   0.299  1.8790  1.9312 -0.7930
 6121TIP3    H239779   1.394   4.549   0.241  1.3570  0.0596  0.4380
 6122TIP3   OH239780   4.658   2.798   3.853 -0.5234 -0.3877 -0.0147
 6122TIP3    H139781   4.564   2.813   3.854 -0.1759  2.1577 -0.5494
 6122TIP3    H239782   4.685   2.822   3.764  0.5318 -2.0844 -0.2069
 6123TIP3   OH239783   6.781   1.530   0.900 -0.5215 -0.2766 -0.3643
 6123TIP3    H139784   6.860   1.494   0.941  0.0450  1.1659 -0.1258
 6123TIP3    H239785   6.721   1.455   0.894  0.0916 -0.9669  1.3315
 6124TIP3   OH239786   1.366   3.390  12.738 -0.6639 -0.0881  0.0187
 6124TIP3    H139787   1.434   3.351  12.794 -0.5705 -0.8339 -0.5908
 6124TIP3    H239788   1.293   3.407  12.797  0.2442  1.2778  0.8131
 6125TIP3   OH239789   2.468   4.253   2.448  0.4419 -1.0908 -0.5321
 6125TIP3    H139790   2.419   4.183   2.492  0.4828 -1.1729 -0.6168
 6125TIP3    H239791   2.548   4.263   2.501 -0.5250  0.3809  0.7671
 6126TIP3   OH239792   0.075   2.826  15.070  0.0496 -0.1634  0.1620
 6126TIP3    H139793   0.111   2.835  15.158  0.5735 -0.6764  0.0013
 6126TIP3    H239794   0.092   2.911  15.028 -0.3625  0.1465  0.6056
 6127TIP3   OH239795   2.625   4.293  11.418 -0.5616  0.5649  0.2951
 6127TIP3    H139796   2.656   4.232  11.351 -1.7879  1.5659 -1.2644
 6127TIP3    H239797   2.554   4.246  11.462 -0.5479  0.3378  0.0781
 6128TIP3   OH239798   0.571   1.661  15.007 -0.1869 -0.3424  0.3547
 6128TIP3    H139799   0.655   1.681  15.048  1.0807  0.8745 -2.6017
 6128TIP3    H239800   0.533   1.747  14.987 -1.6166 -0.8935  0.5812
 6129TIP3   OH239801   2.601   4.453  13.454 -0.4342 -0.0433 -0.1243
 6129TIP3    H139802   2.527   4.513  13.440 -0.3213  0.4372  1.2179
 6129TIP3    H239803   2.560   4.367  13.464 -0.5410 -0.4301 -3.0235
 6130TIP3   OH239804   2.748   1.599  14.238 -0.1880 -0.2845 -0.2294
 6130TIP3    H139805   2.678   1.573  14.179 -1.0128  0.9878  0.1486
 6130TIP3    H239806   2.816   1.533  14.226 -2.0591 -2.4877  0.5429
 6131TIP3   OH239807   2.221   1.211  14.625  1.1644 -0.0061  0.6212
 6131TIP3    H139808   2.168   1.258  14.689  1.0887  2.5509 -1.1563
 6131TIP3    H239809   2.306   1.200  14.668  1.0900  1.5477  1.2201
 6132TIP3   OH239810   3.258   3.172   6.722 -0.0484 -0.2674  0.3741
 6132TIP3    H139811   3.164   3.182   6.735  0.0973 -1.2945  2.6799
 6132TIP3    H239812   3.273   3.078   6.721  1.0174 -0.1156  0.4955
 6133TIP3   OH239813   3.629   2.758  14.741  0.1142 -0.2282  0.2363
 6133TIP3    H139814   3.652   2.703  14.816  0.1206 -0.9045 -0.2544
 6133TIP3    H239815   3.676   2.840  14.756 -1.4079  0.3875  1.9653
 6134TIP3   OH239816   1.652   0.906  14.663 -0.1175 -0.3796 -0.6550
 6134TIP3    H139817   1.632   0.983  14.717  1.8576  1.1872 -1.9822
 6134TIP3    H239818   1.681   0.840  14.726  0.6943  0.8842  0.3619
 6135TIP3   OH239819   6.683   6.327  12.253 -0.2941 -0.0728 -0.2087
 6135TIP3    H139820   6.690   6.240  12.293  0.3628 -0.5638 -1.3193
 6135TIP3    H239821   6.718   6.386  12.319 -1.7087 -0.4962  0.9795
 6136TIP3   OH239822   2.307   0.837   4.010  0.5700  0.2401  0.4652
 6136TIP3    H139823   2.306   0.808   4.101 -1.0879  1.0895  0.7557
 6136TIP3    H239824   2.338   0.928   4.015 -1.0623  0.8297  0.4028
 6137TIP3   OH239825   6.164   2.848   4.703 -0.0698 -0.2138  0.4606
 6137TIP3    H139826   6.173   2.863   4.797 -1.9239 -0.0711  0.6479
 6137TIP3    H239827   6.112   2.768   4.696  0.8881 -0.7828 -0.4709
 6138TIP3   OH239828   4.753   4.012  11.921 -0.0512 -0.1771 -0.5556
 6138TIP3    H139829   4.733   4.088  11.865 -1.8473  1.7073  2.3388
 6138TIP3    H239830   4.821   4.043  11.980 -0.6656 -0.8661  0.5436
 6139TIP3   OH239831   5.948   1.366  10.628  0.4794 -0.0126 -0.1449
 6139TIP3    H139832   5.916   1.413  10.705  0.2753 -1.3230  0.6097
 6139TIP3    H239833   6.039   1.395  10.618 -0.2477  2.1431 -1.0298
 6140TIP3   OH239834   5.390   4.722   5.050 -0.4024 -0.1111 -0.0286
 6140TIP3    H139835   5.382   4.809   5.090 -1.3858  0.2781 -0.9998
 6140TIP3    H239836   5.478   4.721   5.013 -0.1121  0.1826  0.6273
 6141TIP3   OH239837   1.491   4.524   3.051  0.1934 -0.2228 -0.0238
 6141TIP3    H139838   1.506   4.578   2.974 -0.4221 -0.8016 -0.5643
 6141TIP3    H239839   1.407   4.481   3.034  0.6732 -1.3601  0.3746
 6142TIP3   OH239840   0.600   1.376  16.691  0.1131  0.0190 -0.1030
 6142TIP3    H139841   0.529   1.392  16.629 -0.9577 -2.4730  0.3681
 6142TIP3    H239842   0.661   1.449  16.677 -2.3942  2.1519 -0.6551
 6143TIP3   OH239843   2.359   3.994   1.849  0.2260  0.1470  0.4399
 6143TIP3    H139844   2.398   3.930   1.790  0.2628  0.4640  0.1249
 6143TIP3    H239845   2.428   4.014   1.912  1.3213  2.2520 -1.2909
 6144TIP3   OH239846   3.624   3.527  12.632  0.0639  0.3469  0.4903
 6144TIP3    H139847   3.546   3.481  12.602  0.8497 -0.7503  0.0625
 6144TIP3    H239848   3.609   3.618  12.607 -1.2882  0.2422  0.8651
 6145TIP3   OH239849   3.874   4.746   4.282 -0.5155 -0.0083 -0.1674
 6145TIP3    H139850   3.813   4.786   4.220  1.2013  0.6585 -1.4860
 6145TIP3    H239851   3.824   4.674   4.322 -1.4265 -1.0061 -2.9178
 6146TIP3   OH239852   2.024   6.337  12.285 -0.2100  0.4129 -0.3226
 6146TIP3    H139853   1.993   6.378  12.366 -0.4499  3.0116 -1.6355
 6146TIP3    H239854   2.025   6.407  12.221  0.6963 -1.3945 -2.4334
 6147TIP3   OH239855   0.079   6.478  15.813 -0.3283 -0.0905 -0.3235
 6147TIP3    H139856   0.034   6.393  15.813 -0.8070  0.1559 -1.0967
 6147TIP3    H239857   0.168   6.457  15.787  0.5398 -0.8206  2.8076
 6148TIP3   OH239858   5.567   4.585   3.092 -0.2376  0.1952  0.4555
 6148TIP3    H139859   5.504   4.597   3.021  0.7260  1.5217 -0.2396
 6148TIP3    H239860   5.515   4.587   3.172 -1.0932  1.1952 -0.0996
 6149TIP3   OH239861   2.224   3.459   4.047  0.0698  0.0523 -0.0934
 6149TIP3    H139862   2.188   3.428   3.964 -1.4042  1.2661  0.0472
 6149TIP3    H239863   2.174   3.411   4.114  0.2407  0.1416  0.0994
 6150TIP3   OH239864   1.159   3.457   4.955 -0.2954  0.0106  0.2339
 6150TIP3    H139865   1.204   3.430   5.035 -0.0627 -1.5481 -0.3863
 6150TIP3    H239866   1.077   3.408   4.955 -0.0896 -0.3526 -0.6908
 6151TIP3   OH239867   1.154   3.094  13.804  0.6654  0.0017 -0.3137
 6151TIP3    H139868   1.118   3.014  13.764  0.7620 -0.2088  0.0157
 6151TIP3    H239869   1.245   3.071  13.824  0.4744 -0.0705  0.4999
 6152TIP3   OH239870   2.824   0.302   3.238 -0.2260 -0.2568  0.0848
 6152TIP3    H139871   2.887   0.236   3.209  0.5760 -0.2786  1.7305
 6152TIP3    H239872   2.804   0.277   3.328 -0.1290  1.5844  0.6507
 6153TIP3   OH239873   4.039   2.820   1.680  0.0149  0.7394 -0.3673
 6153TIP3    H139874   4.032   2.816   1.585 -1.3562  1.4712 -0.3118
 6153TIP3    H239875   3.962   2.868   1.708  0.2704  0.3169  1.1451
 6154TIP3   OH239876   4.091   5.768  16.701  0.8607 -0.0422  0.3335
 6154TIP3    H139877   4.170   5.810  16.736  0.8371  2.1150 -1.9464
 6154TIP3    H239878   4.068   5.820  16.625 -0.9912 -2.4938 -0.9194
 6155TIP3   OH239879   6.209   1.059   4.063  0.0910  0.6038  1.0304
 6155TIP3    H139880   6.173   0.971   4.049 -0.7393  1.0658  0.1257
 6155TIP3    H239881   6.298   1.044   4.096  0.0178 -0.5718  0.7371
 6156TIP3   OH239882   2.928   1.153   2.384 -0.0181 -0.6619  0.6514
 6156TIP3    H139883   2.908   1.234   2.336  0.0119 -0.3880  1.0916
 6156TIP3    H239884   2.974   1.183   2.462  1.3753 -1.2229  0.0775
 6157TIP3   OH239885   6.209   4.553   5.444  0.2591  0.5395  0.1154
 6157TIP3    H139886   6.265   4.477   5.429 -0.6131 -0.1559  0.2652
 6157TIP3    H239887   6.269   4.628   5.447  1.1490 -0.1612  0.1156
 6158TIP3   OH239888   1.711   1.298   1.997  0.2609 -0.4301 -0.0363
 6158TIP3    H139889   1.769   1.348   2.055 -0.9318 -0.3962  1.1750
 6158TIP3    H239890   1.757   1.296   1.913  1.2497  0.9802  0.4358
 6159TIP3   OH239891   0.029   3.488   0.867 -0.0651  0.6196 -0.1970
 6159TIP3    H139892   0.119   3.513   0.845 -0.2871 -0.9160 -3.2848
 6159TIP3    H239893  -0.017   3.487   0.783 -2.3164 -1.1821  0.9633
 6160TIP3   OH239894   4.852   5.758  12.003  0.5371  0.1378  0.1644
 6160TIP3    H139895   4.893   5.675  12.026  2.4126  0.7170 -0.8090
 6160TIP3    H239896   4.914   5.824  12.032 -0.2823  1.1366 -0.2863
 6161TIP3   OH239897   6.098   1.805  11.297 -0.2384 -0.1461  0.7830
 6161TIP3    H139898   6.047   1.886  11.302  1.1230  0.7858  0.2772
 6161TIP3    H239899   6.093   1.768  11.385  0.7197  1.5353  1.6007
 6162TIP3   OH239900   3.248   1.229  12.564  0.4304  0.5914  0.1979
 6162TIP3    H139901   3.180   1.164  12.549  0.1967  1.1794 -1.5564
 6162TIP3    H239902   3.330   1.180  12.561  0.1752  0.1484  0.4800
 6163TIP3   OH239903   1.798   3.794   4.847  0.3789  0.6291  0.4567
 6163TIP3    H139904   1.838   3.708   4.845 -0.0168  0.4492  0.0754
 6163TIP3    H239905   1.748   3.796   4.929 -1.0001 -0.1587 -0.3205
 6164TIP3   OH239906   5.957   4.987  11.385 -0.1328 -0.0603  0.1779
 6164TIP3    H139907   6.022   4.936  11.335 -1.5419 -3.0069  1.0808
 6164TIP3    H239908   5.981   4.972  11.476 -0.9859  0.3762  0.4793
 6165TIP3   OH239909   3.973   6.246   0.922 -0.3074 -0.1891  0.2031
 6165TIP3    H139910   3.879   6.247   0.938 -0.1053  0.8794  1.5138
 6165TIP3    H239911   4.005   6.171   0.971 -0.3686 -0.0174  0.5087
 6166TIP3   OH239912   1.409   1.773  16.783  0.1791 -0.0363 -0.1964
 6166TIP3    H139913   1.401   1.857  16.738 -1.1436  0.1584  0.3397
 6166TIP3    H239914   1.464   1.720  16.726 -0.4048  0.6165 -1.4230
 6167TIP3   OH239915   3.729   4.133  13.831 -0.7986 -0.3071  0.4847
 6167TIP3    H139916   3.739   4.226  13.810 -1.5838 -0.3544 -0.1174
 6167TIP3    H239917   3.731   4.131  13.927 -0.2931  0.2690  0.4979
 6168TIP3   OH239918   6.459   5.165   2.185 -0.0018 -0.2413 -0.2853
 6168TIP3    H139919   6.464   5.083   2.236  0.1966 -0.7792 -1.1592
 6168TIP3    H239920   6.408   5.142   2.108 -0.6891  0.6907 -0.1266
 6169TIP3   OH239921   2.992   4.722   3.436  0.3734  0.1203 -0.7427
 6169TIP3    H139922   2.977   4.717   3.342  0.6301  2.6903 -0.9961
 6169TIP3    H239923   2.960   4.809   3.461  0.0385 -0.6107  1.6134
 6170TIP3   OH239924   4.763   4.273   4.894 -0.2963  0.0225  0.2715
 6170TIP3    H139925   4.675   4.240   4.877  0.1308 -1.1540  0.2700
 6170TIP3    H239926   4.821   4.201   4.869  0.6921  0.9045 -0.0768
 6171TIP3   OH239927   2.740   6.249   0.787  0.1119 -0.1348  0.8081
 6171TIP3    H139928   2.785   6.168   0.809 -0.4439 -0.4349  0.8494
 6171TIP3    H239929   2.655   6.221   0.752  0.9389  0.2841 -1.7756
 6172TIP3   OH239930   1.697   4.330   6.075  0.3467 -0.3515 -0.6340
 6172TIP3    H139931   1.790   4.308   6.079 -0.1878 -2.8540  0.8603
 6172TIP3    H239932   1.676   4.360   6.164 -0.5733 -1.5906 -0.3956
 6173TIP3   OH239933   1.025   4.377  17.155  0.4238 -0.4519  0.3668
 6173TIP3    H139934   0.975   4.369  17.074  0.8947 -1.5424  0.1604
 6173TIP3    H239935   0.964   4.415  17.218 -0.3555 -0.8419 -0.1397
 6174TIP3   OH239936   4.029   6.266  16.932  0.2388 -0.1693  0.3858
 6174TIP3    H139937   3.935   6.263  16.916 -0.2669 -2.6884  2.9466
 6174TIP3    H239938   4.066   6.206  16.868  0.0495  0.2830 -0.1589
 6175TIP3   OH239939   0.416   1.197   0.408 -0.1249 -0.3504  0.0323
 6175TIP3    H139940   0.365   1.249   0.346  2.4980  2.1437 -0.3015
 6175TIP3    H239941   0.440   1.118   0.359 -2.6534 -1.0802 -0.1301
 6176TIP3   OH239942   6.132   4.006   0.514  0.1715  0.0346  0.4914
 6176TIP3    H139943   6.071   3.993   0.442 -1.7584 -0.5004  2.1280
 6176TIP3    H239944   6.177   3.922   0.523 -0.2975 -0.2138  0.5297
 6177TIP3   OH239945   0.621   1.161   1.230  0.2499 -0.0148 -0.4334
 6177TIP3    H139946   0.633   1.073   1.266  0.8605  0.1701 -0.1620
 6177TIP3    H239947   0.692   1.212   1.270  0.8338  0.2408 -1.7645
 6178TIP3   OH239948   6.425   6.305  11.375 -0.3235  0.3169  0.2995
 6178TIP3    H139949   6.381   6.374  11.326  0.7134  1.1019  0.4248
 6178TIP3    H239950   6.417   6.227  11.320 -0.2009  0.9013 -0.5694
 6179TIP3   OH239951   3.029   5.107  14.152  0.4074 -0.1402  0.4575
 6179TIP3    H139952   3.018   5.193  14.112 -1.2892 -0.3578  0.3615
 6179TIP3    H239953   2.948   5.093  14.202  0.1849 -2.0775 -0.3359
 6180TIP3   OH239954   0.222   4.171  16.230 -0.1416  0.0042 -0.0517
 6180TIP3    H139955   0.141   4.171  16.281 -1.2625  0.1769 -1.7618
 6180TIP3    H239956   0.203   4.114  16.156  0.7431  1.3212 -1.3284
 6181TIP3   OH239957   3.948   3.577   0.738  0.5025 -0.5659 -0.1847
 6181TIP3    H139958   4.044   3.572   0.729  0.8441  4.0107 -1.5857
 6181TIP3    H239959   3.934   3.629   0.817 -0.8657 -0.9861 -0.1228
 6182TIP3   OH239960   1.302   2.995  12.066  0.3826 -0.0623  0.0849
 6182TIP3    H139961   1.295   2.941  12.145 -2.3119 -0.5675 -0.3792
 6182TIP3    H239962   1.337   2.935  11.999  0.9352 -0.1568  0.4566
 6183TIP3   OH239963   1.318   5.242  12.747 -0.6508 -0.4421 -0.3500
 6183TIP3    H139964   1.260   5.204  12.812  0.1978 -0.8857  0.1640
 6183TIP3    H239965   1.401   5.195  12.757  0.1428  0.8892 -0.3342
 6184TIP3   OH239966   3.333   2.208  12.082 -0.2079  0.0988 -0.3761
 6184TIP3    H139967   3.320   2.157  12.162  0.2116 -0.0041 -0.3731
 6184TIP3    H239968   3.259   2.184  12.026 -0.2983 -0.1137 -0.1675
 6185TIP3   OH239969   1.910   4.881   3.052 -0.1167 -0.0603  0.8174
 6185TIP3    H139970   1.912   4.965   3.098  1.9481 -0.5804  1.8094
 6185TIP3    H239971   1.909   4.815   3.122 -0.4278 -0.8743  0.0703
 6186TIP3   OH239972   3.220   1.439  13.388  0.3851  0.3044  0.3557
 6186TIP3    H139973   3.167   1.499  13.337 -0.4169 -1.9584 -1.6441
 6186TIP3    H239974   3.157   1.387  13.438  0.8638 -0.6015  0.0419
 6187TIP3   OH239975   2.919   6.510   5.785 -0.8661  0.7055 -0.9089
 6187TIP3    H139976   2.896   6.552   5.867 -1.1021  1.0147 -1.1309
 6187TIP3    H239977   3.001   6.464   5.803 -2.3339 -1.5789  0.2988
 6188TIP3   OH239978   6.425   0.103  10.826  0.4713 -0.3726 -0.2282
 6188TIP3    H139979   6.409   0.010  10.807  0.5154 -0.4395  0.0640
 6188TIP3    H239980   6.363   0.125  10.894 -1.0971  0.4069 -1.8354
 6189TIP3   OH239981   3.830   1.458  11.898 -0.1524 -0.1115 -0.1738
 6189TIP3    H139982   3.777   1.380  11.885  1.1650 -1.6734  2.8355
 6189TIP3    H239983   3.920   1.426  11.900  0.6425  1.8609 -0.9985
 6190TIP3   OH239984   0.243   0.070   4.461  0.2693  0.1727  0.2486
 6190TIP3    H139985   0.187   0.001   4.495  0.8205 -0.2083  0.3883
 6190TIP3    H239986   0.222   0.074   4.368 -1.0922  1.0780  0.5657
 6191TIP3   OH239987   1.295   0.225   6.398  0.6984  0.0378 -0.0551
 6191TIP3    H139988   1.316   0.313   6.366  1.6802  0.1926  0.9621
 6191TIP3    H239989   1.231   0.240   6.467 -0.1572 -0.1747 -0.7744
 6192TIP3   OH239990   3.585   6.383  14.211  0.4210  0.2942 -0.4138
 6192TIP3    H139991   3.514   6.442  14.237  0.9177  0.5125  0.5082
 6192TIP3    H239992   3.585   6.314  14.278  0.1504 -0.5107 -1.2221
 6193TIP3   OH239993   5.883   0.519   3.017  0.6124  0.1273  0.1771
 6193TIP3    H139994   5.918   0.561   2.939  0.3056 -0.1554 -0.1131
 6193TIP3    H239995   5.954   0.465   3.050  0.6673  0.0707 -0.0362
 6194TIP3   OH239996   6.258   5.694   4.585  0.1618  0.1528  0.0488
 6194TIP3    H139997   6.291   5.620   4.534  0.1755 -0.0165  0.2992
 6194TIP3    H239998   6.178   5.660   4.627 -0.0593  0.4087 -0.1646
 6195TIP3   OH239999   6.206   3.181   1.712 -0.1543 -0.0769 -0.5832
 6195TIP3    H140000   6.220   3.262   1.761 -1.1440 -0.5992  0.6076
 6195TIP3    H240001   6.111   3.176   1.700 -0.3358 -2.0006  1.0808
 6196TIP3   OH240002   3.101   1.966   1.913 -0.4535 -0.2765 -0.6146
 6196TIP3    H140003   3.136   1.939   1.828  0.5534 -1.3558  0.1108
 6196TIP3    H240004   3.126   2.058   1.921  0.6842 -0.5490 -0.8880
 6197TIP3   OH240005   6.337   5.606   4.001  0.1023  0.0242  0.1333
 6197TIP3    H140006   6.425   5.635   3.976 -0.5375  1.8775 -0.1505
 6197TIP3    H240007   6.324   5.524   3.953  1.0235  0.6108 -1.1795
 6198TIP3   OH240008   4.617   0.666   4.224 -0.7179  0.1488  0.5047
 6198TIP3    H140009   4.649   0.714   4.147  0.0941  0.9541  1.3094
 6198TIP3    H240010   4.531   0.704   4.242  0.1802  1.8750  1.5279
 6199TIP3   OH240011   1.954   5.923  14.149  0.4275  0.1095 -0.0536
 6199TIP3    H140012   1.955   5.843  14.097  1.2041  1.0202 -1.5367
 6199TIP3    H240013   1.866   5.959  14.137  0.5333  0.2012 -0.5742
 6200TIP3   OH240014   0.403   0.682   4.612  0.1734 -0.1395 -0.4727
 6200TIP3    H140015   0.309   0.692   4.626  0.0419 -0.5137 -1.0495
 6200TIP3    H240016   0.443   0.753   4.663 -0.5214  1.2627 -1.7945
 6201TIP3   OH240017   5.089   5.884   1.120 -0.5592  0.1743 -0.3711
 6201TIP3    H140018   5.128   5.954   1.173 -1.0347  0.3521 -0.2572
 6201TIP3    H240019   5.094   5.807   1.176  1.6108 -0.3158 -1.1531
 6202TIP3   OH240020   1.970   6.400  12.532  0.5569 -0.5044 -0.3625
 6202TIP3    H140021   1.990   6.313  12.567  0.7558 -0.8457 -1.2842
 6202TIP3    H240022   2.035   6.458  12.574  0.2432 -0.7404  0.4668
 6203TIP3   OH240023   4.240   6.468  11.896  0.6524  0.7425  0.6090
 6203TIP3    H140024   4.176   6.527  11.858  0.5822 -0.5211 -1.3923
 6203TIP3    H240025   4.198   6.382  11.893  2.4427 -0.1390 -0.8679
 6204TIP3   OH240026   0.318   2.236  11.750 -0.0258 -0.0242 -0.1884
 6204TIP3    H140027   0.386   2.301  11.764  1.9132 -2.0819  0.6162
 6204TIP3    H240028   0.239   2.274  11.789  1.2538  1.4157  1.1156
 6205TIP3   OH240029   4.022   2.425   0.265  0.1838  0.3014  0.0545
 6205TIP3    H140030   4.034   2.417   0.170  0.4030  1.8101 -0.0548
 6205TIP3    H240031   3.939   2.472   0.275 -0.4713 -0.9165  0.6591
 6206TIP3   OH240032   1.055   5.429   4.029  0.0243  0.3892 -0.1449
 6206TIP3    H140033   1.111   5.494   3.986  1.1850 -0.3855  0.1306
 6206TIP3    H240034   0.968   5.443   3.992  0.4333  1.5115 -0.7254
 6207TIP3   OH240035   3.705   2.215   2.788 -0.2365  0.0194 -0.1856
 6207TIP3    H140036   3.625   2.238   2.742 -1.2028  1.3769  2.0280
 6207TIP3    H240037   3.734   2.297   2.829  2.9783 -0.1230 -1.8148
 6208TIP3   OH240038   3.671   3.022   0.108 -0.6287  0.1366  0.4826
 6208TIP3    H140039   3.740   2.984   0.162 -0.8401 -0.9580  0.0109
 6208TIP3    H240040   3.717   3.063   0.035 -0.4267  0.4428  0.7763
 6209TIP3   OH240041   0.883   5.504  11.888 -0.4114  0.3152  0.1336
 6209TIP3    H140042   0.832   5.470  11.962  1.4398 -0.2449  1.2564
 6209TIP3    H240043   0.911   5.591  11.917  1.1182 -0.2818  0.5762
 6210TIP3   OH240044   5.581   4.107   4.149  0.2146  0.5038  0.4030
 6210TIP3    H140045   5.505   4.084   4.096  0.7465  1.2243 -0.7040
 6210TIP3    H240046   5.595   4.200   4.132  0.8497  0.5724  1.2390
 6211TIP3   OH240047   3.297   2.024   0.032  0.4227 -0.3743 -0.0578
 6211TIP3    H140048   3.308   1.961   0.103 -0.1819  1.4318  1.7343
 6211TIP3    H240049   3.377   2.016  -0.020  1.1277 -1.3689  1.1407
 6212TIP3   OH240050   2.951   0.455   2.034  0.5249  0.5101  0.5494
 6212TIP3    H140051   2.980   0.476   1.945 -0.7376 -0.0189 -0.0164
 6212TIP3    H240052   2.969   0.362   2.044  0.7072  0.5783  0.8605
 6213TIP3   OH240053   1.148   1.348   5.550  0.0120  0.0206 -0.0529
 6213TIP3    H140054   1.130   1.344   5.456 -2.0893 -2.0407  0.3258
 6213TIP3    H240055   1.065   1.373   5.590  0.7308  0.3812  1.2879
 6214TIP3   OH240056   6.150   0.817  11.420 -0.4857 -0.1752 -0.3332
 6214TIP3    H140057   6.233   0.816  11.466 -0.2790  1.3158 -0.6084
 6214TIP3    H240058   6.167   0.866  11.339 -1.7571  0.7522 -0.0834
 6215TIP3   OH240059   5.682   1.215  14.083 -0.0638  0.1371  0.4478
 6215TIP3    H140060   5.649   1.163  14.010 -2.6024 -1.0265  2.2990
 6215TIP3    H240061   5.737   1.282  14.041  1.2349 -2.3720 -2.2292
 6216TIP3   OH240062   5.927   4.730  13.240  0.4817  0.0451 -0.5392
 6216TIP3    H140063   5.904   4.793  13.308 -0.5409 -0.8216 -0.0558
 6216TIP3    H240064   5.905   4.645  13.278  1.1563 -0.5581 -1.4549
 6217TIP3   OH240065   2.973   4.760  12.687 -0.4645 -0.4411 -0.0763
 6217TIP3    H140066   2.923   4.682  12.661 -0.7193 -0.2691 -0.0975
 6217TIP3    H240067   3.049   4.760  12.629 -0.5597 -0.5723 -0.2001
 6218TIP3   OH240068   0.840   3.016   5.232  0.1447  0.6244  0.2273
 6218TIP3    H140069   0.855   2.936   5.282  0.3833 -0.0159 -0.8362
 6218TIP3    H240070   0.762   3.055   5.272  0.2603  0.0836  1.0073
 6219TIP3   OH240071   5.079   5.342   2.061 -0.5010  0.4757  0.2531
 6219TIP3    H140072   5.024   5.355   2.138 -2.8938  0.1934 -1.3172
 6219TIP3    H240073   5.144   5.412   2.066 -2.7815  2.7098  0.7174
 6220TIP3   OH240074   0.441   4.823  11.806  0.3812  0.6767 -0.2302
 6220TIP3    H140075   0.523   4.870  11.822  0.7711  0.0496 -0.3522
 6220TIP3    H240076   0.454   4.781  11.721 -0.6905  1.8782 -1.0322
 6221TIP3   OH240077   5.416   0.188  14.066  0.1167  0.0265  0.1388
 6221TIP3    H140078   5.492   0.209  14.119  0.4250  0.7137 -0.5547
 6221TIP3    H240079   5.452   0.161  13.981 -0.3917 -0.1638 -0.0223
 6222TIP3   OH240080   2.625   6.417   5.141 -0.4843 -0.1987 -0.3481
 6222TIP3    H140081   2.640   6.455   5.054 -1.7286 -0.0173 -0.5030
 6222TIP3    H240082   2.712   6.399   5.175  0.0437  0.4882 -1.3038
 6223TIP3   OH240083   1.211   2.833   1.800  0.1553 -0.5577 -0.3860
 6223TIP3    H140084   1.148   2.875   1.858  2.1571  0.4946  1.1676
 6223TIP3    H240085   1.159   2.776   1.744 -2.0081 -0.6824  1.6317
 6224TIP3   OH240086   5.021   2.277   3.189 -0.2843 -0.0732 -0.6654
 6224TIP3    H140087   5.008   2.183   3.202  0.0902 -0.0363  0.0343
 6224TIP3    H240088   4.935   2.316   3.201 -0.3258 -0.2649 -0.3402
 6225TIP3   OH240089   4.493   2.849  11.345 -0.6858 -0.1982  0.7408
 6225TIP3    H140090   4.570   2.800  11.373  0.1354  1.2789  1.1653
 6225TIP3    H240091   4.527   2.933  11.315 -1.8579 -0.5537 -1.8537
 6226TIP3   OH240092   2.824   5.860   0.138 -0.2969  0.4543  0.0288
 6226TIP3    H140093   2.866   5.817   0.063  0.2449 -0.4023  0.7926
 6226TIP3    H240094   2.864   5.817   0.214 -0.0817  2.0147  0.8255
 6227TIP3   OH240095   2.962   0.575  16.812 -0.2026 -0.3932  0.5027
 6227TIP3    H140096   2.899   0.576  16.740  0.7450  0.4007 -0.3290
 6227TIP3    H240097   2.923   0.632  16.878  0.9571  2.6026 -1.2133
 6228TIP3   OH240098   1.659   6.493  13.789 -0.0555 -0.2276 -0.2289
 6228TIP3    H140099   1.750   6.520  13.781  0.1665 -0.0379  2.2466
 6228TIP3    H240100   1.610   6.575  13.788  0.0664 -0.1273  1.1945
 6229TIP3   OH240101   2.573   0.223   4.455  0.2377 -0.1342  0.3140
 6229TIP3    H140102   2.611   0.270   4.381  3.1537  0.9460  2.3133
 6229TIP3    H240103   2.645   0.215   4.518 -1.1757 -3.8798  1.7592
 6230TIP3   OH240104   2.338   5.379   5.619 -0.3463  0.0355  0.3430
 6230TIP3    H140105   2.411   5.396   5.679 -1.6546 -1.1842  2.4117
 6230TIP3    H240106   2.377   5.334   5.545  1.3290  1.5402  0.2297
 6231TIP3   OH240107   3.065   5.134  16.302 -0.2526  0.3112  0.5802
 6231TIP3    H140108   3.090   5.225  16.291 -2.2937  0.7085 -1.5254
 6231TIP3    H240109   3.043   5.126  16.395 -2.2103  2.6075  0.4019
 6232TIP3   OH240110   0.261   0.418   5.966 -0.2751 -0.0194 -0.2165
 6232TIP3    H140111   0.292   0.382   6.049 -1.7639  1.2213  0.9435
 6232TIP3    H240112   0.199   0.354   5.934  1.7667 -1.4898 -1.4785
 6233TIP3   OH240113   2.143   2.550   1.672 -0.1300 -0.2267  0.0079
 6233TIP3    H140114   2.146   2.645   1.662 -1.2778 -0.0206  1.3092
 6233TIP3    H240115   2.126   2.517   1.583  2.0981  0.6142 -0.8076
 6234TIP3   OH240116   1.062   3.594  11.348 -0.6482 -0.1776 -0.3325
 6234TIP3    H140117   0.981   3.578  11.300 -0.9760 -0.1015  0.2002
 6234TIP3    H240118   1.036   3.602  11.439  0.1584 -2.0205  0.1161
 6235TIP3   OH240119   3.926   5.117  17.134 -0.3001  0.4371  0.0407
 6235TIP3    H140120   3.940   5.138  17.042  0.1929 -0.3176 -0.0557
 6235TIP3    H240121   3.870   5.039  17.133 -0.3090  0.4366  0.3850
 6236TIP3   OH240122   3.553   1.545  15.696 -0.5323 -0.1738  0.2220
 6236TIP3    H140123   3.555   1.632  15.736  0.3884 -0.0988  0.0209
 6236TIP3    H240124   3.644   1.526  15.673 -0.4808 -1.8148  1.5825
 6237TIP3   OH240125   3.859   2.396  16.314 -0.3671 -0.0532  0.0712
 6237TIP3    H140126   3.784   2.344  16.285 -0.9695 -0.3135  1.9745
 6237TIP3    H240127   3.926   2.331  16.336  0.1151  0.1443 -0.7654
 6238TIP3   OH240128   1.079   4.634   4.583  0.8557  0.2392  0.2387
 6238TIP3    H140129   1.009   4.694   4.608  1.9243  2.2871 -1.3328
 6238TIP3    H240130   1.146   4.647   4.650  1.0440  0.7665 -0.0431
 6239TIP3   OH240131   6.489   1.677  12.684  0.0292 -0.5342 -0.2383
 6239TIP3    H140132   6.474   1.697  12.776  0.6573 -2.0476  0.2240
 6239TIP3    H240133   6.584   1.666  12.677  0.3941  2.4637 -1.7210
 6240TIP3   OH240134   5.846   1.918   4.475 -0.0310  0.5409  0.4487
 6240TIP3    H140135   5.790   1.989   4.505 -1.7638  0.4153 -2.1086
 6240TIP3    H240136   5.828   1.912   4.381  1.5321 -1.9942  0.2124
 6241TIP3   OH240137   2.035   6.665   2.726 -0.3446  0.8986 -0.1967
 6241TIP3    H140138   2.040   6.752   2.687  1.5165  0.7311 -0.4242
 6241TIP3    H240139   2.083   6.609   2.666 -0.3363 -0.0312  0.6476
 6242TIP3   OH240140   3.107   5.730  13.715 -0.1502  0.4173 -0.6973
 6242TIP3    H140141   3.125   5.678  13.794  0.4947 -2.1252 -2.3908
 6242TIP3    H240142   3.054   5.672  13.660  0.7297  1.4962 -2.7802
 6243TIP3   OH240143   5.984   6.073  12.863 -0.1535  0.2458  0.8691
 6243TIP3    H140144   6.067   6.045  12.826 -1.6468 -0.3345 -2.4060
 6243TIP3    H240145   5.991   6.169  12.867  0.0720  0.3433 -1.1194
 6244TIP3   OH240146   4.863   0.276  14.845 -0.1654 -0.3989 -0.7594
 6244TIP3    H140147   4.833   0.201  14.896  1.2997  0.2565  1.1808
 6244TIP3    H240148   4.817   0.268  14.762 -1.8015 -2.1614  0.2260
 6245TIP3   OH240149   2.044   0.668   4.484 -0.4190 -0.2803 -0.0892
 6245TIP3    H140150   2.009   0.683   4.572  0.2238 -1.6082  0.4266
 6245TIP3    H240151   1.986   0.716   4.426 -1.2865  0.0294  1.0064
 6246TIP3   OH240152   0.668   1.589  13.397 -0.7473 -0.1938 -1.1518
 6246TIP3    H140153   0.676   1.499  13.429  0.3646  0.7918  1.6803
 6246TIP3    H240154   0.611   1.632  13.461  1.5900  1.9305 -0.3740
 6247TIP3   OH240155   5.702   4.073   1.102  0.4844  0.3354 -0.3299
 6247TIP3    H140156   5.678   4.093   1.193  2.9641  2.2671  0.0054
 6247TIP3    H240157   5.774   4.011   1.109  1.5641  1.4915 -0.8897
 6248TIP3   OH240158   2.191   3.817   5.126  0.4271  0.5105 -0.0140
 6248TIP3    H140159   2.185   3.820   5.222  1.6664 -2.0857  0.2212
 6248TIP3    H240160   2.258   3.752   5.108 -2.4229 -2.0622 -2.6305
 6249TIP3   OH240161   5.598   2.175  12.956 -0.6707  0.2149 -0.1603
 6249TIP3    H140162   5.630   2.133  12.876  2.1581 -0.6827  1.2974
 6249TIP3    H240163   5.524   2.120  12.983 -1.0244 -0.0613 -1.6214
 6250TIP3   OH240164   3.688   3.368   3.274  0.2438  0.5534  0.5736
 6250TIP3    H140165   3.636   3.429   3.222  0.4475 -0.8584 -1.3825
 6250TIP3    H240166   3.623   3.318   3.324 -0.4043 -1.1754 -1.8252
 6251TIP3   OH240167   5.957   1.690  16.143  0.5214  0.4322 -0.1079
 6251TIP3    H140168   6.039   1.697  16.094 -0.5924  2.0041 -1.9247
 6251TIP3    H240169   5.904   1.629  16.093 -0.0127  0.7149  0.1010
 6252TIP3   OH240170   1.665   0.077   2.252  0.2777  0.8720  0.5834
 6252TIP3    H140171   1.571   0.078   2.229  0.5987  1.1404 -0.8493
 6252TIP3    H240172   1.707   0.118   2.177  1.4684  1.6510  1.6533
 6253TIP3   OH240173   1.916   6.723   4.453  0.1495  0.3414 -0.2829
 6253TIP3    H140174   1.942   6.781   4.524 -0.3721  2.0644 -1.4314
 6253TIP3    H240175   1.929   6.775   4.374  0.3444 -1.3825 -1.4340
 6254TIP3   OH240176   4.682   2.831   5.199 -0.2422 -0.4185  0.1772
 6254TIP3    H140177   4.647   2.904   5.250 -1.0268 -0.4278 -0.3360
 6254TIP3    H240178   4.767   2.812   5.240  0.1368  1.0039  0.0900
 6255TIP3   OH240179   1.716   3.730   1.188  0.0667  0.8151 -0.3319
 6255TIP3    H140180   1.730   3.772   1.273  2.4147 -1.5331  0.5938
 6255TIP3    H240181   1.778   3.774   1.130 -0.6429  1.5726 -0.5291
 6256TIP3   OH240182   5.099   6.420  13.758  0.3958  0.0793  0.2400
 6256TIP3    H140183   5.093   6.345  13.818  0.7166 -1.2635 -1.3620
 6256TIP3    H240184   5.173   6.400  13.701 -0.2445  1.0563 -0.9746
 6257TIP3   OH240185   1.441   2.499   0.396 -0.5127  0.4514 -0.2778
 6257TIP3    H140186   1.346   2.486   0.400 -0.2502 -1.8316  0.0960
 6257TIP3    H240187   1.470   2.491   0.488  0.0194  1.3197 -0.3646
 6258TIP3   OH240188   0.541   4.418   0.872 -0.5610 -0.1847  1.0779
 6258TIP3    H140189   0.507   4.400   0.785  1.7209  0.8608 -0.1124
 6258TIP3    H240190   0.536   4.334   0.918 -0.7016 -1.0533 -0.4728
 6259TIP3   OH240191   3.548   4.361  12.420 -0.5910 -0.3592 -0.1339
 6259TIP3    H140192   3.530   4.455  12.413  0.6046  0.0535  1.5560
 6259TIP3    H240193   3.621   4.345  12.361 -1.7627 -0.5728 -1.5756
 6260TIP3   OH240194   1.563   2.465  16.641 -0.2722  0.0803 -0.0138
 6260TIP3    H140195   1.570   2.400  16.710 -1.0475 -0.2413 -0.2361
 6260TIP3    H240196   1.602   2.544  16.679  2.3141 -0.9291 -0.3328
 6261TIP3   OH240197   2.326   4.512  11.643  0.6945 -0.1761  0.0381
 6261TIP3    H140198   2.415   4.544  11.628  1.2590 -1.0914  1.2419
 6261TIP3    H240199   2.287   4.507  11.556  2.6130 -1.9955 -0.7928
 6262TIP3   OH240200   3.447   1.459  16.693 -0.4140 -0.1228 -0.2592
 6262TIP3    H140201   3.471   1.401  16.764 -1.1412  0.0745  0.1600
 6262TIP3    H240202   3.376   1.513  16.729  0.1058  0.8846 -0.6970
 6263TIP3   OH240203   4.707   5.807   5.043  0.3318 -0.2934  0.5326
 6263TIP3    H140204   4.672   5.878   5.097  2.4199 -0.7964  2.7608
 6263TIP3    H240205   4.632   5.751   5.025 -0.5748  0.1400  2.6114
 6264TIP3   OH240206   0.109   2.270  14.034 -0.2886  0.0930  0.6080
 6264TIP3    H140207   0.070   2.195  13.988 -0.6455 -0.7355  2.1982
 6264TIP3    H240208   0.137   2.328  13.964 -0.4848 -1.2805 -0.6716
 6265TIP3   OH240209   5.995   5.842  13.110  0.2437 -0.1934 -0.1273
 6265TIP3    H140210   6.089   5.828  13.099  0.6366  1.8498  0.2474
 6265TIP3    H240211   5.955   5.763  13.073  2.0825 -1.0472 -0.4335
 6266TIP3   OH240212   0.839   0.020   1.124  0.5171  0.4463 -0.4648
 6266TIP3    H140213   0.922   0.051   1.087  0.1893  1.5044 -0.3547
 6266TIP3    H240214   0.777   0.028   1.052  0.5731 -0.6781 -0.6489
 6267TIP3   OH240215   0.919   3.942  12.100  0.9267  0.0601 -0.3923
 6267TIP3    H140216   0.936   3.945  12.194 -2.3440 -1.1474  0.3777
 6267TIP3    H240217   0.921   4.033  12.072  1.1854  0.5099  0.9970
 6268TIP3   OH240218   6.409   1.434  14.981 -0.6405 -0.3544  0.2055
 6268TIP3    H140219   6.478   1.377  14.948  0.0070  0.5387 -0.0343
 6268TIP3    H240220   6.375   1.389  15.058 -0.4092 -1.2382 -0.2012
 6269TIP3   OH240221   4.145   5.476  14.595  0.6549  0.3252  0.2154
 6269TIP3    H140222   4.139   5.424  14.515  0.7494  0.7646 -0.0787
 6269TIP3    H240223   4.094   5.426  14.659  2.3619 -1.1463  0.5022
 6270TIP3   OH240224   2.340   0.810   1.857 -0.1627  0.2245 -0.1010
 6270TIP3    H140225   2.360   0.869   1.784 -0.0516  0.9320  0.4930
 6270TIP3    H240226   2.410   0.744   1.854  0.0602  0.4723 -0.3964
 6271TIP3   OH240227   0.767   5.378  14.495  0.0927 -0.1542  0.1885
 6271TIP3    H140228   0.748   5.469  14.519 -0.3405  0.3998 -1.9855
 6271TIP3    H240229   0.840   5.385  14.433  1.0111 -1.4516  1.0622
 6272TIP3   OH240230   5.061   1.585   1.607 -0.0517  0.3093 -0.0096
 6272TIP3    H140231   5.082   1.536   1.527 -0.2350  1.3711 -0.7176
 6272TIP3    H240232   5.146   1.607   1.645  0.0938  1.5028 -0.9725
 6273TIP3   OH240233   5.468   1.236   4.539 -0.0401  0.3989  0.0385
 6273TIP3    H140234   5.425   1.189   4.468 -0.5831 -1.1162  1.2860
 6273TIP3    H240235   5.557   1.252   4.507  0.0529 -1.1896 -0.6045
 6274TIP3   OH240236   5.599   2.771  15.820 -0.7049 -0.2321  0.3555
 6274TIP3    H140237   5.591   2.865  15.840  0.2307  0.0265 -0.4104
 6274TIP3    H240238   5.524   2.752  15.763  1.0504  0.9421 -2.5293
 6275TIP3   OH240239   0.842   6.203   2.117  0.2724 -0.3768 -0.3188
 6275TIP3    H140240   0.877   6.171   2.034 -0.8488 -0.0959 -0.9202
 6275TIP3    H240241   0.868   6.137   2.181  0.7242 -0.8506 -0.9840
 6276TIP3   OH240242   2.132   2.095   5.290 -0.1325 -0.0479 -0.3170
 6276TIP3    H140243   2.107   2.061   5.204 -0.9911 -1.3422  0.3985
 6276TIP3    H240244   2.049   2.120   5.330  0.3231  1.1537 -0.1031
 6277TIP3   OH240245   2.581   1.883   2.806 -0.3526 -0.1690 -0.3629
 6277TIP3    H140246   2.558   1.849   2.892  0.4122 -0.1861 -0.1527
 6277TIP3    H240247   2.658   1.938   2.822 -0.8456  0.6858 -0.8806
 6278TIP3   OH240248   0.902   4.481   0.228 -0.0638 -0.3968  0.5742
 6278TIP3    H140249   0.926   4.441   0.312  0.5731 -1.2787 -0.0069
 6278TIP3    H240250   0.807   4.496   0.235 -0.1724 -1.2647  1.1366
 6279TIP3   OH240251   1.407   6.390   5.602 -0.2574 -0.0859 -0.7574
 6279TIP3    H140252   1.479   6.401   5.540  1.1965 -0.2028  0.8246
 6279TIP3    H240253   1.367   6.307   5.578  1.1441 -0.7984 -0.7233
 6280TIP3   OH240254   6.549   3.404  15.251 -0.1885  0.5250  0.2024
 6280TIP3    H140255   6.505   3.403  15.336 -1.0067 -0.3910 -0.2145
 6280TIP3    H240256   6.500   3.468  15.199  0.1153  0.8512  0.3141
 6281TIP3   OH240257   3.377   4.643  13.532 -0.1072 -0.6558 -0.5357
 6281TIP3    H140258   3.341   4.621  13.446  1.1568  0.4216 -1.3731
 6281TIP3    H240259   3.303   4.634  13.592 -1.1886 -0.7341 -1.8355
 6282TIP3   OH240260   1.904   4.856   6.382 -1.0435 -0.8777  0.0083
 6282TIP3    H140261   1.899   4.793   6.310  0.1695 -1.0799  0.0698
 6282TIP3    H240262   1.857   4.815   6.454 -0.3291 -1.6911  0.0258
 6283TIP3   OH240263   2.265   3.545  14.079 -0.2898 -0.2271  0.1172
 6283TIP3    H140264   2.334   3.513  14.137  0.0820  0.7698  0.2390
 6283TIP3    H240265   2.286   3.506  13.994  0.2963 -0.1038  0.2019
 6284TIP3   OH240266   2.027   3.450  10.572  0.5346  0.4536  0.0118
 6284TIP3    H140267   2.072   3.394  10.635 -1.9737 -0.2181  1.3239
 6284TIP3    H240268   1.998   3.525  10.624  0.7602  1.2365 -0.9648
 6285TIP3   OH240269   0.870   5.601  16.989 -0.6154 -0.2377 -0.7606
 6285TIP3    H140270   0.799   5.633  17.045  0.0294 -0.2335  0.0677
 6285TIP3    H240271   0.950   5.638  17.028 -0.2550  0.8844 -2.4568
 6286TIP3   OH240272   3.945   1.023  13.704  0.1543  0.4548 -0.2077
 6286TIP3    H140273   3.982   1.035  13.617 -0.3736  0.5864 -0.4233
 6286TIP3    H240274   3.929   1.112  13.736  0.6489  0.4145  0.1594
 6287TIP3   OH240275   4.396   0.551  11.020 -0.3870  0.2118 -0.8514
 6287TIP3    H140276   4.370   0.531  11.109  0.1423  1.6079 -0.3668
 6287TIP3    H240277   4.452   0.477  10.995 -2.4733 -1.4319 -0.9486
 6288TIP3   OH240278   6.660   3.942   1.538 -0.2717  0.9136 -0.7368
 6288TIP3    H140279   6.719   3.957   1.464 -1.2555  0.7060 -1.5898
 6288TIP3    H240280   6.697   3.865   1.582  0.3292  1.0480 -0.9854
 6289TIP3   OH240281   5.368   6.173   2.522 -0.4177  0.0543  0.4037
 6289TIP3    H140282   5.346   6.213   2.438  0.4253 -1.6433 -0.6902
 6289TIP3    H240283   5.287   6.178   2.574 -1.0756  0.7523 -0.6653
 6290TIP3   OH240284   3.438   3.907  14.535 -1.0153  0.0237  0.5261
 6290TIP3    H140285   3.447   3.876  14.625  0.3805  0.1896  0.4620
 6290TIP3    H240286   3.397   3.994  14.543  1.4907  1.2193  1.2292
 6291TIP3   OH240287   4.325   5.605  13.645  0.1317 -0.5230 -0.0371
 6291TIP3    H140288   4.323   5.514  13.674 -1.4170 -0.8662 -1.0875
 6291TIP3    H240289   4.374   5.603  13.563 -0.7656 -0.6086 -0.5879
 6292TIP3   OH240290   0.406   3.940   0.505  0.2617 -0.2024  0.1604
 6292TIP3    H140291   0.447   3.855   0.518 -0.4248 -0.5537  0.0757
 6292TIP3    H240292   0.403   3.979   0.592 -0.6308 -0.8358  0.4258
 6293TIP3   OH240293   6.542   6.080  16.481  1.2942  0.1603  0.0478
 6293TIP3    H140294   6.621   6.029  16.468  0.4602 -1.5130  1.0901
 6293TIP3    H240295   6.476   6.037  16.428  0.9306  1.1997 -0.3804
 6294TIP3   OH240296   3.391   3.478   1.571  0.3277  0.5304 -0.1338
 6294TIP3    H140297   3.391   3.420   1.495 -1.2487 -0.3622  0.4970
 6294TIP3    H240298   3.312   3.530   1.561  0.5720  1.0244  0.4598
 6295TIP3   OH240299   1.001   3.225   3.386  0.2261 -0.6772 -0.8111
 6295TIP3    H140300   1.020   3.317   3.403  1.2470 -0.8971 -0.7034
 6295TIP3    H240301   1.076   3.177   3.421 -0.5925 -1.6146 -0.2479
 6296TIP3   OH240302   6.646   3.882   4.285 -0.9252 -0.1507 -0.1712
 6296TIP3    H140303   6.654   3.966   4.240 -2.4683 -0.6997 -1.5502
 6296TIP3    H240304   6.694   3.821   4.229  0.9719 -0.0940  1.2857
 6297TIP3   OH240305   3.778   1.899  13.291 -0.0838  0.1444  0.5147
 6297TIP3    H140306   3.819   1.892  13.205 -0.6199 -0.0122  0.2630
 6297TIP3    H240307   3.756   1.992  13.299  0.1617  0.1964  0.5713
 6298TIP3   OH240308   3.289   0.571   5.152  0.0056 -0.6256  0.3491
 6298TIP3    H140309   3.379   0.605   5.155 -0.0846 -0.3269 -0.2763
 6298TIP3    H240310   3.290   0.496   5.212  1.3057 -2.1755 -1.5054
 6299TIP3   OH240311   0.429   3.526   1.051 -0.2670  0.1240  0.5645
 6299TIP3    H140312   0.483   3.447   1.051  1.5433  1.2819  1.2674
 6299TIP3    H240313   0.453   3.571   0.971 -2.0537 -0.4684 -0.3554
 6300TIP3   OH240314   6.782   3.689  12.724  0.7163  0.2354  0.3414
 6300TIP3    H140315   6.830   3.771  12.728 -2.4566  2.2941 -0.1497
 6300TIP3    H240316   6.787   3.663  12.632  1.8934 -0.2907  0.5347
 6301TIP3   OH240317   3.589   6.057   1.321  0.8088 -0.2060 -0.1004
 6301TIP3    H140318   3.514   6.100   1.279  0.2515  1.7476  2.5407
 6301TIP3    H240319   3.665   6.106   1.289  0.3702  1.4563  1.2152
 6302TIP3   OH240320   2.296   6.378   5.806  0.4521  0.2990  0.1205
 6302TIP3    H140321   2.277   6.470   5.787 -2.0995 -0.2660 -0.5414
 6302TIP3    H240322   2.373   6.357   5.753  1.3706  2.1427  0.6639
 6303TIP3   OH240323   6.108   5.759   2.000  0.2939  0.0244  0.0317
 6303TIP3    H140324   6.146   5.673   1.986  1.3579  0.3515  0.7643
 6303TIP3    H240325   6.026   5.742   2.045  0.0707 -0.6434 -0.6100
 6304TIP3   OH240326   6.466   0.948   6.689 -0.2084  0.1971 -0.2733
 6304TIP3    H140327   6.453   0.893   6.767  1.5731 -1.7731 -1.2504
 6304TIP3    H240328   6.531   1.012   6.715 -0.7232  0.5074  0.2720
 6305TIP3   OH240329   4.701   2.483  14.052 -0.0584  0.0499 -1.0678
 6305TIP3    H140330   4.621   2.500  14.102  0.5383  1.4865 -0.5408
 6305TIP3    H240331   4.768   2.532  14.098  0.7096  0.6085 -2.7223
 6306TIP3   OH240332   3.273   3.035  14.396  0.3488  0.7116 -0.8620
 6306TIP3    H140333   3.205   3.076  14.450 -0.0044  0.5393 -1.1688
 6306TIP3    H240334   3.236   3.033  14.308  0.7805  0.6718 -1.0460
 6307TIP3   OH240335   4.837   6.479   1.087 -0.6018  0.0242 -0.3292
 6307TIP3    H140336   4.756   6.438   1.059 -0.3737 -1.1172  0.6235
 6307TIP3    H240337   4.895   6.406   1.108  0.6862  0.8145 -0.9844
 6308TIP3   OH240338   6.542   5.532  16.558  0.0717  0.4328  0.3666
 6308TIP3    H140339   6.606   5.600  16.536  1.2165 -0.4813  0.7623
 6308TIP3    H240340   6.552   5.467  16.488 -0.8159  0.5331  0.1440
 6309TIP3   OH240341   4.118   5.385  13.489 -0.3137 -0.4523 -0.3999
 6309TIP3    H140342   4.190   5.447  13.478 -0.8555  0.5208  1.1857
 6309TIP3    H240343   4.161   5.300  13.500  0.6280  0.1460  0.7598
 6310TIP3   OH240344   2.937   1.500   6.402 -0.2928 -0.1282  0.4509
 6310TIP3    H140345   2.954   1.589   6.436 -0.4574 -0.2690  0.9083
 6310TIP3    H240346   2.979   1.442   6.466 -1.4314 -0.4411  0.9390
 6311TIP3   OH240347   3.223   2.457  15.416  0.1721  0.0124 -0.3546
 6311TIP3    H140348   3.206   2.473  15.508 -1.1340 -0.0630 -0.5714
 6311TIP3    H240349   3.303   2.507  15.398  0.5942 -0.1838  0.8605
 6312TIP3   OH240350   6.643   5.095  15.137  0.6284  0.0272 -0.1575
 6312TIP3    H140351   6.646   5.028  15.068  1.8601 -0.0475 -0.0504
 6312TIP3    H240352   6.718   5.074  15.193 -1.7878 -1.5928  2.7939
 6313TIP3   OH240353   3.712   5.139   1.497 -0.4688  0.0116 -0.9852
 6313TIP3    H140354   3.640   5.138   1.560 -0.0480 -1.2061 -0.4840
 6313TIP3    H240355   3.778   5.196   1.536 -0.3276 -0.5158 -0.4248
 6314TIP3   OH240356   5.354   6.496   3.182  0.3735 -0.8660  0.5470
 6314TIP3    H140357   5.270   6.514   3.141 -1.0206 -2.1492  2.6525
 6314TIP3    H240358   5.355   6.554   3.259  1.7733 -0.3307  0.1525
 6315TIP3   OH240359   1.928   4.268  11.558 -0.3024  0.1519 -0.6017
 6315TIP3    H140360   1.951   4.275  11.651 -0.3846 -1.1939 -0.4638
 6315TIP3    H240361   2.002   4.224  11.518 -1.3279 -1.5482 -0.6963
 6316TIP3   OH240362   0.520   4.817  16.984  0.1575 -0.0773  0.1187
 6316TIP3    H140363   0.583   4.886  16.966  0.7736 -0.7037 -0.2069
 6316TIP3    H240364   0.467   4.850  17.057 -0.7393  1.4688 -1.1729
 6317TIP3   OH240365   0.281   0.902   2.465 -0.6082 -0.2813 -0.2249
 6317TIP3    H140366   0.274   0.830   2.527  0.7220 -0.4172 -0.2222
 6317TIP3    H240367   0.305   0.861   2.382 -1.7203 -0.0262 -0.6949
 6318TIP3   OH240368   2.322   2.236  14.887 -0.0661 -0.9834 -0.0324
 6318TIP3    H140369   2.310   2.209  14.978 -2.0855 -0.2055 -0.0049
 6318TIP3    H240370   2.233   2.245  14.853  0.6385 -1.2246 -2.0974
 6319TIP3   OH240371   3.390   6.521   5.844 -0.4353  0.0862 -0.6115
 6319TIP3    H140372   3.314   6.499   5.897  0.4908  0.4183  0.9261
 6319TIP3    H240373   3.372   6.482   5.759 -2.1619 -0.1168 -0.1906
 6320TIP3   OH240374   0.963   0.571   4.725  0.1135 -0.8519 -0.2004
 6320TIP3    H140375   1.037   0.626   4.699  0.4705 -0.9256  0.6187
 6320TIP3    H240376   0.993   0.482   4.708 -1.1045 -0.7949 -3.1720
 6321TIP3   OH240377   6.245   4.068   4.279 -0.2780 -0.8713  0.8826
 6321TIP3    H140378   6.313   4.135   4.270 -0.7029 -0.3164  1.6923
 6321TIP3    H240379   6.224   4.044   4.189 -0.6654  0.6710  0.5299
 6322TIP3   OH240380   1.969   3.520   2.020  0.1202  0.3757 -0.6203
 6322TIP3    H140381   1.969   3.523   2.115  3.5072 -2.7389 -0.3121
 6322TIP3    H240382   1.899   3.460   1.997  0.1937  0.0468  0.0078
 6323TIP3   OH240383   2.012   6.499   6.198 -0.1374 -0.1431 -0.1300
 6323TIP3    H140384   2.059   6.569   6.153 -0.7000  1.2233  1.3016
 6323TIP3    H240385   2.041   6.504   6.289 -1.1745 -0.9097  0.2721
 6324TIP3   OH240386   3.461   4.796  15.875  0.0865 -0.0628 -0.5663
 6324TIP3    H140387   3.403   4.747  15.816 -0.0985 -0.0547 -0.3910
 6324TIP3    H240388   3.404   4.857  15.920  0.6163  1.8429 -2.3436
 6325TIP3   OH240389   3.354   1.729  14.823 -0.0533 -0.1021 -0.2413
 6325TIP3    H140390   3.387   1.729  14.733 -0.8146 -0.5525 -0.5257
 6325TIP3    H240391   3.315   1.816  14.834  0.3965  0.0958 -0.2137
 6326TIP3   OH240392   2.032   1.310  15.224  0.1281  0.1976 -0.0951
 6326TIP3    H140393   1.984   1.229  15.241  2.1446 -0.7598  1.4206
 6326TIP3    H240394   1.963   1.377  15.216 -1.4993 -0.8982  2.9342
 6327TIP3   OH240395   2.899   4.782   1.506  0.0262  0.9181  0.6379
 6327TIP3    H140396   2.958   4.725   1.458 -2.3527  1.0596 -2.7792
 6327TIP3    H240397   2.913   4.869   1.469 -2.6280  0.8509 -0.7762
 6328TIP3   OH240398   6.389   5.232   1.047 -0.3253  0.1132  0.4948
 6328TIP3    H140399   6.330   5.229   0.972  1.0326  0.8328 -0.6669
 6328TIP3    H240400   6.425   5.321   1.045  0.7952 -0.3107  1.1354
 6329TIP3   OH240401   5.072   3.287   3.701  0.2352  0.4225  0.3009
 6329TIP3    H140402   4.994   3.340   3.718 -1.6274 -1.7543 -0.9303
 6329TIP3    H240403   5.056   3.205   3.748  1.9226  0.0360  0.2412
 6330TIP3   OH240404   4.291   1.735  12.207 -0.1925  0.0580 -0.0643
 6330TIP3    H140405   4.197   1.749  12.216 -0.9145 -1.8291 -3.3216
 6330TIP3    H240406   4.308   1.654  12.255 -0.1171  0.5478  0.7647
 6331TIP3   OH240407   5.914   0.523   4.891 -0.0350  0.9839 -0.2057
 6331TIP3    H140408   5.925   0.570   4.808  1.2510  0.0697 -0.5853
 6331TIP3    H240409   5.940   0.585   4.958  0.3302  1.2595 -0.6001
 6332TIP3   OH240410   1.489   3.273   3.531  0.8817  0.0944 -0.5417
 6332TIP3    H140411   1.481   3.325   3.451 -0.8569  3.2576  1.4960
 6332TIP3    H240412   1.545   3.325   3.588  0.1998 -0.9391  1.1465
 6333TIP3   OH240413   5.054   4.182  15.204  0.3346 -0.0224 -0.5617
 6333TIP3    H140414   5.049   4.123  15.280 -0.6010 -1.2722 -1.5563
 6333TIP3    H240415   5.146   4.183  15.180  0.7406  0.8251  0.8953
 6334TIP3   OH240416   2.570   1.055  10.407  0.0445  0.4366 -0.6042
 6334TIP3    H140417   2.646   1.113  10.407 -0.3738  0.9987 -1.0445
 6334TIP3    H240418   2.499   1.110  10.441 -0.0437 -0.2481  0.3552
 6335TIP3   OH240419   0.992   4.883   0.403  0.1742  0.7076  0.2377
 6335TIP3    H140420   1.052   4.816   0.434 -0.7730 -2.0765 -3.2861
 6335TIP3    H240421   1.044   4.937   0.343 -0.1382 -0.0009 -0.6982
 6336TIP3   OH240422   1.827   6.204   5.079  0.5934  0.3481 -0.2014
 6336TIP3    H140423   1.819   6.157   4.995 -0.8050 -0.2736  0.2485
 6336TIP3    H240424   1.832   6.296   5.054  0.3258  0.1616 -0.9924
 6337TIP3   OH240425   1.875   1.228   4.586 -0.2844 -0.1697  0.8465
 6337TIP3    H140426   1.941   1.164   4.558  0.7451  1.7349 -1.4707
 6337TIP3    H240427   1.872   1.219   4.681  1.0027 -2.4800  0.7573
 6338TIP3   OH240428   1.558   6.588   1.966 -0.0093  0.1102  0.1325
 6338TIP3    H140429   1.522   6.532   2.035  0.9156  2.0310  2.2980
 6338TIP3    H240430   1.653   6.577   1.974  0.1541  1.3888  0.1067
 6339TIP3   OH240431   6.309   1.102   1.228 -0.3193 -0.0144  0.1425
 6339TIP3    H140432   6.239   1.044   1.199 -0.6988  1.4490 -2.1668
 6339TIP3    H240433   6.264   1.177   1.266 -0.2342  1.5935 -2.6187
 6340TIP3   OH240434   5.773   3.357  13.818 -0.1423  0.3877 -0.0554
 6340TIP3    H140435   5.684   3.344  13.850  0.1561 -0.5695  0.4045
 6340TIP3    H240436   5.796   3.445  13.848 -0.2101 -0.1313  1.6075
 6341TIP3   OH240437   4.086   4.549  13.450  0.2677 -0.2534 -0.8448
 6341TIP3    H140438   4.033   4.623  13.481  0.6082  0.3952 -1.7591
 6341TIP3    H240439   4.170   4.560  13.494 -0.4733 -1.5625  0.9894
 6342TIP3   OH240440   0.513   2.266   5.065 -0.0682 -0.4682  0.5978
 6342TIP3    H140441   0.569   2.308   5.132  0.1688  0.1458  0.0302
 6342TIP3    H240442   0.566   2.193   5.033  0.4376  0.1266  0.0440
 6343TIP3   OH240443   5.440   0.354   0.219 -0.6890 -0.2646  0.2713
 6343TIP3    H140444   5.464   0.325   0.131 -0.2268 -3.4057  1.3188
 6343TIP3    H240445   5.352   0.320   0.233 -1.1730  1.0905  0.7034
 6344TIP3   OH240446   4.709   1.923   1.773  0.5692  0.3792 -0.0833
 6344TIP3    H140447   4.786   1.878   1.739  0.5535 -0.2445  0.6848
 6344TIP3    H240448   4.650   1.930   1.697  0.8674 -0.2548 -0.3780
 6345TIP3   OH240449   4.486   2.303  11.812 -0.5734 -0.0163  0.4909
 6345TIP3    H140450   4.425   2.285  11.884  0.5216  0.7757  1.6541
 6345TIP3    H240451   4.496   2.398  11.811  0.9500 -0.1519  0.5975
 6346TIP3   OH240452   4.997   0.524   4.443  0.3502 -0.3170  0.0787
 6346TIP3    H140453   4.954   0.440   4.425 -0.8719  0.3939 -0.4029
 6346TIP3    H240454   5.067   0.530   4.378  0.6129 -1.0660  0.2779
 6347TIP3   OH240455   3.767   1.482   0.227  0.3569 -0.1267 -0.1653
 6347TIP3    H140456   3.851   1.522   0.205  0.1179  0.6956  0.3590
 6347TIP3    H240457   3.732   1.536   0.298 -1.7619  1.1407 -2.0134
 6348TIP3   OH240458   2.775   2.338   2.713 -0.2301 -0.1260  0.3447
 6348TIP3    H140459   2.844   2.337   2.647 -0.1833 -1.3063  0.3782
 6348TIP3    H240460   2.721   2.261   2.693  0.5829 -1.3521  2.4683
 6349TIP3   OH240461   4.410   3.659  13.057 -0.0179 -0.2493 -0.5717
 6349TIP3    H140462   4.318   3.659  13.032 -0.0851 -0.9473 -0.3349
 6349TIP3    H240463   4.457   3.665  12.974 -0.2705  0.4424 -0.6756
 6350TIP3   OH240464   2.612   4.332   3.173  0.0458  0.1822  0.4987
 6350TIP3    H140465   2.568   4.290   3.099  0.3974 -1.2072  1.0452
 6350TIP3    H240466   2.699   4.353   3.141 -0.4033  1.3026 -0.0372
 6351TIP3   OH240467   0.541   2.345  10.615  0.2244  0.1188  0.4237
 6351TIP3    H140468   0.622   2.359  10.565  0.4473  1.4810  1.1343
 6351TIP3    H240469   0.563   2.370  10.704 -0.6350 -0.7430  0.8997
 6352TIP3   OH240470   4.280   3.328   6.267 -0.6112 -0.1283  0.8106
 6352TIP3    H140471   4.334   3.307   6.190 -2.6726 -1.0692 -0.4531
 6352TIP3    H240472   4.229   3.404   6.240 -0.7966  0.0074  1.5336
 6353TIP3   OH240473   3.200   2.426  16.299  0.2116 -0.1622  0.2252
 6353TIP3    H140474   3.205   2.345  16.350 -0.0342 -0.1693  0.2409
 6353TIP3    H240475   3.285   2.468  16.311  0.0994 -0.0881  0.7704
 6354TIP3   OH240476   6.359   0.894  12.079  0.1912 -0.0470 -0.3292
 6354TIP3    H140477   6.449   0.911  12.107  0.4509 -0.0250 -1.1672
 6354TIP3    H240478   6.363   0.810  12.033 -0.3552 -0.4000  0.2397
 6355TIP3   OH240479   6.778   4.624   2.396 -0.1729 -0.3924  0.0396
 6355TIP3    H140480   6.868   4.650   2.376 -0.7017  2.5169  1.0393
 6355TIP3    H240481   6.741   4.699   2.443 -3.2490 -1.3291 -0.6787
 6356TIP3   OH240482   3.494   4.723   1.244  0.2734  0.2231 -0.3414
 6356TIP3    H140483   3.580   4.752   1.215  0.3444  0.1239 -0.2315
 6356TIP3    H240484   3.440   4.724   1.164 -0.0541  1.7850 -0.1371
 6357TIP3   OH240485   6.611   3.179   6.813 -0.3557 -0.3206  0.2033
 6357TIP3    H140486   6.565   3.097   6.836 -0.7891  0.3659  1.9829
 6357TIP3    H240487   6.547   3.248   6.833  0.5708  0.5274  0.2957
 6358TIP3   OH240488   3.480   1.332  15.521  0.1580 -0.6849  0.0410
 6358TIP3    H140489   3.447   1.399  15.460 -0.1040  0.3093  1.2310
 6358TIP3    H240490   3.569   1.360  15.542  0.0885 -0.7704  0.4611
 6359TIP3   OH240491   3.886   2.582   4.747 -0.2827  0.5795 -0.1383
 6359TIP3    H140492   3.930   2.588   4.662 -0.4288 -0.5891 -0.3109
 6359TIP3    H240493   3.860   2.490   4.754 -1.0854  0.8631  0.7700
 6360TIP3   OH240494   6.703   4.862  16.233 -0.4890  0.0816 -0.5661
 6360TIP3    H140495   6.725   4.862  16.140 -0.3435  0.4884 -0.5356
 6360TIP3    H240496   6.741   4.782  16.267 -0.0104  0.2346 -0.7371
 6361TIP3   OH240497   1.247   1.569   6.267  0.1039  0.1592 -0.5973
 6361TIP3    H140498   1.293   1.650   6.244  2.6230 -1.5952 -2.2737
 6361TIP3    H240499   1.294   1.501   6.219 -2.9410 -2.1343 -0.6077
 6362TIP3   OH240500   4.864   1.568  11.829  0.2637  0.1001 -0.0994
 6362TIP3    H140501   4.937   1.565  11.891 -0.0177 -2.0104  0.1965
 6362TIP3    H240502   4.786   1.559  11.884 -0.2632  2.1613 -0.4279
 6363TIP3   OH240503   3.155   3.004  11.775  0.5568 -0.1532  0.3411
 6363TIP3    H140504   3.250   3.009  11.780  0.7176 -1.3052 -1.0975
 6363TIP3    H240505   3.137   2.927  11.722 -1.1600  0.4960 -0.1011
 6364TIP3   OH240506   6.669   3.164  11.199  0.0863 -0.3785 -0.5108
 6364TIP3    H140507   6.727   3.239  11.188  0.0637 -0.2567  0.1510
 6364TIP3    H240508   6.608   3.169  11.125 -1.0696  1.3018  0.4910
 6365TIP3   OH240509   4.056   1.394   1.407 -0.2762 -0.4475  0.5901
 6365TIP3    H140510   4.119   1.413   1.477 -1.0907  3.0640  0.5305
 6365TIP3    H240511   4.100   1.327   1.354  2.9727  1.0471  1.1584
 6366TIP3   OH240512   1.272   1.686   4.379  0.0141  0.3453  0.3888
 6366TIP3    H140513   1.218   1.608   4.393  0.4640 -0.3073 -1.3254
 6366TIP3    H240514   1.355   1.666   4.422  0.2443 -0.2781 -0.3235
 6367TIP3   OH240515   2.355   4.161   4.036 -0.4657 -0.4091  0.4324
 6367TIP3    H140516   2.411   4.214   4.093  1.1726 -0.9136 -0.6256
 6367TIP3    H240517   2.401   4.077   4.029 -0.6747 -0.4031 -1.4758
 6368TIP3   OH240518   0.152   2.240   2.378 -0.1045  0.3715  0.1151
 6368TIP3    H140519   0.247   2.240   2.367 -0.1683  0.7210 -0.4705
 6368TIP3    H240520   0.119   2.293   2.306 -0.9130 -1.8275 -1.2589
 6369TIP3   OH240521   1.130   5.010   1.636  0.2609  0.0852  0.2291
 6369TIP3    H140522   1.049   4.972   1.671  0.1768 -0.3657 -0.4419
 6369TIP3    H240523   1.148   5.084   1.694 -1.1896  0.8213 -0.2031
 6370TIP3   OH240524   1.518   5.482  15.069 -0.1414 -0.7292 -0.4293
 6370TIP3    H140525   1.572   5.421  15.119 -0.1830 -0.1588  0.3193
 6370TIP3    H240526   1.567   5.564  15.070 -0.7460 -0.3639 -0.2321
 6371TIP3   OH240527   4.888   4.362  12.992  0.1797 -0.1588 -0.5220
 6371TIP3    H140528   4.795   4.359  12.973  0.5007 -0.6714 -2.1495
 6371TIP3    H240529   4.896   4.328  13.081 -0.9633 -2.5511 -1.2445
 6372TIP3   OH240530   3.966   6.401  12.653 -0.1602  0.1007  0.0163
 6372TIP3    H140531   3.881   6.408  12.611 -0.1882 -0.0559  0.0471
 6372TIP3    H240532   4.000   6.491  12.654 -0.3231  0.1619  0.0027
 6373TIP3   OH240533   6.674   5.774  11.825 -0.2644  0.3473 -0.2576
 6373TIP3    H140534   6.704   5.694  11.866 -0.8173  0.3499  0.1720
 6373TIP3    H240535   6.684   5.759  11.731  2.6613  0.9970 -0.1277
 6374TIP3   OH240536   2.911   4.159   2.974 -0.1339  0.2235  0.5642
 6374TIP3    H140537   2.957   4.171   3.058  0.1444  1.0202  0.3109
 6374TIP3    H240538   2.824   4.194   2.990  0.3190  1.5995  0.1623
 6375TIP3   OH240539   2.324   5.899   3.322  0.2160  0.0825 -0.3456
 6375TIP3    H140540   2.333   5.870   3.413 -0.1433 -0.7007 -0.5518
 6375TIP3    H240541   2.268   5.977   3.327 -0.8021 -0.6493  0.0037
 6376TIP3   OH240542   2.311   5.645  17.071  0.1892 -0.4070  0.1140
 6376TIP3    H140543   2.331   5.690  17.153 -1.3435 -0.0176  0.3072
 6376TIP3    H240544   2.258   5.708  17.022 -0.2111 -1.2281 -0.5156
 6377TIP3   OH240545   2.820   4.370  15.717 -0.7828 -0.0357  0.3086
 6377TIP3    H140546   2.886   4.405  15.777 -0.8031 -0.7406  0.7504
 6377TIP3    H240547   2.866   4.361  15.634 -0.4973  0.0856  0.4510
 6378TIP3   OH240548   2.150   3.128   0.001  0.1683 -0.1439 -0.2006
 6378TIP3    H140549   2.147   3.035   0.023 -1.0995 -0.1685 -0.4378
 6378TIP3    H240550   2.197   3.168   0.074  0.0214 -0.8576  0.2931
 6379TIP3   OH240551   3.483   1.584  11.479 -0.0600  0.2828 -0.5591
 6379TIP3    H140552   3.407   1.624  11.521  0.3173  2.6111 -1.9312
 6379TIP3    H240553   3.473   1.605  11.386  2.5779  1.2468 -0.6978
 6380TIP3   OH240554   3.272   2.586  17.042 -0.0766 -0.3941 -0.3155
 6380TIP3    H140555   3.299   2.633  16.963  0.8652 -1.0954 -0.4202
 6380TIP3    H240556   3.323   2.505  17.041 -1.4273 -1.2758  0.0421
 6381TIP3   OH240557   3.231   1.070  11.022  0.6132 -0.2455 -0.8793
 6381TIP3    H140558   3.161   1.006  11.013  2.9787 -2.9513 -1.7045
 6381TIP3    H240559   3.218   1.131  10.950  0.2208 -1.9134 -2.2715
 6382TIP3   OH240560   3.831   1.395  12.996  0.3936 -0.1238  0.2707
 6382TIP3    H140561   3.851   1.345  13.075 -0.9076 -0.3915  0.4552
 6382TIP3    H240562   3.887   1.356  12.929  0.4957 -0.8263  0.7450
 6383TIP3   OH240563   2.304   3.343  16.970  0.6168  0.1344  0.3682
 6383TIP3    H140564   2.296   3.416  17.031  0.0557  0.1357  0.2981
 6383TIP3    H240565   2.316   3.385  16.884  0.9091  0.1366  0.4090
 6384TIP3   OH240566   5.893   1.487  12.154  0.1976  0.0139  0.3487
 6384TIP3    H140567   5.867   1.411  12.102  0.0569  2.1011 -2.8881
 6384TIP3    H240568   5.926   1.450  12.236  0.1314 -3.4949 -1.0627
 6385TIP3   OH240569   0.092   5.680   0.077  0.3835  0.2688  0.6514
 6385TIP3    H140570   0.139   5.760   0.055  1.2641 -0.5002 -0.3735
 6385TIP3    H240571   0.158   5.622   0.114 -0.1803 -0.1164  1.0859
 6386TIP3   OH240572   1.560   3.204  13.813  0.2689  0.3873  0.3292
 6386TIP3    H140573   1.515   3.288  13.801  3.5471  2.4596  1.2295
 6386TIP3    H240574   1.571   3.196  13.908 -0.2554 -1.2831  0.2786
 6387TIP3   OH240575   2.478   5.516  14.105 -0.5104 -0.0305  0.0874
 6387TIP3    H140576   2.438   5.603  14.103 -1.0060 -0.2583 -1.6333
 6387TIP3    H240577   2.415   5.461  14.151 -0.2994  0.4694  0.9814
 6388TIP3   OH240578   6.091   1.787  13.248 -0.1947 -0.1468 -0.0291
 6388TIP3    H140579   6.093   1.789  13.343 -0.6761  3.2449  0.0461
 6388TIP3    H240580   6.181   1.810  13.222 -0.4551  0.5758 -0.3186
 6389TIP3   OH240581   1.373   5.342   3.000 -0.0281  0.0797 -0.0950
 6389TIP3    H140582   1.334   5.364   2.915 -1.2441  0.1505  0.4654
 6389TIP3    H240583   1.376   5.247   3.001  0.7434  0.0853 -0.5300
 6390TIP3   OH240584   3.883   1.303  10.395 -0.0262  0.7576 -0.4035
 6390TIP3    H140585   3.810   1.298  10.334 -0.6606 -0.1267  0.3977
 6390TIP3    H240586   3.959   1.277  10.344 -0.1656  2.1239 -1.3665
 6391TIP3   OH240587   0.244   0.682  12.844  0.5683  0.2378  0.5521
 6391TIP3    H140588   0.234   0.758  12.786 -0.9580  0.7310  1.4190
 6391TIP3    H240589   0.154   0.654  12.863  1.0812 -0.9033  1.4141
 6392TIP3   OH240590   2.180   0.073  11.367  0.0747  0.3979  0.1274
 6392TIP3    H140591   2.257   0.026  11.398 -0.7788  0.0086  1.7733
 6392TIP3    H240592   2.107   0.014  11.387 -0.8036  1.5095  0.2705
 6393TIP3   OH240593   1.302   1.469   1.675  0.2538 -0.1548 -0.1160
 6393TIP3    H140594   1.385   1.512   1.694  0.0636  0.7085 -1.1419
 6393TIP3    H240595   1.306   1.386   1.723  2.3669 -0.8429 -1.3496
 6394TIP3   OH240596   3.762   5.482  16.232  0.1361  0.1414 -0.3879
 6394TIP3    H140597   3.758   5.491  16.327 -0.0803 -1.4347 -0.2229
 6394TIP3    H240598   3.780   5.571  16.200 -1.0460  0.9356  1.0332
 6395TIP3   OH240599   1.046   5.058  16.636 -0.2017 -0.7728  0.1609
 6395TIP3    H140600   1.104   4.991  16.673 -0.8986 -1.7330 -0.4260
 6395TIP3    H240601   1.098   5.101  16.568 -0.1728 -1.6651 -0.3956
 6396TIP3   OH240602   5.180   0.945  10.342  0.2086 -0.1975 -0.3847
 6396TIP3    H140603   5.124   0.911  10.412 -1.7475 -0.8645 -2.1505
 6396TIP3    H240604   5.153   1.037  10.334 -0.4287 -0.4300 -1.0103
 6397TIP3   OH240605   3.001   2.509  14.844 -0.0235  0.1123 -0.3037
 6397TIP3    H140606   3.040   2.566  14.911  0.5401 -0.4677 -0.1330
 6397TIP3    H240607   3.055   2.430  14.846  0.4619  0.3699 -1.9509
 6398TIP3   OH240608   2.711   4.413  17.092 -0.6780  0.1845  0.8173
 6398TIP3    H140609   2.793   4.365  17.099  0.4619  1.9106 -0.0045
 6398TIP3    H240610   2.644   4.350  17.119  0.9551 -1.0529  2.2134
 6399TIP3   OH240611   5.018   2.371  10.779  0.3078 -0.5003 -0.1473
 6399TIP3    H140612   5.021   2.383  10.684 -0.0483 -0.6341 -0.1744
 6399TIP3    H240613   5.107   2.344  10.802  0.2548 -1.0014 -0.5164
 6400TIP3   OH240614   3.153   1.262  11.713 -0.4888 -0.4157 -0.1111
 6400TIP3    H140615   3.070   1.272  11.759 -0.4380  1.0609 -0.3004
 6400TIP3    H240616   3.211   1.220  11.778 -0.3103  1.9407  1.3880
 6401TIP3   OH240617   5.948   6.430  16.422  0.4612 -0.4600 -0.1460
 6401TIP3    H140618   5.890   6.503  16.440 -0.1021 -0.6756 -1.0303
 6401TIP3    H240619   6.034   6.458  16.455 -0.1365 -0.1497  1.1717
 6402TIP3   OH240620   6.531   2.195  16.018 -0.0840 -0.1273 -0.0917
 6402TIP3    H140621   6.473   2.208  16.093  1.2937  0.0622  0.9770
 6402TIP3    H240622   6.562   2.105  16.027 -0.6164 -0.4118 -0.9671
 6403TIP3   OH240623   3.789   5.537   4.363  0.1637 -0.2171  0.2366
 6403TIP3    H140624   3.783   5.619   4.314  1.6424 -0.5427 -0.5310
 6403TIP3    H240625   3.698   5.513   4.380 -0.3253  0.9307 -0.6196
 6404TIP3   OH240626   5.375   6.110  16.954  0.5654  0.3050 -0.1603
 6404TIP3    H140627   5.456   6.128  17.002  0.0506  0.0476  0.8400
 6404TIP3    H240628   5.320   6.187  16.971 -0.8143 -1.1065  2.3191
 6405TIP3   OH240629   3.676   5.668  12.336 -0.1021  0.0065 -0.3671
 6405TIP3    H140630   3.649   5.687  12.425  1.2694 -0.1447  0.0949
 6405TIP3    H240631   3.744   5.732  12.316 -1.0739  0.6760 -1.6715
 6406TIP3   OH240632   1.865   1.896  13.964 -0.1112 -0.0956 -0.7275
 6406TIP3    H140633   1.931   1.833  13.937  0.5092  1.0148 -1.9239
 6406TIP3    H240634   1.900   1.936  14.044 -0.2531 -0.8469 -0.2792
 6407TIP3   OH240635   5.986   6.178  10.956 -0.1085 -0.1364  0.1611
 6407TIP3    H140636   6.020   6.168  10.867 -1.0540 -2.4287 -0.0368
 6407TIP3    H240637   6.063   6.169  11.012  0.2869 -0.2629 -0.3888
 6408TIP3   OH240638   5.535   5.178   0.004 -0.2135 -0.4981  0.4034
 6408TIP3    H140639   5.551   5.219  -0.081  2.2253 -1.8863  0.1104
 6408TIP3    H240640   5.464   5.115  -0.012 -0.5789  0.0855 -0.2983
 6409TIP3   OH240641   1.427   6.338  16.085 -0.3505  0.3035  0.4309
 6409TIP3    H140642   1.420   6.270  16.017 -0.9597 -1.6831  2.3511
 6409TIP3    H240643   1.367   6.406  16.056  0.6921  0.3323 -1.8576
 6410TIP3   OH240644   2.604   0.422  14.719 -0.5907 -0.0855  0.1497
 6410TIP3    H140645   2.532   0.403  14.779 -0.3082 -2.4823 -0.1621
 6410TIP3    H240646   2.612   0.343  14.665  1.4029  0.6402 -0.7235
 6411TIP3   OH240647   0.613   6.513   0.959 -0.2474 -0.2528  0.2763
 6411TIP3    H140648   0.539   6.501   1.019 -0.7074 -0.0964 -0.2455
 6411TIP3    H240649   0.627   6.426   0.921 -0.5506 -0.1583 -0.0590
 6412TIP3   OH240650   5.972   0.219  16.041  0.0464  0.0784 -0.0605
 6412TIP3    H140651   6.051   0.267  16.062  1.2704 -2.0097  0.4434
 6412TIP3    H240652   5.907   0.248  16.105  1.1995 -0.0302  1.1928
 6413TIP3   OH240653   1.270   1.269  16.935  0.2633  0.4045  0.4528
 6413TIP3    H140654   1.231   1.191  16.895  0.7071 -0.1333  1.0374
 6413TIP3    H240655   1.318   1.235  17.011  3.4214  0.7474 -1.2334
 6414TIP3   OH240656   4.294   4.892   1.606 -0.3133 -0.6596 -0.0207
 6414TIP3    H140657   4.220   4.874   1.549 -0.1900  0.8907 -0.7332
 6414TIP3    H240658   4.330   4.975   1.573  0.2677 -0.1416  1.7997
 6415TIP3   OH240659   2.398   2.771  10.355 -0.3783  0.6605  0.1332
 6415TIP3    H140660   2.438   2.791  10.440 -1.2024  0.6172  0.5331
 6415TIP3    H240661   2.353   2.852  10.330 -0.8417  0.4037  0.1336
 6416TIP3   OH240662   1.535   6.248  16.444 -0.3039  0.0084  0.2689
 6416TIP3    H140663   1.592   6.313  16.483  1.3923 -1.3427  0.1376
 6416TIP3    H240664   1.578   6.223  16.362 -0.3565 -1.9827  0.7835
 6417TIP3   OH240665   6.153   5.927  15.823  0.2065 -0.4923 -0.2009
 6417TIP3    H140666   6.091   5.876  15.771 -0.1189 -1.3189  0.9498
 6417TIP3    H240667   6.182   5.997  15.764 -4.2697  2.0368  0.1515
 6418TIP3   OH240668   5.186   0.261   0.253  0.0801  0.7330  0.5899
 6418TIP3    H140669   5.167   0.227   0.341 -0.6815 -0.1866  0.0843
 6418TIP3    H240670   5.178   0.185   0.196  0.5400  1.3324 -0.2954
 6419TIP3   OH240671   4.571   5.460   1.783 -0.1861  0.9858  0.4088
 6419TIP3    H140672   4.570   5.483   1.876  0.1890 -0.8463  0.9088
 6419TIP3    H240673   4.663   5.466   1.758 -0.5420  3.9507 -0.5804
 6420TIP3   OH240674   0.855   0.952   3.427  0.1154  1.0181 -0.0335
 6420TIP3    H140675   0.768   0.913   3.419  0.0987  0.3787  2.4903
 6420TIP3    H240676   0.844   1.042   3.397 -1.4559  0.9819  0.3677
 6421TIP3   OH240677   3.312   4.084   0.915 -0.1788 -0.7060 -0.1984
 6421TIP3    H140678   3.341   3.996   0.891 -1.5432 -1.2007 -0.1552
 6421TIP3    H240679   3.288   4.124   0.831 -2.6152 -1.5636 -0.0015
 6422TIP3   OH240680   3.828   1.979   4.000 -0.3633 -0.2477  0.0453
 6422TIP3    H140681   3.850   1.887   3.986 -1.1653 -0.6406  1.2561
 6422TIP3    H240682   3.911   2.025   3.993  0.1569 -1.1538  0.1507
 6423TIP3   OH240683   1.310   5.137  13.335  0.2671 -0.0529 -0.3517
 6423TIP3    H140684   1.230   5.143  13.283  0.5715 -0.8837 -0.9458
 6423TIP3    H240685   1.360   5.215  13.312 -0.1651  0.2237 -0.3450
 6424TIP3   OH240686   5.316   2.963   0.355  0.0210 -0.0628 -1.0010
 6424TIP3    H140687   5.380   2.902   0.390  0.4619 -1.3995 -3.8616
 6424TIP3    H240688   5.364   3.015   0.291 -0.5920  2.7141  0.6027
 6425TIP3   OH240689   6.103   6.583   1.889 -0.4139  0.2013  0.8100
 6425TIP3    H140690   6.171   6.628   1.839 -0.6496  0.8938  1.0966
 6425TIP3    H240691   6.068   6.651   1.948  0.2978 -0.7368  2.3890
 6426TIP3   OH240692   6.667   6.506  12.468 -0.2137  0.8304 -0.2048
 6426TIP3    H140693   6.622   6.574  12.518  1.2931  0.6177  1.5483
 6426TIP3    H240694   6.631   6.424  12.501 -1.0473  0.7178 -1.3443
 6427TIP3   OH240695   0.490   2.725  11.857 -0.2025  0.2866  0.0439
 6427TIP3    H140696   0.411   2.773  11.881  0.5501  1.4091  0.3564
 6427TIP3    H240697   0.544   2.728  11.935 -0.0114 -0.8483 -0.0291
 6428TIP3   OH240698   2.101   0.009  14.495  0.2339 -0.3497  0.0864
 6428TIP3    H140699   2.066  -0.066  14.544 -0.4652  0.5924  1.0899
 6428TIP3    H240700   2.120  -0.026  14.408 -1.5645 -1.3351  0.0405
 6429TIP3   OH240701   1.754   1.445  10.565  0.3087 -0.3314  0.0123
 6429TIP3    H140702   1.736   1.351  10.577 -1.7343  0.1712  1.3964
 6429TIP3    H240703   1.707   1.468  10.485  1.3448 -0.5761 -0.6931
 6430TIP3   OH240704   5.837   1.325   0.094 -0.1392 -0.2086 -0.8209
 6430TIP3    H140705   5.762   1.376   0.127  1.0970  0.8913  0.4028
 6430TIP3    H240706   5.825   1.238   0.132 -0.3656  0.1896  0.0406
 6431TIP3   OH240707   0.834   3.457  15.747  0.2944 -0.2964  0.4918
 6431TIP3    H140708   0.810   3.506  15.825  2.5366  0.4847  0.7604
 6431TIP3    H240709   0.831   3.521  15.675  1.1253 -0.2636  0.4737
 6432TIP3   OH240710   5.928   0.582  13.452  0.1475  0.2690 -0.4207
 6432TIP3    H140711   6.009   0.578  13.401 -1.0080 -1.1399 -2.2688
 6432TIP3    H240712   5.901   0.491  13.462 -0.7680  0.6560  0.9226
 6433TIP3   OH240713   4.332   2.100  12.487  0.3094  0.6851  0.2232
 6433TIP3    H140714   4.341   2.082  12.394 -0.7009  0.3454  0.1774
 6433TIP3    H240715   4.279   2.180  12.492  1.4731  1.4644  0.4967
 6434TIP3   OH240716   6.018   3.729   2.063 -0.0915  0.0617 -0.4701
 6434TIP3    H140717   5.970   3.797   2.110 -1.1725 -0.0501 -1.3748
 6434TIP3    H240718   6.085   3.777   2.014  1.5759  0.1124  1.7172
 6435TIP3   OH240719   5.259   3.370  13.637  0.0858  0.0504 -0.0157
 6435TIP3    H140720   5.326   3.435  13.658  0.5971 -0.3790 -0.2923
 6435TIP3    H240721   5.261   3.309  13.710 -1.7684  1.3821  1.2475
 6436TIP3   OH240722   3.684   4.654  14.911 -0.4092 -0.2077 -0.1297
 6436TIP3    H140723   3.708   4.565  14.885 -1.6641 -0.4638 -0.4764
 6436TIP3    H240724   3.624   4.642  14.985 -0.7248  0.3363 -0.2891
 6437TIP3   OH240725   1.295   1.406   3.486  0.6387 -1.0063  0.2778
 6437TIP3    H140726   1.219   1.355   3.457  0.4263  0.2144 -1.4621
 6437TIP3    H240727   1.361   1.391   3.419  0.7939  0.4533  0.0680
 6438TIP3   OH240728   1.512   3.724   5.224 -0.2930  0.8228  0.2666
 6438TIP3    H140729   1.562   3.675   5.158 -0.7319  0.3777  0.2595
 6438TIP3    H240730   1.461   3.786   5.173 -1.1751 -0.0012  0.1115
 6439TIP3   OH240731   5.093   4.906   2.223  0.6494 -0.0543 -0.0975
 6439TIP3    H140732   5.000   4.921   2.210  0.5980 -1.2966 -1.4725
 6439TIP3    H240733   5.130   4.993   2.237 -0.8742  0.3440  1.8482
 6440TIP3   OH240734   6.000   0.433   2.580 -0.1195  0.1609  0.6817
 6440TIP3    H140735   5.920   0.397   2.618  0.5352 -2.2169 -0.0118
 6440TIP3    H240736   6.070   0.400   2.637  0.5737 -0.3464 -0.4302
 6441TIP3   OH240737   4.382   3.947   3.109 -0.1002  0.4244  0.0476
 6441TIP3    H140738   4.435   3.899   3.172 -0.5759 -0.0792  0.0752
 6441TIP3    H240739   4.443   3.973   3.041  0.4152  0.9435  0.6936
 6442TIP3   OH240740   1.579   3.921  16.807  0.3554 -0.2977  0.4515
 6442TIP3    H140741   1.489   3.926  16.774  0.5462 -1.8659 -0.3808
 6442TIP3    H240742   1.570   3.937  16.901 -0.8806 -1.0904  0.4951
 6443TIP3   OH240743   4.351   1.736   2.424  0.1544  0.3408  0.1968
 6443TIP3    H140744   4.386   1.748   2.336 -0.8168 -1.7294 -0.5433
 6443TIP3    H240745   4.280   1.800   2.431 -1.1156 -0.8277 -1.3586
 6444TIP3   OH240746   2.080   6.564   5.024 -0.1358 -0.9861 -0.0633
 6444TIP3    H140747   1.998   6.613   5.036 -0.7323 -1.7483 -0.8617
 6444TIP3    H240748   2.148   6.625   5.050 -0.7072  0.9754 -2.7538
 6445TIP3   OH240749   1.702   5.179  11.909 -0.1550 -0.1229  0.3387
 6445TIP3    H140750   1.720   5.266  11.946 -2.7978  0.6203  0.1054
 6445TIP3    H240751   1.607   5.177  11.899 -0.1215 -2.8754 -0.1726
 6446TIP3   OH240752   2.098   2.788   1.578  0.4554 -0.3502  0.0282
 6446TIP3    H140753   2.129   2.814   1.492 -0.3080 -1.4216 -0.5910
 6446TIP3    H240754   2.143   2.848   1.639  0.4526  0.8938 -1.1448
 6447TIP3   OH240755   2.484   6.662   3.534  0.5066  0.2988  0.7154
 6447TIP3    H140756   2.415   6.720   3.564 -0.8758  0.2340 -2.0420
 6447TIP3    H240757   2.447   6.574   3.542  0.4610  0.2216 -0.2486
 6448TIP3   OH240758   2.779   6.450   2.034  0.2070 -0.3762 -0.0702
 6448TIP3    H140759   2.784   6.480   2.124 -2.1854 -2.6578  0.9665
 6448TIP3    H240760   2.822   6.364   2.035 -1.2539 -1.1575 -0.6450
 6449TIP3   OH240761   3.632   4.523   0.335 -0.3636  0.6077  0.3287
 6449TIP3    H140762   3.630   4.601   0.280  5.8544  0.5990 -0.5497
 6449TIP3    H240763   3.630   4.557   0.425 -3.4095  1.0929  0.2072
 6450TIP3   OH240764   2.643   2.540  14.557 -0.1770 -0.1533  0.4310
 6450TIP3    H140765   2.633   2.606  14.489  0.4373  1.3544  1.7502
 6450TIP3    H240766   2.555   2.502  14.567 -0.4869  0.3041 -0.4791
 6451TIP3   OH240767   1.038   0.763   2.160 -0.4158 -0.2607 -0.4188
 6451TIP3    H140768   0.992   0.782   2.078  1.1005 -0.3023 -1.3371
 6451TIP3    H240769   1.017   0.836   2.217 -0.1659  0.6709 -1.4653
 6452TIP3   OH240770   2.018   3.977  11.244  0.3434 -0.2871  0.2998
 6452TIP3    H140771   2.074   3.916  11.196  1.6390  0.2195  1.1010
 6452TIP3    H240772   2.031   3.954  11.336 -1.9696 -1.1317  0.4748
 6453TIP3   OH240773   6.244   4.708   0.689 -0.2074 -0.2593 -0.3256
 6453TIP3    H140774   6.163   4.713   0.638  0.2161 -0.4745 -1.0289
 6453TIP3    H240775   6.225   4.644   0.758 -0.3821 -0.9177 -0.9745
 6454TIP3   OH240776   0.180   1.061   1.997  0.5771 -0.2686  0.2609
 6454TIP3    H140777   0.258   1.116   1.988  0.4408 -0.1442 -0.1810
 6454TIP3    H240778   0.201   0.982   1.947  0.0100  0.2144 -0.7832
 6455TIP3   OH240779   5.744   6.125   0.759  0.0001  0.3506  0.0758
 6455TIP3    H140780   5.781   6.061   0.820  0.1585 -1.5059 -1.8540
 6455TIP3    H240781   5.657   6.091   0.739  0.1090  0.6834 -1.0325
 6456TIP3   OH240782   0.289   0.687   0.213 -0.3134  0.5145 -0.0961
 6456TIP3    H140783   0.211   0.699   0.158  0.8539  0.8691 -1.7745
 6456TIP3    H240784   0.294   0.592   0.226 -0.8632  0.4642 -0.1994
 6457TIP3   OH240785   5.755   5.858  11.341 -0.0255  0.4083 -0.1997
 6457TIP3    H140786   5.792   5.800  11.408 -1.9162  0.5917  1.0566
 6457TIP3    H240787   5.825   5.866  11.276  2.5470  1.5468  2.4889
 6458TIP3   OH240788   2.891   3.372  14.383  0.3226  0.0989  0.1759
 6458TIP3    H140789   2.807   3.333  14.407  0.7272 -1.1799 -0.4182
 6458TIP3    H240790   2.953   3.334  14.445  0.7765 -0.4672 -0.6113
 6459TIP3   OH240791   6.110   0.540  16.101 -0.4633 -1.0246  0.0405
 6459TIP3    H140792   6.072   0.612  16.150 -1.0234 -0.0823 -1.6813
 6459TIP3    H240793   6.153   0.486  16.167 -2.0274 -0.3854  1.6715
 6460TIP3   OH240794   0.944   4.092   6.900  0.0756  0.0148  0.3271
 6460TIP3    H140795   0.870   4.033   6.915 -0.5482  0.4117 -0.9537
 6460TIP3    H240796   0.904   4.168   6.857  1.2080  0.3164 -0.2159
 6461TIP3   OH240797   4.722   2.639  14.694  0.0999 -0.5660 -0.2806
 6461TIP3    H140798   4.790   2.701  14.719  0.3378 -1.2487  0.8043
 6461TIP3    H240799   4.735   2.626  14.600  1.5429 -0.7768 -0.0750
 6462TIP3   OH240800   5.215   1.346   3.083  0.1746 -0.0970  0.8275
 6462TIP3    H140801   5.207   1.441   3.080 -0.9105 -0.1428  1.6580
 6462TIP3    H240802   5.143   1.314   3.027 -1.7015 -0.4442  3.2771
 6463TIP3   OH240803   5.636   4.972   4.301  0.4528  0.3083 -0.4901
 6463TIP3    H140804   5.724   4.941   4.325  0.4800  0.8260  0.1076
 6463TIP3    H240805   5.652   5.036   4.231  0.4171 -0.7697 -1.5284
 6464TIP3   OH240806   3.465   3.114   0.728 -1.0150 -0.2484  0.0418
 6464TIP3    H140807   3.543   3.102   0.674 -0.4416 -0.6621  0.9278
 6464TIP3    H240808   3.392   3.092   0.671 -0.4889  0.2727 -0.8419
 6465TIP3   OH240809   0.096   3.666  14.752 -0.0284  0.1055  0.5493
 6465TIP3    H140810   0.044   3.659  14.672 -1.2790  2.4604  1.0856
 6465TIP3    H240811   0.034   3.649  14.823  0.4088  0.8502  1.1207
 6466TIP3   OH240812   2.842   0.640   1.031  0.2799  0.0159  0.3696
 6466TIP3    H140813   2.883   0.724   1.053 -0.1403 -0.3543  2.9257
 6466TIP3    H240814   2.896   0.574   1.075 -0.5399 -0.8670  0.0939
 6467TIP3   OH240815   2.149   3.401  14.651  0.3280 -0.2292 -0.0420
 6467TIP3    H140816   2.237   3.435  14.638  0.6913 -0.4334  1.6030
 6467TIP3    H240817   2.142   3.390  14.746 -1.5110 -0.1128 -0.1277
 6468TIP3   OH240818   2.823   4.609  16.816  0.0659 -0.0756  0.0381
 6468TIP3    H140819   2.788   4.649  16.896  0.1269 -0.6888  0.3718
 6468TIP3    H240820   2.746   4.585  16.766  0.0090 -0.4454  0.2927
 6469TIP3   OH240821   2.433   4.520   2.968  0.0555 -0.1694 -0.2028
 6469TIP3    H140822   2.449   4.568   3.050 -1.5917 -1.8979  1.2081
 6469TIP3    H240823   2.396   4.437   2.996  0.2493 -1.1664 -2.7140
 6470TIP3   OH240824   5.597   1.411  10.961 -0.0387  0.3143 -0.5602
 6470TIP3    H140825   5.527   1.475  10.969  1.0731  1.4172  0.7722
 6470TIP3    H240826   5.575   1.361  10.881 -2.7396  0.0378  0.2626
 6471TIP3   OH240827   6.362   6.369  11.634  0.1837 -0.5333 -0.3459
 6471TIP3    H140828   6.315   6.446  11.603  0.9519  0.0769 -0.0351
 6471TIP3    H240829   6.380   6.318  11.555  2.7833  1.3606 -1.1454
 6472TIP3   OH240830   3.095   0.889   3.548 -0.1066 -0.3803 -0.4228
 6472TIP3    H140831   3.037   0.814   3.539 -0.5631 -0.2400  1.0177
 6472TIP3    H240832   3.040   0.965   3.529  0.1655 -0.3536 -1.1464
 6473TIP3   OH240833   5.969   6.337   1.905 -0.1231 -0.1267 -0.1298
 6473TIP3    H140834   6.028   6.278   1.952  1.7260  0.9511 -1.0018
 6473TIP3    H240835   6.013   6.422   1.908 -1.5086  0.6647 -1.0681
 6474TIP3   OH240836   0.956   5.711   3.698 -0.5481  0.2971 -0.0608
 6474TIP3    H140837   0.926   5.762   3.773 -0.7460 -1.2190  0.9442
 6474TIP3    H240838   1.050   5.730   3.692 -0.9969  2.5130 -1.1698
 6475TIP3   OH240839   6.418   6.194   0.468 -1.2541  0.2598  0.8904
 6475TIP3    H140840   6.512   6.182   0.456 -1.5560 -1.7141  0.2646
 6475TIP3    H240841   6.411   6.276   0.518  0.6451  1.9106 -1.3557
 6476TIP3   OH240842   3.858   2.213   0.590  0.4929 -0.0736 -0.3140
 6476TIP3    H140843   3.847   2.133   0.642 -0.4307  0.1962 -0.0784
 6476TIP3    H240844   3.781   2.217   0.535  0.4388  0.7531 -0.1942
 6477TIP3   OH240845   5.010   2.820  13.124 -0.0842 -0.1076 -0.1524
 6477TIP3    H140846   5.076   2.889  13.123 -0.2775  0.0974  0.7108
 6477TIP3    H240847   5.042   2.756  13.061 -0.0356  0.8801 -1.1638
 6478TIP3   OH240848   3.780   2.912  13.532  0.1338 -0.3408  0.5097
 6478TIP3    H140849   3.747   3.000  13.548  0.6965 -0.0106 -0.1294
 6478TIP3    H240850   3.870   2.924  13.501  0.4102 -1.1644  0.9435
 6479TIP3   OH240851   1.674   2.567   1.712  0.3771  0.1031 -1.1223
 6479TIP3    H140852   1.595   2.616   1.688  1.6375  1.9886 -1.6550
 6479TIP3    H240853   1.657   2.478   1.682 -1.8348  0.2648 -0.5296
 6480TIP3   OH240854   0.890   4.985  14.932  0.1585 -0.2011  0.6874
 6480TIP3    H140855   0.903   4.984  14.838  0.1918 -1.2751  0.6872
 6480TIP3    H240856   0.977   4.967  14.968 -0.2209 -2.0250  0.8346
 6481TIP3   OH240857   1.233   0.364   1.007 -0.0261  0.7343  0.3373
 6481TIP3    H140858   1.153   0.324   1.042  0.3358  0.8193  1.2796
 6481TIP3    H240859   1.203   0.439   0.956 -0.5761  0.4867  0.2962
 6482TIP3   OH240860   5.500   2.552  12.115  0.3179 -0.0277 -0.4129
 6482TIP3    H140861   5.446   2.508  12.050  2.1737  0.5516 -2.4467
 6482TIP3    H240862   5.448   2.627  12.143 -0.3666 -0.0827 -1.5016
 6483TIP3   OH240863   3.985   3.733   6.061  0.5252  0.1029 -0.2318
 6483TIP3    H140864   4.065   3.687   6.085  0.2495  0.4303  1.4226
 6483TIP3    H240865   3.925   3.717   6.134 -0.5567  0.7435 -0.9456
 6484TIP3   OH240866   2.349   5.235  10.696 -0.0674 -0.0638 -0.0609
 6484TIP3    H140867   2.270   5.197  10.736  1.0764 -1.3851  1.0751
 6484TIP3    H240868   2.350   5.326  10.727 -0.3786 -0.4524  1.1583
 6485TIP3   OH240869   6.696   4.623   1.343 -0.2008 -0.3653  0.1301
 6485TIP3    H140870   6.630   4.559   1.318 -1.6496  0.7176  1.0719
 6485TIP3    H240871   6.710   4.608   1.436  0.5122 -0.2100  0.0593
 6486TIP3   OH240872   4.255   5.349  15.715 -0.4337  0.2893  0.1452
 6486TIP3    H140873   4.193   5.408  15.757 -0.6099  0.2668 -0.0833
 6486TIP3    H240874   4.306   5.404  15.656 -0.2357  0.3067  0.3285
 6487TIP3   OH240875   6.292   4.944   1.094  0.0973 -0.2919  0.4577
 6487TIP3    H140876   6.255   4.917   1.178  0.0384 -1.5617  0.0431
 6487TIP3    H240877   6.335   5.027   1.113 -2.4658  1.0131  1.0868
 6488TIP3   OH240878   3.923   1.802   6.485  0.7608 -0.0128 -0.7060
 6488TIP3    H140879   3.889   1.883   6.523 -0.7027 -1.9109  2.4209
 6488TIP3    H240880   3.981   1.767   6.551  1.4675 -1.4802 -2.0559
 6489TIP3   OH240881   0.381   2.657   0.365 -0.1457 -0.1551  0.1429
 6489TIP3    H140882   0.297   2.671   0.408  0.7381  1.0711  1.5554
 6489TIP3    H240883   0.381   2.564   0.342 -2.4403  0.0890 -1.1672
 6490TIP3   OH240884   5.651   2.493   5.519  0.3384  0.0028  0.2993
 6490TIP3    H140885   5.728   2.525   5.471 -0.0273  1.0658  0.3991
 6490TIP3    H240886   5.686   2.425   5.576  0.9546 -0.5599 -0.7186
 6491TIP3   OH240887   1.064   6.222  14.297 -0.3729  0.0134 -0.0664
 6491TIP3    H140888   1.133   6.288  14.298 -0.2519 -0.1115 -0.0728
 6491TIP3    H240889   0.984   6.270  14.273 -0.3497  0.2165  0.2511
 6492TIP3   OH240890   6.658   2.551   7.053  0.1249  0.3780 -0.0563
 6492TIP3    H140891   6.720   2.491   7.010 -0.0119  0.7032 -0.7141
 6492TIP3    H240892   6.703   2.635   7.056  0.0180  0.4288  0.1764
 6493TIP3   OH240893   2.856   0.757  16.987  0.5141  0.1540 -0.5404
 6493TIP3    H140894   2.826   0.840  16.950  0.9048  0.3048 -0.5298
 6493TIP3    H240895   2.871   0.775  17.080 -0.0365 -0.1060 -0.3974
 6494TIP3   OH240896   0.228   3.577   1.960  0.1311  0.2511  0.4132
 6494TIP3    H140897   0.249   3.666   1.929 -0.8115 -0.4347 -2.4524
 6494TIP3    H240898   0.149   3.589   2.013 -0.4121  1.0676 -0.5338
 6495TIP3   OH240899   0.532   1.088  16.038 -0.0948 -0.3277  0.1375
 6495TIP3    H140900   0.438   1.104  16.047 -0.3011 -1.3894  0.0535
 6495TIP3    H240901   0.547   1.007  16.087  1.0082  0.4616  1.1741
 6496TIP3   OH240902   6.622   3.188   3.897 -0.0961 -0.3020 -0.1905
 6496TIP3    H140903   6.640   3.098   3.927  0.7833 -0.0013  0.2088
 6496TIP3    H240904   6.600   3.178   3.805  1.0940 -0.8182 -0.4305
 6497TIP3   OH240905   2.428   1.780   3.322 -0.3481 -0.0047 -0.2004
 6497TIP3    H140906   2.491   1.839   3.279  1.8458 -1.2904  1.0976
 6497TIP3    H240907   2.418   1.816   3.410  1.2632 -1.6423  0.7150
 6498TIP3   OH240908   6.387   2.281  13.261  0.0396 -0.2459 -0.1540
 6498TIP3    H140909   6.384   2.276  13.357  1.4317  0.8475 -0.0345
 6498TIP3    H240910   6.305   2.324  13.237 -1.1750 -2.1228  0.3799
 6499TIP3   OH240911   5.503   5.874  13.913  0.2298 -0.0965  0.2395
 6499TIP3    H140912   5.504   5.816  13.837  0.0046 -1.9967  1.6081
 6499TIP3    H240913   5.581   5.850  13.963  0.4339  1.1933  0.5960
 6500TIP3   OH240914   0.280   1.366  11.302 -0.6987 -0.6591  0.3560
 6500TIP3    H140915   0.217   1.403  11.240 -0.3292 -1.8108 -0.7473
 6500TIP3    H240916   0.301   1.439  11.360  0.1853  0.9770 -1.8719
 6501TIP3   OH240917   6.337   2.837   0.515 -0.7060  0.3981  0.0340
 6501TIP3    H140918   6.328   2.849   0.610  0.1105 -2.0508  0.4895
 6501TIP3    H240919   6.429   2.858   0.498 -0.8279  0.7348 -0.2229
 6502TIP3   OH240920   5.300   2.062  11.211  0.1350  0.5626 -0.1271
 6502TIP3    H140921   5.220   2.115  11.210  0.4827  1.1730  1.3927
 6502TIP3    H240922   5.370   2.126  11.222  0.7030 -0.0942  0.0960
 6503TIP3   OH240923   2.204   0.051  13.297 -0.6494 -0.2025 -0.0757
 6503TIP3    H140924   2.207   0.037  13.392  0.6685 -2.3308 -0.3725
 6503TIP3    H240925   2.153  -0.023  13.263 -1.3496  0.6868 -1.0410
 6504TIP3   OH240926   3.934   0.841   1.815  0.0433 -0.4025 -0.0917
 6504TIP3    H140927   3.907   0.901   1.884  2.9462  2.6505 -1.2984
 6504TIP3    H240928   3.986   0.774   1.860 -1.7934 -1.1014  1.0935
 6505TIP3   OH240929   1.653   3.043   3.608 -0.2613 -0.4938 -0.8645
 6505TIP3    H140930   1.676   2.985   3.535  0.2523 -0.8441 -0.4353
 6505TIP3    H240931   1.590   3.104   3.571 -0.6875 -1.2197 -1.3800
 6506TIP3   OH240932   6.685   1.276   4.994 -0.5315  0.1069 -0.2279
 6506TIP3    H140933   6.696   1.192   4.949  1.2783  0.1353  0.0912
 6506TIP3    H240934   6.634   1.253   5.072 -0.4436 -0.6215 -0.3714
 6507TIP3   OH240935   2.970   3.944   1.331  0.4149  0.0644  0.5866
 6507TIP3    H140936   2.917   4.023   1.325  0.4180 -0.0106 -0.7522
 6507TIP3    H240937   3.059   3.976   1.346  0.5593  0.3739 -0.8599
 6508TIP3   OH240938   0.329   5.987  14.364  0.1381  0.7077 -0.3720
 6508TIP3    H140939   0.265   6.032  14.419  0.4096  1.9436 -1.0345
 6508TIP3    H240940   0.411   5.992  14.414 -0.2990 -1.1653  0.6289
 6509TIP3   OH240941   2.350   0.731  11.638 -0.3578  0.2272 -0.3786
 6509TIP3    H140942   2.278   0.747  11.577 -0.4728 -1.9385 -0.9092
 6509TIP3    H240943   2.361   0.813  11.685 -1.4947  1.3902 -2.0394
 6510TIP3   OH240944   4.279   0.305  11.742  0.5850  0.3528  0.3835
 6510TIP3    H140945   4.366   0.339  11.765  0.9222 -0.0346 -0.2790
 6510TIP3    H240946   4.286   0.283  11.649  0.4138 -1.6214  0.7926
 6511TIP3   OH240947   3.006   3.483  16.315  0.3970  0.0089 -0.7949
 6511TIP3    H140948   2.958   3.497  16.233 -1.4617  2.2730  0.5453
 6511TIP3    H240949   3.018   3.571  16.350  0.2533 -0.9275  1.8290
 6512TIP3   OH240950   1.707   3.406  16.395 -0.2953 -0.4768  0.2052
 6512TIP3    H140951   1.651   3.428  16.470  0.2517  2.1683 -0.0618
 6512TIP3    H240952   1.796   3.414  16.428 -0.0250  1.7282 -0.9109
 6513TIP3   OH240953   3.471   3.064  14.585 -0.0490 -0.5317 -0.1211
 6513TIP3    H140954   3.429   3.132  14.636 -0.8336 -1.1730  0.1105
 6513TIP3    H240955   3.414   3.052  14.509  0.8960  0.1356 -0.9624
 6514TIP3   OH240956   2.307   3.113   5.968 -0.0324 -0.0376  0.0981
 6514TIP3    H140957   2.218   3.088   5.944  0.1881 -0.5511 -0.2127
 6514TIP3    H240958   2.299   3.202   6.003 -0.4451  0.5896 -1.4929
 6515TIP3   OH240959   0.145   6.419  13.754  0.2656  0.4166 -0.5603
 6515TIP3    H140960   0.130   6.391  13.664 -0.0077  0.9596 -0.6874
 6515TIP3    H240961   0.110   6.348  13.807 -1.4878  1.0091 -0.8599
 6516TIP3   OH240962   4.564   2.761   2.424 -0.0021  0.1590 -0.2384
 6516TIP3    H140963   4.615   2.842   2.425 -1.2214  0.9681  1.3767
 6516TIP3    H240964   4.624   2.695   2.458  0.1804  1.0000  1.1843
 6517TIP3   OH240965   6.268   3.672   0.345 -0.0180 -0.1480  0.0485
 6517TIP3    H140966   6.220   3.752   0.329 -1.2203 -0.8868 -0.1421
 6517TIP3    H240967   6.284   3.672   0.440 -0.6407 -0.0294  0.1542
 6518TIP3   OH240968   4.881   5.129  10.886  0.1303  0.5767  0.6779
 6518TIP3    H140969   4.833   5.208  10.913 -2.2550  0.0161 -1.4685
 6518TIP3    H240970   4.934   5.158  10.812 -0.1645  0.3414  0.3729
 6519TIP3   OH240971   5.297   3.507  15.802  0.0635  0.1412 -0.4915
 6519TIP3    H140972   5.304   3.508  15.897  0.4525 -2.5190 -0.4240
 6519TIP3    H240973   5.209   3.539  15.784  0.3227  1.5962  0.6675
 6520TIP3   OH240974   1.890   6.513   2.323 -0.5727 -0.4932  0.3809
 6520TIP3    H140975   1.982   6.538   2.328 -0.0799 -0.1267 -4.6076
 6520TIP3    H240976   1.841   6.594   2.336 -0.3783 -0.7865  3.6218
 6521TIP3   OH240977   3.876   5.340  16.042 -0.2088 -0.2304  0.0377
 6521TIP3    H140978   3.818   5.383  16.105  0.1953  1.0184 -0.4290
 6521TIP3    H240979   3.831   5.257  16.022 -2.0209  0.8355 -0.5632
 6522TIP3   OH240980   5.731   6.424   1.995 -0.1319 -0.4123  0.1065
 6522TIP3    H140981   5.802   6.421   1.931 -2.4243  0.0218 -2.6086
 6522TIP3    H240982   5.708   6.517   2.001  1.9253  0.0731  3.9864
 6523TIP3   OH240983   4.183   3.459   4.113  0.1415 -0.2072 -0.4442
 6523TIP3    H140984   4.258   3.440   4.058  0.4935  0.7975 -0.3182
 6523TIP3    H240985   4.119   3.501   4.055 -0.2110 -0.7881 -0.4850
 6524TIP3   OH240986   1.043   3.530   2.051 -0.2248 -0.0001 -0.3949
 6524TIP3    H140987   1.006   3.618   2.044  1.8249  0.8357 -1.7311
 6524TIP3    H240988   1.127   3.543   2.096 -0.0038 -1.3072 -0.4093
 6525TIP3   OH240989   5.844   6.522   0.544  0.2321 -0.3207 -0.1421
 6525TIP3    H140990   5.879   6.463   0.477  0.9438 -1.6812  1.3518
 6525TIP3    H240991   5.754   6.540   0.515  0.7622 -0.2090 -1.8468
 6526TIP3   OH240992   0.190   0.412   3.320  0.0706  0.0910 -0.0492
 6526TIP3    H140993   0.102   0.388   3.292 -0.4573  1.1493  0.6557
 6526TIP3    H240994   0.216   0.340   3.379 -0.7650  0.3039  0.6036
 6527TIP3   OH240995   5.509   0.862  16.773  0.5127 -0.2672 -0.9084
 6527TIP3    H140996   5.583   0.896  16.823  0.9725  0.2874 -1.9295
 6527TIP3    H240997   5.517   0.905  16.687 -0.4720 -0.8953 -1.3260
 6528TIP3   OH240998   1.559   2.698   2.206  0.2040 -0.2441  0.4848
 6528TIP3    H140999   1.511   2.730   2.130  1.0964  0.9547  0.4063
 6528TIP3    H241000   1.567   2.603   2.191  1.6779  0.1415 -1.7115
 6529TIP3   OH241001   5.730   3.740  17.112 -0.2727 -0.1476 -0.4260
 6529TIP3    H141002   5.717   3.742  17.207 -0.2088 -0.1635 -0.4163
 6529TIP3    H241003   5.673   3.808  17.078  1.0798  1.1601 -0.2100
 6530TIP3   OH241004   6.678   3.776   3.192 -0.3016 -0.6809  0.0919
 6530TIP3    H141005   6.753   3.812   3.240 -0.0626 -1.8831  0.6487
 6530TIP3    H241006   6.715   3.707   3.138 -0.8499 -0.5339 -0.4846
 6531TIP3   OH241007   6.373   4.693   3.975  0.0748 -0.8393  0.0392
 6531TIP3    H141008   6.332   4.774   3.943  0.2456 -0.6307  0.3387
 6531TIP3    H241009   6.460   4.694   3.933  0.0822 -0.8599  0.0541
 6532TIP3   OH241010   1.325   0.767  12.288 -0.2924 -0.1329 -0.4719
 6532TIP3    H141011   1.301   0.747  12.197  0.7623 -2.1497 -0.3733
 6532TIP3    H241012   1.380   0.693  12.315 -0.5923  0.4003  1.8232
 6533TIP3   OH241013   1.767   1.391   4.086 -0.2275  0.1482  0.6466
 6533TIP3    H141014   1.720   1.373   4.168 -1.2045 -1.7055 -0.2683
 6533TIP3    H241015   1.704   1.441   4.034 -0.7727 -1.2471 -0.0878
 6534TIP3   OH241016   0.423   5.615   1.702 -0.3586 -0.2926 -0.5520
 6534TIP3    H141017   0.471   5.627   1.784 -1.0419  0.6636 -0.2834
 6534TIP3    H241018   0.492   5.609   1.635  0.1526  1.1251 -0.1888
 6535TIP3   OH241019   5.772   2.390  14.299 -0.0497  0.6963  0.9883
 6535TIP3    H141020   5.775   2.369  14.392  1.3003  0.0754  0.8328
 6535TIP3    H241021   5.712   2.326  14.261 -0.5453  0.9075  1.4069
 6536TIP3   OH241022   3.905   5.237  13.629 -0.2372 -0.4018  0.1043
 6536TIP3    H141023   3.841   5.192  13.573  0.5685 -0.5037 -0.7643
 6536TIP3    H241024   3.935   5.311  13.577  1.4192 -1.1846 -0.1283
 6537TIP3   OH241025   2.290   3.368   6.154 -0.1787 -0.4435 -0.3593
 6537TIP3    H141026   2.288   3.460   6.125  0.6005  0.8163  3.0623
 6537TIP3    H241027   2.198   3.342   6.158 -0.9994  2.1261  3.5377
 6538TIP3   OH241028   1.996   4.691   3.245  0.1601 -0.0579 -0.5453
 6538TIP3    H141029   2.079   4.694   3.199 -0.9215 -0.5451 -2.6367
 6538TIP3    H241030   1.953   4.612   3.213  0.3091 -1.8770  3.1894
 6539TIP3   OH241031   2.496   0.265   3.277  0.0814 -0.2478  0.0785
 6539TIP3    H141032   2.573   0.250   3.223  0.7549  1.7486  0.3914
 6539TIP3    H241033   2.499   0.358   3.297 -2.3525 -0.1535  0.2334
 6540TIP3   OH241034   1.681   1.439  12.134 -0.6305  0.4936  0.3101
 6540TIP3    H141035   1.712   1.515  12.183 -0.5303  0.3223  0.5130
 6540TIP3    H241036   1.623   1.393  12.194  0.2415 -0.2464  0.6219
 6541TIP3   OH241037   0.807   1.788   5.953 -0.0085 -0.4770  0.0242
 6541TIP3    H141038   0.762   1.711   5.920  0.3783 -0.6297 -0.1475
 6541TIP3    H241039   0.893   1.785   5.912  0.7910 -1.1205  1.6979
 6542TIP3   OH241040   2.061   2.026  11.696 -0.2173 -0.7256 -0.0543
 6542TIP3    H141041   2.017   2.100  11.738  1.4098  0.4455 -0.3316
 6542TIP3    H241042   2.114   2.065  11.628  2.1400 -1.9171  0.9913
 6543TIP3   OH241043   3.320   2.767   1.455 -0.7938  0.3859  0.0288
 6543TIP3    H141044   3.337   2.781   1.362  0.9383 -2.7343 -0.2494
 6543TIP3    H241045   3.342   2.851   1.496 -0.0341  1.3432 -2.1997
 6544TIP3   OH241046   1.088   4.427   4.385 -0.1016  0.1017  0.2645
 6544TIP3    H141047   1.092   4.458   4.475 -0.5128 -0.3178  0.4294
 6544TIP3    H241048   1.170   4.455   4.346 -0.4644  1.4350  0.4016
 6545TIP3   OH241049   1.758   2.294  16.289 -0.3746  0.0830  0.4562
 6545TIP3    H141050   1.699   2.241  16.343 -1.3329  0.5294 -0.1273
 6545TIP3    H241051   1.767   2.244  16.208 -0.2157  0.1768  0.4165
 6546TIP3   OH241052   4.195   1.923   0.996  0.4162  0.2539  0.0461
 6546TIP3    H141053   4.228   1.970   1.073 -0.4390  3.4171 -1.3399
 6546TIP3    H241054   4.273   1.889   0.953  1.1312  0.7156  0.9360
 6547TIP3   OH241055   4.639   4.567   5.658  0.3314  0.5541 -0.8888
 6547TIP3    H141056   4.557   4.593   5.701  0.5659 -1.0029  0.6626
 6547TIP3    H241057   4.618   4.565   5.565 -1.8070 -0.9959 -0.4576
 6548TIP3   OH241058   2.543   6.037   2.287  0.1895 -0.4062  0.5947
 6548TIP3    H141059   2.479   6.023   2.218 -0.9251  2.1255  1.0287
 6548TIP3    H241060   2.512   5.982   2.360 -1.2996  0.4793  0.6599
 6549TIP3   OH241061   3.084   1.738  15.914 -0.2434 -0.3080  0.2782
 6549TIP3    H141062   2.996   1.738  15.877 -0.2567 -0.2814  0.3094
 6549TIP3    H241063   3.073   1.773  16.002 -0.0698  0.5887 -0.0427
 6550TIP3   OH241064   5.351   2.905  12.438 -0.0014 -0.3779 -0.8210
 6550TIP3    H141065   5.397   2.883  12.357 -3.1597  1.3032 -3.2822
 6550TIP3    H241066   5.376   2.996  12.456  0.3798 -0.6186 -0.0840
 6551TIP3   OH241067   0.157   6.662   5.513  0.2093 -0.2785 -0.2900
 6551TIP3    H141068   0.152   6.758   5.510  2.8491 -0.0284  0.9743
 6551TIP3    H241069   0.166   6.636   5.421  0.0475  0.7298 -0.6062
 6552TIP3   OH241070   0.513   2.707   3.201  0.3275  0.4345 -0.1054
 6552TIP3    H141071   0.579   2.658   3.249 -1.4895  0.3881  2.5585
 6552TIP3    H241072   0.510   2.792   3.245 -0.9514  0.6421 -0.5683
 6553TIP3   OH241073   3.436   6.282   0.051  0.2836  0.3363 -0.3098
 6553TIP3    H141074   3.530   6.285   0.069  0.3961  2.9154 -1.0422
 6553TIP3    H241075   3.395   6.308   0.134  0.2117 -0.2397 -0.1568
 6554TIP3   OH241076   4.825   5.583  17.015  0.1336 -0.4439 -0.6634
 6554TIP3    H141077   4.905   5.636  17.009  1.6492 -2.5784 -0.1194
 6554TIP3    H241078   4.779   5.617  17.092  0.3388  0.9796 -1.1319
 6555TIP3   OH241079   1.905   3.649  13.209 -0.0257  0.2460 -0.0063
 6555TIP3    H141080   1.847   3.658  13.133  0.0479 -0.7238 -0.1817
 6555TIP3    H241081   1.849   3.613  13.278 -0.0418  0.9282  0.3491
 6556TIP3   OH241082   1.753   2.694   0.305 -0.0891  0.0328 -0.0480
 6556TIP3    H141083   1.667   2.716   0.269 -0.6462 -1.0499  0.5737
 6556TIP3    H241084   1.812   2.760   0.268 -1.3323  1.3614  0.2166
 6557TIP3   OH241085   4.715   3.195  14.470 -0.0228 -0.6354 -0.2448
 6557TIP3    H141086   4.703   3.152  14.385  1.0464 -2.0493  0.2787
 6557TIP3    H241087   4.660   3.145  14.530  0.7436 -0.9089  0.2511
 6558TIP3   OH241088   2.694   5.587  16.617 -0.2156 -0.3720 -0.2919
 6558TIP3    H141089   2.733   5.558  16.699 -0.9890  0.5873  0.4428
 6558TIP3    H241090   2.738   5.670  16.598 -1.7546  0.6706  0.4951
 6559TIP3   OH241091   4.316   3.009   1.203 -0.0873 -0.0032 -0.1085
 6559TIP3    H141092   4.372   2.999   1.280 -0.3295 -1.1209 -0.0516
 6559TIP3    H241093   4.353   2.948   1.139  0.8987  1.8399 -1.3773
 6560TIP3   OH241094   3.598   0.269  17.050  0.5638  0.7442 -0.3545
 6560TIP3    H141095   3.681   0.277  17.097  0.5971  1.0914 -0.4644
 6560TIP3    H241096   3.575   0.360  17.029 -0.5730  0.7772  0.9270
 6561TIP3   OH241097   6.772   0.745  12.335  0.3597  0.2186  0.8402
 6561TIP3    H141098   6.833   0.819  12.333  0.6152 -0.0042 -0.1440
 6561TIP3    H241099   6.764   0.718  12.244  0.1707 -0.8959  1.1713
 6562TIP3   OH241100   5.377   2.802   0.883 -0.3042 -0.0993  0.4249
 6562TIP3    H141101   5.467   2.775   0.864  1.1086  2.1502  3.2756
 6562TIP3    H241102   5.372   2.892   0.853 -1.7187 -0.2593  0.1111
 6563TIP3   OH241103   5.036   5.882  15.597 -0.4072 -0.4634  0.1207
 6563TIP3    H141104   5.036   5.894  15.692  0.2370 -3.0090  0.5199
 6563TIP3    H241105   5.030   5.787  15.585 -2.3409 -0.1301 -2.4353
 6564TIP3   OH241106   4.353   4.756   2.999  0.0028 -0.3553  0.1079
 6564TIP3    H141107   4.288   4.822   3.022  1.6475  0.8170  1.6544
 6564TIP3    H241108   4.330   4.680   3.052  0.2240  0.2523  1.0913
 6565TIP3   OH241109   1.071   2.030  14.661 -0.0799 -0.0896  0.0004
 6565TIP3    H141110   1.006   2.009  14.728 -0.3837 -1.6362 -0.7204
 6565TIP3    H241111   1.033   1.995  14.580  1.2178 -0.1580 -0.5989
 6566TIP3   OH241112   3.429   4.535   6.435 -0.4111  0.6420  0.6861
 6566TIP3    H141113   3.355   4.476   6.418  0.3038  0.4400 -2.4571
 6566TIP3    H241114   3.488   4.484   6.490  0.1539 -1.7213 -1.8717
 6567TIP3   OH241115   5.641   3.942   1.586 -0.6137 -0.2208  0.0631
 6567TIP3    H141116   5.646   3.947   1.682 -0.1448 -0.9366  0.0806
 6567TIP3    H241117   5.549   3.921   1.568 -0.3749 -1.7074  0.4457
 6568TIP3   OH241118   0.127   0.880   4.660 -0.3087 -0.1877  0.8737
 6568TIP3    H141119   0.202   0.915   4.709  0.7744  2.3675 -2.2601
 6568TIP3    H241120   0.159   0.871   4.570 -3.7673  1.0724 -0.6384
 6569TIP3   OH241121   3.068   6.484  12.118  0.1261 -0.1109  0.1627
 6569TIP3    H141122   3.062   6.414  12.053  1.0231  0.2380 -0.3334
 6569TIP3    H241123   3.046   6.563  12.069  3.4258  0.5535 -0.5321
 6570TIP3   OH241124   5.775   4.034  13.536 -0.0237 -0.4508  0.1575
 6570TIP3    H141125   5.867   4.017  13.557  0.0647 -0.6557 -0.3794
 6570TIP3    H241126   5.730   4.033  13.620  0.5041 -0.1216  0.4461
 6571TIP3   OH241127   5.298   5.009  13.962  0.3171 -0.1921  0.0843
 6571TIP3    H141128   5.293   5.019  14.057  1.0996  0.8479  0.0361
 6571TIP3    H241129   5.386   4.976  13.945  0.3038 -0.0437 -0.2948
 6572TIP3   OH241130   5.398   2.563  13.050 -0.5985  0.4396 -0.7028
 6572TIP3    H141131   5.344   2.493  13.012 -1.1116  0.0030  0.7495
 6572TIP3    H241132   5.469   2.517  13.095  0.9280  1.0044 -2.4154
 6573TIP3   OH241133   5.205   5.874   1.428  0.3859  0.2925 -0.7891
 6573TIP3    H141134   5.120   5.831   1.422  0.0747  0.5818  0.9172
 6573TIP3    H241135   5.247   5.832   1.504  1.5452  0.5318 -1.2776
 6574TIP3   OH241136   4.430   5.519   6.507  0.2436  0.4034 -0.4833
 6574TIP3    H141137   4.425   5.614   6.492 -2.6619  0.4632  0.2096
 6574TIP3    H241138   4.405   5.481   6.423  3.3014  0.0939 -1.3647
 6575TIP3   OH241139   4.651   3.562   6.000 -0.1506 -0.7996  0.3992
 6575TIP3    H141140   4.717   3.608   6.052 -0.1857 -0.9890  0.6130
 6575TIP3    H241141   4.673   3.470   6.009 -1.0008 -0.9371  1.2554
 6576TIP3   OH241142   1.637   2.835   3.833  0.1688 -0.0478  0.1416
 6576TIP3    H141143   1.610   2.830   3.742  3.7230  1.1700 -1.1617
 6576TIP3    H241144   1.653   2.744   3.859  1.7461 -0.2585 -1.4137
 6577TIP3   OH241145   4.654   6.045  12.184 -0.1322  0.2821 -0.0899
 6577TIP3    H141146   4.584   5.994  12.143 -1.3307  1.7433  0.0564
 6577TIP3    H241147   4.629   6.051  12.276 -0.3830  1.6678 -0.2250
 6578TIP3   OH241148   1.825   0.431   3.142 -0.3408 -0.1847  0.4561
 6578TIP3    H141149   1.859   0.341   3.139 -0.2458 -0.2068  1.8325
 6578TIP3    H241150   1.737   0.424   3.103 -0.6414 -1.0264  1.2443
 6579TIP3   OH241151   0.399   1.998   2.564 -0.4683  0.0156  0.0338
 6579TIP3    H141152   0.417   2.086   2.530 -0.4141  0.2112  0.5642
 6579TIP3    H241153   0.352   1.955   2.493  1.3190 -0.2259 -1.0409
 6580TIP3   OH241154   5.326   1.053   3.498 -0.1572 -0.3303 -0.5493
 6580TIP3    H141155   5.257   1.104   3.456 -1.0954  0.2577  1.5486
 6580TIP3    H241156   5.399   1.113   3.507  0.1650 -0.5557 -1.5882
 6581TIP3   OH241157   2.824   1.327   4.796 -0.1369 -0.2477  0.1723
 6581TIP3    H141158   2.905   1.319   4.746 -1.2668 -1.0996 -1.6577
 6581TIP3    H241159   2.846   1.383   4.870  2.1306 -0.5687 -0.1964
 6582TIP3   OH241160   0.954   5.145  14.695  0.1311 -0.1358  0.4009
 6582TIP3    H141161   1.022   5.078  14.685 -0.5273 -0.7085 -0.3989
 6582TIP3    H241162   0.989   5.206  14.760  1.5201 -0.2747 -0.1931
 6583TIP3   OH241163   4.370   1.723  13.136  0.0269 -0.2056  0.2397
 6583TIP3    H141164   4.388   1.739  13.229  0.6138  0.7514 -0.0294
 6583TIP3    H241165   4.350   1.629  13.132  1.2914 -0.5522  1.1458
 6584TIP3   OH241166   5.321   3.461   3.747  0.0477  0.2678 -0.0570
 6584TIP3    H141167   5.348   3.497   3.663 -0.0312  1.4738  0.4245
 6584TIP3    H241168   5.246   3.405   3.727  1.0874 -0.8506 -1.0107
 6585TIP3   OH241169   0.571   6.233  13.858 -0.2451 -0.2402  0.4949
 6585TIP3    H141170   0.476   6.237  13.867 -0.0854  0.4190  2.0338
 6585TIP3    H241171   0.603   6.206  13.944  1.0420  0.8122  0.3720
 6586TIP3   OH241172   4.268   0.897   0.567  0.4369 -0.0523  0.3824
 6586TIP3    H141173   4.227   0.881   0.482  0.4485  0.5425  0.2610
 6586TIP3    H241174   4.280   0.992   0.571 -1.4253  0.1889  1.8967
 6587TIP3   OH241175   5.765   5.274  11.710  0.6480  0.1916 -0.1513
 6587TIP3    H141176   5.779   5.274  11.616  2.2743  0.9241  0.0574
 6587TIP3    H241177   5.691   5.334  11.723 -0.6270 -1.1280 -1.0518
 6588TIP3   OH241178   4.728   4.176  14.713 -0.2475 -0.3301 -0.1740
 6588TIP3    H141179   4.676   4.096  14.716 -0.6748 -0.0371  1.7603
 6588TIP3    H241180   4.801   4.156  14.654 -2.2735 -0.8850 -2.6492
 6589TIP3   OH241181   5.855   3.432  12.649  0.0411 -0.5715  0.2366
 6589TIP3    H141182   5.807   3.452  12.568  0.7503  2.3947  0.4343
 6589TIP3    H241183   5.787   3.409  12.712 -0.5990 -2.0177 -0.9131
 6590TIP3   OH241184   4.116   1.989   2.236  0.5444 -0.5351  0.6899
 6590TIP3    H141185   4.053   1.980   2.164  1.9600 -0.7123 -0.5887
 6590TIP3    H241186   4.111   2.081   2.260  1.4971  0.0281 -1.0813
 6591TIP3   OH241187   0.526   5.700  15.079 -0.3166 -0.4651  0.1914
 6591TIP3    H141188   0.592   5.657  15.133 -0.5196 -0.3585  0.5285
 6591TIP3    H241189   0.446   5.698  15.131 -0.0169  1.5233  0.8294
 6592TIP3   OH241190   5.009   5.188  13.473 -0.2708  0.6580  0.2526
 6592TIP3    H141191   5.083   5.248  13.490  1.0497 -0.8422  0.0450
 6592TIP3    H241192   4.981   5.211  13.384  0.3386  0.8733  0.1049
 6593TIP3   OH241193   0.671   1.144  15.087 -0.3551 -0.5271 -0.1418
 6593TIP3    H141194   0.713   1.081  15.028  1.7585  2.1846 -1.7562
 6593TIP3    H241195   0.625   1.205  15.029  1.3287  1.9160  0.9196
 6594TIP3   OH241196   3.078   0.795  10.280  0.0815 -0.5940 -0.2161
 6594TIP3    H141197   2.995   0.838  10.297 -0.0786 -1.4708  1.3429
 6594TIP3    H241198   3.144   0.858  10.310 -0.1041 -0.8080  0.6672
 6595TIP3   OH241199   1.864   3.343   0.808  0.3980 -0.1365  0.2290
 6595TIP3    H141200   1.877   3.279   0.878  1.7757 -1.1187 -0.8502
 6595TIP3    H241201   1.772   3.369   0.816 -0.1851 -2.1515  0.8128
 6596TIP3   OH241202   0.958   4.188  12.331  0.6055 -0.6943  0.0452
 6596TIP3    H141203   1.050   4.210  12.312  0.3045 -0.1309 -0.8518
 6596TIP3    H241204   0.962   4.134  12.410  1.5551  1.0739  1.2821
 6597TIP3   OH241205   6.040   0.180   0.349 -0.3236 -0.2851 -0.1385
 6597TIP3    H141206   5.967   0.125   0.322 -0.4203 -0.1637 -0.1296
 6597TIP3    H241207   6.030   0.190   0.443 -0.2417 -0.3443 -0.1232
 6598TIP3   OH241208   2.717   0.327  16.805  0.4130  0.0507 -0.5261
 6598TIP3    H141209   2.809   0.308  16.789  0.4518 -0.3099  0.0710
 6598TIP3    H241210   2.674   0.314  16.721  0.9297  0.3742 -0.8455
 6599TIP3   OH241211   0.347   0.383  16.015  0.1291 -0.3488 -0.2510
 6599TIP3    H141212   0.382   0.340  16.093  0.4031 -0.5977 -0.5073
 6599TIP3    H241213   0.257   0.351  16.008 -0.1345  0.2348  0.3685
 6600TIP3   OH241214   5.545   5.741   6.601 -0.1208  0.9900  0.7992
 6600TIP3    H141215   5.544   5.837   6.596 -0.3506  0.9254 -0.6724
 6600TIP3    H241216   5.602   5.722   6.676  2.6537  2.2384 -0.8553
 6601TIP3   OH241217   1.625   0.021  13.531  0.1286 -0.2611 -0.2970
 6601TIP3    H141218   1.614   0.116  13.538  0.0915 -0.2535 -0.4544
 6601TIP3    H241219   1.583  -0.002  13.448  0.7231 -0.3231 -0.5866
 6602TIP3   OH241220   0.615   4.116  12.421 -0.3173  0.0758 -0.6254
 6602TIP3    H141221   0.668   4.179  12.372  0.1426 -0.5728 -0.9830
 6602TIP3    H241222   0.603   4.043  12.361 -0.2456 -0.4781  0.0208
 6603TIP3   OH241223   3.476   3.931   3.317  0.4317  0.7099  0.4185
 6603TIP3    H141224   3.545   3.920   3.251  0.6095  1.5260  0.4496
 6603TIP3    H241225   3.405   3.874   3.288  0.9795  0.1309  0.1878
 6604TIP3   OH241226   1.758   4.518   2.638  0.1318  0.3542 -0.3693
 6604TIP3    H141227   1.841   4.549   2.673 -0.2487  0.6001  0.3260
 6604TIP3    H241228   1.732   4.447   2.697 -0.1821  0.3183 -0.5495
 6605TIP3   OH241229   2.430   4.492  12.954 -0.6651  0.0915 -0.5464
 6605TIP3    H141230   2.394   4.468  12.869  0.2044 -0.5814 -0.7432
 6605TIP3    H241231   2.525   4.499  12.939 -0.3055 -1.4875  0.6512
 6606TIP3   OH241232   3.117   1.981   6.367 -0.4829 -0.0277  0.3324
 6606TIP3    H141233   3.049   2.020   6.312 -0.7779 -1.5369 -0.4160
 6606TIP3    H241234   3.191   2.041   6.360 -0.6995  0.0841 -1.2842
 6607TIP3   OH241235   3.298   4.867  14.557 -0.1918  1.0087 -0.2826
 6607TIP3    H141236   3.294   4.911  14.472  0.1247  0.6955 -0.4623
 6607TIP3    H241237   3.259   4.781  14.542  0.4898  0.6955 -0.2794
 6608TIP3   OH241238   3.273   5.788   2.189  0.0609  0.2107  0.1097
 6608TIP3    H141239   3.270   5.705   2.237  1.4472  1.2837  2.1950
 6608TIP3    H241240   3.197   5.837   2.221 -0.4518 -0.0179 -0.7242
 6609TIP3   OH241241   6.563   2.070   5.374  0.3275 -0.0777  0.5114
 6609TIP3    H141242   6.635   2.102   5.428  0.0635 -0.2625  0.9752
 6609TIP3    H241243   6.593   1.986   5.341  0.5249  0.0768  0.2911
 6610TIP3   OH241244   3.335   3.870   1.443 -0.2868 -0.3188  0.6171
 6610TIP3    H141245   3.278   3.947   1.436 -1.6186 -1.3542 -0.1946
 6610TIP3    H241246   3.389   3.873   1.364  1.5568  1.1939  1.8370
 6611TIP3   OH241247   0.735   3.622  15.949 -0.1615 -0.0184 -0.2893
 6611TIP3    H141248   0.715   3.679  15.874  0.0842  2.8527  1.6345
 6611TIP3    H241249   0.652   3.617  15.996  0.0554 -0.5099  0.0330
 6612TIP3   OH241250   3.905   2.939   0.226 -0.1006  0.4156  0.8747
 6612TIP3    H141251   3.909   3.027   0.265 -0.4582  0.3132  1.1519
 6612TIP3    H241252   3.907   2.880   0.302 -2.9735  0.2478  0.9197
 6613TIP3   OH241253   6.199   6.059  15.202 -0.9247  0.0812  0.0341
 6613TIP3    H141254   6.206   5.971  15.165 -0.0558  0.1984 -0.1172
 6613TIP3    H241255   6.162   6.045  15.290 -0.0829 -0.5263  0.3102
 6614TIP3   OH241256   1.631   0.008   3.492  0.2444  0.2945 -1.1274
 6614TIP3    H141257   1.579   0.080   3.458  0.4491  0.6123 -0.7701
 6614TIP3    H241258   1.590  -0.071   3.456 -1.2263  0.4565  0.1142
 6615TIP3   OH241259   2.510   4.680   3.617 -0.6799 -0.2656 -0.3959
 6615TIP3    H141260   2.566   4.640   3.550 -0.2976 -1.5635  0.6562
 6615TIP3    H241261   2.432   4.625   3.619  0.0775 -1.3313  1.4384
 6616TIP3   OH241262   1.431   4.207   4.314  0.1403 -0.0708 -0.5620
 6616TIP3    H141263   1.355   4.181   4.366 -0.4718 -0.9775 -1.8419
 6616TIP3    H241264   1.506   4.176   4.363 -0.3813 -0.3179  0.0928
 6617TIP3   OH241265   6.265   6.440  13.576 -0.1187  0.0371  0.3290
 6617TIP3    H141266   6.186   6.474  13.534 -0.2154 -1.0412 -0.4032
 6617TIP3    H241267   6.309   6.517  13.611 -0.5879  0.8474 -0.8249
 6618TIP3   OH241268   2.975   4.747   2.783 -0.2862 -0.0961  0.0537
 6618TIP3    H141269   2.942   4.675   2.731 -0.4558 -1.8632  2.4427
 6618TIP3    H241270   2.925   4.742   2.865  3.3247 -0.6917  2.4442
 6619TIP3   OH241271   0.023   4.149  13.770  0.3505  0.2618  0.4864
 6619TIP3    H141272   0.014   4.055  13.782  0.7765  0.2712  0.9470
 6619TIP3    H241273  -0.060   4.186  13.801  0.4770  0.0924  1.0356
 6620TIP3   OH241274   5.822   2.150  13.273 -0.3973  0.4550  0.0161
 6620TIP3    H141275   5.768   2.076  13.300 -1.1197  1.3043  0.9438
 6620TIP3    H241276   5.870   2.118  13.196 -1.2803 -0.7147 -0.0642
 6621TIP3   OH241277   0.278   1.670   2.109  0.1607  0.2618 -0.2297
 6621TIP3    H141278   0.238   1.660   2.022 -2.6932  0.5681  0.9124
 6621TIP3    H241279   0.306   1.762   2.112 -1.6717  0.8741 -0.1789
 6622TIP3   OH241280   4.241   6.698   1.842 -0.4067  0.6739  0.2616
 6622TIP3    H141281   4.273   6.608   1.848 -2.3087 -0.0111  1.2193
 6622TIP3    H241282   4.202   6.714   1.928  1.4277  3.0895  0.7430
 6623TIP3   OH241283   1.032   5.136   5.239  0.1985  0.1696 -0.3106
 6623TIP3    H141284   0.951   5.162   5.284 -0.0325 -0.2040 -0.5038
 6623TIP3    H241285   1.018   5.162   5.149  0.0012 -0.5226 -0.4897
 6624TIP3   OH241286   0.047   5.539  12.455 -0.7141 -0.5147  0.1667
 6624TIP3    H141287  -0.018   5.473  12.477 -0.4471 -0.4645  1.1581
 6624TIP3    H241288   0.067   5.582  12.538 -1.6118  1.5023 -0.6044
 6625TIP3   OH241289   2.759   1.020  16.581  0.6734  0.0492 -0.1430
 6625TIP3    H141290   2.713   0.940  16.555  0.8362 -0.2298  0.4300
 6625TIP3    H241291   2.832   1.026  16.519  0.4417 -0.0365 -0.4305
 6626TIP3   OH241292   3.229   5.196   1.680  0.3620  0.0032  0.1313
 6626TIP3    H141293   3.288   5.231   1.613  0.8966 -1.1645 -0.0371
 6626TIP3    H241294   3.187   5.273   1.718  1.3752  0.8039 -0.3250
 6627TIP3   OH241295   0.073   5.447  15.110  0.1442  0.4473 -0.2442
 6627TIP3    H141296  -0.021   5.450  15.128  0.6266 -1.5614  3.8077
 6627TIP3    H241297   0.082   5.378  15.043 -1.2175  0.4089 -0.4145
 6628TIP3   OH241298   3.541   0.122  16.820  0.1293 -0.1486  0.3627
 6628TIP3    H141299   3.454   0.092  16.845 -0.2051  0.8526  0.4603
 6628TIP3    H241300   3.579   0.155  16.901  0.1609  0.4453  0.1113
 6629TIP3   OH241301   3.843   4.013   4.688 -0.3391 -0.5716  0.3121
 6629TIP3    H141302   3.858   3.927   4.727 -0.8779 -0.3093  1.1288
 6629TIP3    H241303   3.798   4.063   4.756  0.1718  0.4388 -0.0589
 6630TIP3   OH241304   0.379   2.030  15.182 -0.7597  0.2544 -0.0317
 6630TIP3    H141305   0.467   2.066  15.177 -0.7609  0.0838 -2.4966
 6630TIP3    H241306   0.329   2.096  15.232  0.3482  1.1966 -0.1276
 6631TIP3   OH241307   6.081   2.741  11.034 -0.2201 -0.2113  0.5650
 6631TIP3    H141308   6.170   2.765  11.063 -0.8640  0.5154  2.0371
 6631TIP3    H241309   6.061   2.661  11.082 -0.5856 -0.0346  0.7110
 6632TIP3   OH241310   2.469   2.318   5.374  0.1098  0.8832 -0.2492
 6632TIP3    H141311   2.539   2.295   5.313  1.3225  0.1073  1.3755
 6632TIP3    H241312   2.484   2.411   5.393 -0.0846  1.0469 -0.8716
 6633TIP3   OH241313   1.793   0.240  14.385  0.6637 -0.4198  0.2114
 6633TIP3    H141314   1.846   0.279  14.455 -0.9153 -0.3641  1.4348
 6633TIP3    H241315   1.715   0.294  14.381 -0.2196 -1.6752 -0.1303
 6634TIP3   OH241316   2.389   0.336  16.699  0.2023 -0.0495  0.5785
 6634TIP3    H141317   2.421   0.404  16.758 -0.5135 -0.4637  1.4796
 6634TIP3    H241318   2.457   0.328  16.632 -0.2224  2.3696 -0.2420
 6635TIP3   OH241319   1.476   5.997  15.154 -0.0407  0.1718  0.1979
 6635TIP3    H141320   1.534   5.928  15.186 -0.4605 -0.2044  0.1546
 6635TIP3    H241321   1.414   6.011  15.226  1.0628  1.6976  0.8956
 6636TIP3   OH241322   6.044   3.055   3.536 -0.4290 -0.1855  0.0111
 6636TIP3    H141323   5.982   3.074   3.606 -0.7508  0.4809 -0.4419
 6636TIP3    H241324   6.028   2.964   3.514 -1.1507 -0.0608 -0.0038
 6637TIP3   OH241325   3.130   4.447  15.437 -0.7285  0.0726 -0.3969
 6637TIP3    H141326   3.141   4.538  15.464  0.8622 -0.4434  0.8736
 6637TIP3    H241327   3.219   4.411  15.439 -1.4002 -1.6596 -0.2296
 6638TIP3   OH241328   0.598   4.769  15.841 -0.6239  0.6156  0.4148
 6638TIP3    H141329   0.620   4.862  15.834 -0.6177  0.6711  1.1068
 6638TIP3    H241330   0.560   4.747  15.756 -0.4915  1.2172  0.1959
 6639TIP3   OH241331   5.516   0.018  16.930 -0.6569 -0.4464 -0.0910
 6639TIP3    H141332   5.471  -0.065  16.914 -2.0514  0.5033 -1.3766
 6639TIP3    H241333   5.446   0.082  16.939  0.3980  0.6489  0.5857
 6640TIP3   OH241334   5.185   6.662  15.704 -0.8705  0.3920  0.0570
 6640TIP3    H141335   5.173   6.578  15.749  1.0809 -0.8221 -1.5109
 6640TIP3    H241336   5.273   6.690  15.730 -0.4622  0.6036 -1.4632
 6641TIP3   OH241337   5.398   2.525  13.544 -0.6186 -0.2064 -0.4081
 6641TIP3    H141338   5.441   2.549  13.462  0.9295  0.7988  0.6264
 6641TIP3    H241339   5.468   2.488  13.598 -1.6498 -1.0706  0.3953
 6642TIP3   OH241340   2.337   0.021   2.412 -0.3361  0.3527 -0.8882
 6642TIP3    H141341   2.335   0.109   2.448 -0.2109 -0.3784  1.0451
 6642TIP3    H241342   2.426   0.010   2.378  0.0588  0.5537  0.0470
 6643TIP3   OH241343   1.610   3.532   5.058 -0.5586  0.4463  0.0095
 6643TIP3    H141344   1.542   3.481   5.014  1.3875 -1.1450 -1.3908
 6643TIP3    H241345   1.608   3.502   5.149 -1.3238 -0.0246 -0.1571
 6644TIP3   OH241346   2.724   3.266   5.887 -0.2301  0.1913 -0.1452
 6644TIP3    H141347   2.817   3.245   5.877  0.1297  1.2316  0.8538
 6644TIP3    H241348   2.682   3.222   5.813  0.9740 -0.7666 -0.2935
 6645TIP3   OH241349   0.322   2.034  16.610  0.4736  0.4198  0.1418
 6645TIP3    H141350   0.349   2.066  16.696  0.2260  0.6809  0.1225
 6645TIP3    H241351   0.284   1.948  16.627  0.2520  0.5501  0.3196
 6646TIP3   OH241352   1.989   2.160   2.743  0.2054 -0.0766 -0.5741
 6646TIP3    H141353   1.898   2.189   2.733  0.2336  0.6133  0.9112
 6646TIP3    H241354   2.041   2.225   2.696  0.0169  0.2363 -0.3523
 6647TIP3   OH241355   5.560   6.634  13.833  0.4804  0.2394  0.3909
 6647TIP3    H141356   5.559   6.573  13.760 -1.0837  0.8080 -0.0845
 6647TIP3    H241357   5.562   6.578  13.911  2.4209 -0.3668 -0.0277
 6648TIP3   OH241358   2.295   5.280   1.995  0.1292 -0.3737 -0.2918
 6648TIP3    H141359   2.380   5.288   2.038 -0.2673 -2.0452  0.9027
 6648TIP3    H241360   2.277   5.186   1.993 -1.7421 -0.0620 -0.3673
 6649TIP3   OH241361   4.916   2.278   3.624 -0.6018  0.2694 -0.3193
 6649TIP3    H141362   4.978   2.253   3.693 -1.1543  1.5619  0.6804
 6649TIP3    H241363   4.880   2.195   3.593  2.7394 -0.7277 -2.0907
 6650TIP3   OH241364   4.585   4.708  14.036 -0.4066 -0.0093 -0.2971
 6650TIP3    H141365   4.644   4.776  14.068  0.6760 -1.1368  0.2006
 6650TIP3    H241366   4.497   4.745  14.047  0.0862  0.7847  1.2383
 6651TIP3   OH241367   1.113   1.224   3.381 -0.3212  0.1362 -0.0169
 6651TIP3    H141368   1.109   1.193   3.291  1.9630  1.6289 -0.7211
 6651TIP3    H241369   1.042   1.287   3.388 -0.0791  0.5480 -1.0390
 6652TIP3   OH241370   1.737   2.321   2.746  0.3857 -0.2391 -0.1737
 6652TIP3    H141371   1.702   2.240   2.709 -0.7854  1.0069 -1.9406
 6652TIP3    H241372   1.677   2.343   2.818  0.9196 -1.0783  0.5580
 6653TIP3   OH241373   5.143   4.419   1.617  0.4707  0.0311  0.7562
 6653TIP3    H141374   5.077   4.412   1.685  0.7664  1.1567  1.1812
 6653TIP3    H241375   5.117   4.496   1.566 -0.3928 -1.4299 -1.1536
 6654TIP3   OH241376   0.507   4.933   2.054 -0.2851  0.6060 -0.6509
 6654TIP3    H141377   0.435   4.871   2.043 -0.8152  1.4932 -2.6853
 6654TIP3    H241378   0.464   5.016   2.076  0.0318  1.2529 -2.3417
 6655TIP3   OH241379   2.443   5.144   3.581 -0.0054 -0.5002 -0.3757
 6655TIP3    H141380   2.422   5.070   3.639  0.1197 -1.1193 -1.1030
 6655TIP3    H241381   2.442   5.106   3.493  0.4458  0.2865 -0.7280
 6656TIP3   OH241382   0.489   3.850  10.586  0.2393 -0.3862 -0.2345
 6656TIP3    H141383   0.572   3.826  10.543  0.0984 -1.9591  0.2837
 6656TIP3    H241384   0.456   3.767  10.621 -0.9168  0.4350  0.6949
 6657TIP3   OH241385   5.408   6.695  16.049 -0.4089 -0.1216 -0.1744
 6657TIP3    H141386   5.332   6.670  16.101  0.5952 -0.8953  0.9582
 6657TIP3    H241387   5.463   6.745  16.108  0.6229 -0.7660 -0.5644
 6658TIP3   OH241388   2.083   4.266   3.974  0.3080 -0.5069 -0.3023
 6658TIP3    H141389   2.025   4.197   3.942  0.5976 -1.3214  0.8643
 6658TIP3    H241390   2.171   4.227   3.971  0.5425 -0.0090 -0.1101
 6659TIP3   OH241391   0.848   2.160  10.704 -0.3394  0.2924 -0.1376
 6659TIP3    H141392   0.928   2.116  10.732 -0.9542 -2.4244 -2.1853
 6659TIP3    H241393   0.777   2.109  10.743 -1.1003  1.0526 -0.4903
 6660TIP3   OH241394   2.743   4.955  11.608 -0.4943 -0.4637 -0.3321
 6660TIP3    H141395   2.660   4.911  11.588  0.2170 -2.2316  0.3347
 6660TIP3    H241396   2.747   5.028  11.547 -2.1563 -0.8327 -0.9415
 6661TIP3   OH241397   4.414   2.862  15.727  0.3510  0.1719  0.2445
 6661TIP3    H141398   4.392   2.773  15.700  0.5112 -0.0189  0.7345
 6661TIP3    H241399   4.502   2.855  15.764 -0.2400  0.2490  1.6937
 6662TIP3   OH241400   1.263   3.089  12.643  0.1450 -0.1062 -0.1154
 6662TIP3    H141401   1.280   3.109  12.735 -0.3125 -0.4726  0.0535
 6662TIP3    H241402   1.226   3.170  12.608  0.1609 -0.0178  0.0689
 6663TIP3   OH241403   2.171   0.175   2.948  0.2632 -0.4993 -0.5764
 6663TIP3    H141404   2.084   0.136   2.946  0.7514 -1.6111 -0.7810
 6663TIP3    H241405   2.194   0.179   3.041  0.2075 -0.6826 -0.5560
 6664TIP3   OH241406   0.484   6.639   4.787 -0.5908 -0.4256  0.1249
 6664TIP3    H141407   0.454   6.575   4.723  1.8936 -1.9756  0.3460
 6664TIP3    H241408   0.506   6.586   4.864  0.1097  0.8883  0.8645
 6665TIP3   OH241409   1.041   2.188   2.464 -0.2295 -0.5687 -0.2711
 6665TIP3    H141410   1.091   2.251   2.516  0.5584 -0.6016 -0.9671
 6665TIP3    H241411   0.953   2.226   2.458 -0.2986 -0.4946  0.9448
 6666TIP3   OH241412   3.542   3.013  12.470 -0.8625  0.2311 -0.2567
 6666TIP3    H141413   3.450   3.037  12.479 -0.2782  1.9543  2.6793
 6666TIP3    H241414   3.582   3.085  12.421 -0.8127  0.3307 -0.0727
 6667TIP3   OH241415   4.276   6.131  15.514 -0.2051  0.1911  0.6861
 6667TIP3    H141416   4.368   6.145  15.492 -0.8174  1.3832 -1.3253
 6667TIP3    H241417   4.266   6.174  15.599  0.3840  3.1983 -0.6262
 6668TIP3   OH241418   1.482   4.799   2.336 -0.1776  0.0502 -0.2638
 6668TIP3    H141419   1.404   4.744   2.330 -1.3944  1.6420  0.1048
 6668TIP3    H241420   1.550   4.741   2.371 -1.4855 -1.1085  0.4542
 6669TIP3   OH241421   0.179   6.428  14.412 -0.1611  0.0945 -0.0930
 6669TIP3    H141422   0.256   6.461  14.366 -0.9847  0.7098 -1.0823
 6669TIP3    H241423   0.192   6.456  14.503  0.2236  1.2279 -0.4805
 6670TIP3   OH241424   5.758   3.917  14.873 -0.5895 -0.2090 -0.2971
 6670TIP3    H141425   5.701   3.977  14.921 -0.0867 -0.2850  0.4150
 6670TIP3    H241426   5.704   3.841  14.854 -1.0692  0.2289 -0.7015
 6671TIP3   OH241427   5.042   1.998  13.912 -0.1666  0.3816 -0.2047
 6671TIP3    H141428   5.084   1.924  13.955 -1.8337 -0.8425 -0.5975
 6671TIP3    H241429   5.036   1.973  13.820 -5.1567 -1.3854  0.2869
 6672TIP3   OH241430   2.542   1.192  11.052 -0.2541  0.0437  0.1378
 6672TIP3    H141431   2.448   1.206  11.065 -0.7186 -1.4720 -1.2711
 6672TIP3    H241432   2.580   1.279  11.060 -1.3277  0.3453  3.6754
 6673TIP3   OH241433   4.556   3.272   4.607  0.5630 -0.1767 -0.2757
 6673TIP3    H141434   4.580   3.203   4.668  0.1249  1.0441  1.3497
 6673TIP3    H241435   4.528   3.226   4.528 -2.9429 -2.0923  1.8395
 6674TIP3   OH241436   6.664   6.370  15.579  0.3632  0.2570  0.0171
 6674TIP3    H141437   6.717   6.370  15.500  0.1728  2.1426 -0.1788
 6674TIP3    H241438   6.665   6.462  15.608 -3.4882  0.6501 -0.5296
 6675TIP3   OH241439   1.291   2.309  14.193  0.8381  0.1971 -0.0291
 6675TIP3    H141440   1.365   2.253  14.214  1.8715  0.8898 -1.6097
 6675TIP3    H241441   1.313   2.394  14.232  0.4428  0.1651  0.2678
 6676TIP3   OH241442   4.815   0.765  13.290  0.3080  0.4430 -0.4548
 6676TIP3    H141443   4.720   0.770  13.284  0.0919 -1.7813  0.4163
 6676TIP3    H241444   4.835   0.789  13.381  0.2206 -2.3075  0.3713
 6677TIP3   OH241445   1.327   5.553   3.644 -0.3445 -0.4803 -0.3341
 6677TIP3    H141446   1.267   5.607   3.591  0.6127  0.5919 -0.3726
 6677TIP3    H241447   1.411   5.599   3.639  1.0578 -2.9815 -1.9495
 6678TIP3   OH241448   6.180   0.689  14.682 -0.1612  0.5600  0.2574
 6678TIP3    H141449   6.259   0.660  14.728  1.0365  1.1282 -1.3291
 6678TIP3    H241450   6.207   0.694  14.590 -1.9658  1.0970 -0.2762
 6679TIP3   OH241451   1.220   2.457   3.112  0.4924 -0.2059 -0.5249
 6679TIP3    H141452   1.248   2.524   3.174  2.4182 -0.5466 -0.9682
 6679TIP3    H241453   1.298   2.437   3.060  0.1886 -3.2250 -0.0226
 6680TIP3   OH241454   5.692   1.370  16.068 -0.0529  0.0446  0.0446
 6680TIP3    H141455   5.721   1.280  16.087  2.4733  1.0508  1.4506
 6680TIP3    H241456   5.725   1.421  16.142 -0.8925  2.2418 -1.0377
 6681TIP3   OH241457   6.543   4.481   5.179  0.0243 -0.6984 -0.0390
 6681TIP3    H141458   6.591   4.405   5.211  1.7221  0.4274  0.2738
 6681TIP3    H241459   6.563   4.550   5.243 -1.9023 -0.1159 -0.0133
 6682TIP3   OH241460   3.549   0.544  12.780  0.1696 -0.1956 -0.2500
 6682TIP3    H141461   3.522   0.456  12.806 -0.2897 -0.1548 -0.5835
 6682TIP3    H241462   3.641   0.534  12.756 -0.3034 -0.9379 -1.8778
 6683TIP3   OH241463   3.724   5.347  16.880 -0.5672  0.0760 -0.6335
 6683TIP3    H141464   3.765   5.419  16.830  0.7420  0.3017  0.6957
 6683TIP3    H241465   3.755   5.268  16.836  1.9571  0.2144  0.7067
 6684TIP3   OH241466   4.033   1.791   2.441  0.5410 -0.0205  0.6809
 6684TIP3    H141467   3.982   1.818   2.518  0.7626 -0.6678  1.0601
 6684TIP3    H241468   4.080   1.870   2.415  0.6521  0.1487  1.3634
 6685TIP3   OH241469   0.372   4.367   0.620  0.0524 -0.0623 -0.0478
 6685TIP3    H141470   0.423   4.291   0.592 -0.4570 -1.1310  1.7832
 6685TIP3    H241471   0.291   4.360   0.570  0.8849  0.5713 -1.5470
 6686TIP3   OH241472   5.402   3.714   1.492 -0.0208 -0.4118 -0.3539
 6686TIP3    H141473   5.358   3.796   1.511  2.1546  1.1935 -1.7111
 6686TIP3    H241474   5.445   3.729   1.407  0.6402 -2.8680 -0.5370
 6687TIP3   OH241475   3.391   2.762   0.759  0.5025 -0.1160  0.0754
 6687TIP3    H141476   3.405   2.669   0.739  0.5512 -0.6868  2.4955
 6687TIP3    H241477   3.301   2.779   0.730  0.3569 -1.0072 -0.0476
 6688TIP3   OH241478   0.366   4.238  14.827 -0.2955  0.0608  0.9258
 6688TIP3    H141479   0.320   4.159  14.856 -2.8331  0.4911 -1.4855
 6688TIP3    H241480   0.309   4.310  14.853  0.1164  0.8079 -0.1531
 6689TIP3   OH241481   2.488   4.164   5.658 -0.5244 -0.0260 -0.0295
 6689TIP3    H141482   2.436   4.191   5.581  0.1515 -1.9594 -1.2310
 6689TIP3    H241483   2.531   4.083   5.630  0.1213 -0.5246  2.2623
 6690TIP3   OH241484   1.919   5.884  12.004  0.2838  0.6988 -0.1938
 6690TIP3    H141485   1.989   5.935  11.962  0.0504  0.3787 -0.9869
 6690TIP3    H241486   1.840   5.934  11.988  0.4405  1.5425  1.5218
 6691TIP3   OH241487   1.864   5.942  13.499 -0.3605 -0.0707 -0.1263
 6691TIP3    H141488   1.910   5.894  13.567 -0.1552 -0.4720 -0.5445
 6691TIP3    H241489   1.920   5.935  13.422 -0.0402  1.3473 -0.0468
 6692TIP3   OH241490   3.562   1.981   0.701 -0.5986 -0.0343  0.1556
 6692TIP3    H141491   3.585   2.038   0.628 -1.3276 -0.5009 -0.4564
 6692TIP3    H241492   3.590   1.894   0.673  2.4550  0.2466  1.9377
 6693TIP3   OH241493   4.532   3.139  13.788 -0.0707 -0.3038 -0.3764
 6693TIP3    H141494   4.502   3.229  13.805  2.3985  0.2679  1.5334
 6693TIP3    H241495   4.622   3.150  13.755  0.1169 -2.0826 -0.5486
 6694TIP3   OH241496   2.875   0.915   4.759  0.4667  0.3102 -0.5005
 6694TIP3    H141497   2.853   0.965   4.838  0.2293  0.8319 -0.8915
 6694TIP3    H241498   2.808   0.940   4.695  1.0577  0.4226 -1.0855
 6695TIP3   OH241499   4.122   6.662  16.218  0.5830 -0.1446  0.2795
 6695TIP3    H141500   4.144   6.752  16.238  1.6704 -0.3842  0.1995
 6695TIP3    H241501   4.187   6.634  16.154 -0.4471 -0.6303 -0.5905
 6696TIP3   OH241502   4.205   6.258  10.958  0.2309  0.0738 -0.6730
 6696TIP3    H141503   4.241   6.278  10.872  2.3188  1.6200  0.4562
 6696TIP3    H241504   4.144   6.330  10.976  1.1099  0.7265 -0.1997
 6697TIP3   OH241505   4.517   2.427   5.231  0.2346  0.1698  0.0099
 6697TIP3    H141506   4.549   2.467   5.312  0.9753 -0.2765 -0.0563
 6697TIP3    H241507   4.537   2.334   5.240 -0.4943 -0.0246 -0.3059
 6698TIP3   OH241508   0.409   3.227  16.511  0.2580  0.8168 -0.2075
 6698TIP3    H141509   0.379   3.164  16.445 -1.9987  1.4307  0.1325
 6698TIP3    H241510   0.384   3.312  16.474  2.5129  1.5025 -0.2819
 6699TIP3   OH241511   3.717   1.932  16.309  0.0537  0.5091  0.3761
 6699TIP3    H141512   3.767   2.004  16.270  1.4675 -1.1330 -1.0333
 6699TIP3    H241513   3.783   1.878  16.352 -0.5796 -1.2333 -0.7386
 6700TIP3   OH241514   1.788   3.043   2.449  0.2010  0.6284  0.2792
 6700TIP3    H141515   1.796   2.987   2.526  0.9353  1.9390  1.2087
 6700TIP3    H241516   1.708   3.015   2.406 -0.0459 -0.3488  1.3509
 6701TIP3   OH241517   0.069   4.852   1.274 -0.8389  0.6743 -0.0862
 6701TIP3    H141518   0.086   4.831   1.366  1.0461  0.8576 -0.3543
 6701TIP3    H241519   0.003   4.788   1.247  0.3092 -0.9432  0.7632
 6702TIP3   OH241520   4.006   1.359  15.444  0.1420 -0.3755  0.0368
 6702TIP3    H141521   4.005   1.264  15.432 -0.0968 -0.4688  0.7773
 6702TIP3    H241522   4.099   1.383  15.437  0.3072 -0.7827  0.7669
 6703TIP3   OH241523   0.022   1.658   6.263 -0.0030  0.4645  0.2561
 6703TIP3    H141524  -0.022   1.690   6.341  0.0235 -0.0040  0.4659
 6703TIP3    H241525   0.108   1.698   6.265 -0.2312  0.9747  0.1163
 6704TIP3   OH241526   4.597   4.487  14.500  0.1271 -0.1635 -0.0318
 6704TIP3    H141527   4.666   4.547  14.472  0.3756 -0.7924 -0.8133
 6704TIP3    H241528   4.517   4.521  14.458 -0.5074  1.7462  2.4686
 6705TIP3   OH241529   2.309   2.449  14.295 -0.0772 -0.4131 -0.2839
 6705TIP3    H141530   2.378   2.491  14.243 -0.6060 -0.0352 -0.6930
 6705TIP3    H241531   2.343   2.449  14.384 -0.5898  2.1548 -0.0088
 6706TIP3   OH241532   1.040   0.274  16.859 -0.5215 -0.0975 -0.2943
 6706TIP3    H141533   0.961   0.229  16.888 -0.4245 -0.9694 -1.3131
 6706TIP3    H241534   1.015   0.312  16.774  0.0909 -0.2106 -0.5247
 6707TIP3   OH241535   2.871   0.156  11.230  0.2643  0.5072 -0.1598
 6707TIP3    H141536   2.960   0.121  11.240 -0.0620  0.0026  1.4026
 6707TIP3    H241537   2.818   0.081  11.203  0.2058  0.6738 -0.5165
 6708TIP3   OH241538   4.584   0.765  13.931 -0.3491  0.0879 -0.1129
 6708TIP3    H141539   4.630   0.795  14.010 -0.1891 -0.4591  0.0021
 6708TIP3    H241540   4.491   0.780  13.951 -0.3029  0.0515  0.1417
 6709TIP3   OH241541   1.824   1.956  15.955 -0.4901  0.6757  0.0648
 6709TIP3    H141542   1.895   1.933  15.895 -0.4944 -0.0792  0.3346
 6709TIP3    H241543   1.815   2.051  15.946  0.0144  0.6736 -0.5633
 6710TIP3   OH241544   5.156   4.567  10.673  0.2485 -0.3249 -0.5866
 6710TIP3    H141545   5.229   4.509  10.696  1.1563  1.4140  1.2873
 6710TIP3    H241546   5.083   4.508  10.656  1.1838 -2.0481  1.0078
 6711TIP3   OH241547   0.828   0.867  13.930  0.2312  0.2149  0.4886
 6711TIP3    H141548   0.750   0.815  13.950 -0.6854  0.6142 -1.8041
 6711TIP3    H241549   0.838   0.859  13.835  1.2806  2.5463  0.3535
 6712TIP3   OH241550   2.223   0.205  16.881  0.2753  0.2846  0.4781
 6712TIP3    H141551   2.195   0.285  16.925 -0.4538 -0.1992  0.9060
 6712TIP3    H241552   2.286   0.235  16.815 -2.0283  1.5472 -1.2828
 6713TIP3   OH241553   4.090   4.457   1.655  0.3230 -0.0081  0.2378
 6713TIP3    H141554   4.043   4.417   1.728 -0.6332 -2.6835 -1.6956
 6713TIP3    H241555   4.166   4.401   1.642  0.7241  0.6974 -0.5247
 6714TIP3   OH241556   6.067   5.225  13.165 -0.0313 -0.0506 -0.5801
 6714TIP3    H141557   6.027   5.312  13.163  0.8574  0.4066  0.3926
 6714TIP3    H241558   6.095   5.209  13.075  2.2818  1.9042 -0.2997
 6715TIP3   OH241559   2.806   4.069   6.549 -0.2705 -0.4376  0.2734
 6715TIP3    H141560   2.797   4.019   6.630  1.1751  0.4095  1.0039
 6715TIP3    H241561   2.873   4.022   6.499  0.9721  0.6215  0.8901
 6716TIP3   OH241562   6.057   6.272   3.493 -0.3345 -0.6449  0.3765
 6716TIP3    H141563   6.042   6.328   3.568  2.9390 -1.9631  2.2334
 6716TIP3    H241564   6.012   6.190   3.514 -0.6878 -0.5019  0.1774
 6717TIP3   OH241565   2.498   5.844  12.208  0.2121  0.3828 -0.1165
 6717TIP3    H141566   2.550   5.849  12.289  0.6303  1.4010 -0.4344
 6717TIP3    H241567   2.556   5.803  12.145  0.0444 -0.0019 -0.0188
 6718TIP3   OH241568   3.332   4.797   2.258  0.4664 -0.3851  0.3240
 6718TIP3    H141569   3.348   4.883   2.296 -0.0014 -0.7297  1.3333
 6718TIP3    H241570   3.351   4.808   2.165 -0.6000  1.0873  0.2484
 6719TIP3   OH241571   0.670   6.483  13.787 -0.1189 -0.0994 -0.2990
 6719TIP3    H141572   0.589   6.533  13.790 -0.1658 -0.1974  0.0473
 6719TIP3    H241573   0.643   6.392  13.799  0.1471 -0.0239  0.9422
 6720TIP3   OH241574   2.437   3.293   3.979  0.0088 -0.2179  0.2116
 6720TIP3    H141575   2.486   3.298   4.061 -1.2257  2.2985  0.9225
 6720TIP3    H241576   2.357   3.343   3.996 -0.1825  0.6385 -2.5775
 6721TIP3   OH241577   0.865   1.312  12.214  0.2153 -0.1616 -0.4573
 6721TIP3    H141578   0.796   1.348  12.158 -0.5072 -2.1367 -0.9285
 6721TIP3    H241579   0.870   1.219  12.190  0.8426 -0.7856  1.8020
 6722TIP3   OH241580   5.525   4.945  11.605 -0.4981  0.5149 -0.1003
 6722TIP3    H141581   5.471   5.023  11.614 -1.7020 -0.3362  0.4482
 6722TIP3    H241582   5.584   4.964  11.532 -0.9779  1.8011 -0.1741
 6723TIP3   OH241583   0.453   5.625  15.471 -0.6018  0.4213  0.4000
 6723TIP3    H141584   0.397   5.565  15.423  0.3425  0.3852 -0.6843
 6723TIP3    H241585   0.539   5.618  15.429 -0.0389  1.2435  1.3574
 6724TIP3   OH241586   1.823   4.783   2.260 -0.2477  0.3245 -0.3662
 6724TIP3    H141587   1.899   4.750   2.307 -1.4423  0.7173  1.9919
 6724TIP3    H241588   1.753   4.721   2.282 -0.5181 -0.4617 -3.0842
 6725TIP3   OH241589   3.086   0.872  11.380 -0.0931  0.4444 -0.0095
 6725TIP3    H141590   3.010   0.867  11.438  0.5640  0.5172  0.8758
 6725TIP3    H241591   3.112   0.964  11.383  1.4013  0.0198  1.5278
 6726TIP3   OH241592   0.536   5.722   4.945  0.1322 -0.3082  0.4447
 6726TIP3    H141593   0.614   5.716   4.890  0.4948  0.2091  0.9011
 6726TIP3    H241594   0.466   5.745   4.884  0.0904 -1.9227 -0.1696
 6727TIP3   OH241595   0.788   1.984   3.817 -0.1074 -0.2293  0.3002
 6727TIP3    H141596   0.821   1.908   3.866 -2.0109 -1.3381 -0.0260
 6727TIP3    H241597   0.793   1.958   3.725 -0.6000  0.0975  0.1721
 6728TIP3   OH241598   4.461   5.556  12.859  0.6513  0.3485  0.0441
 6728TIP3    H141599   4.491   5.566  12.769 -0.7727 -0.6914 -0.5900
 6728TIP3    H241600   4.521   5.610  12.911  2.8720 -0.7484 -1.2426
 6729TIP3   OH241601   3.989   2.278  12.478  0.4459 -0.6367  0.4490
 6729TIP3    H141602   3.962   2.366  12.452 -0.0576 -1.1280 -0.7872
 6729TIP3    H241603   3.929   2.220  12.431  1.2463 -1.6645  0.6544
 6730TIP3   OH241604   2.572   3.328  14.697  0.1330 -0.7625 -0.2876
 6730TIP3    H141605   2.519   3.255  14.729  0.8899 -1.5369 -0.7534
 6730TIP3    H241606   2.519   3.406  14.713 -1.2474 -1.5324 -0.9546
 6731TIP3   OH241607   1.601   2.233  14.739  0.6283  0.3190 -0.4715
 6731TIP3    H141608   1.662   2.270  14.675 -0.9491  1.6216 -1.2985
 6731TIP3    H241609   1.526   2.204  14.687  0.2120 -0.5922  0.5893
 6732TIP3   OH241610   1.320   1.128  11.910  0.3747 -0.2175 -0.1374
 6732TIP3    H141611   1.279   1.161  11.990 -0.8941 -0.2469 -0.7568
 6732TIP3    H241612   1.249   1.127  11.846 -0.2531 -5.8027  0.1809
 6733TIP3   OH241613   3.605   4.708  14.375  0.0204 -0.4261 -0.4490
 6733TIP3    H141614   3.580   4.791  14.334  1.5810 -1.0018 -2.6979
 6733TIP3    H241615   3.572   4.715  14.465  0.1002  2.6026 -0.5745
 6734TIP3   OH241616   2.787   4.146   2.027  0.4399  0.4687  0.1124
 6734TIP3    H141617   2.787   4.170   2.119 -0.1012 -0.1074  0.2717
 6734TIP3    H241618   2.696   4.122   2.008  1.1884 -3.4643  0.5484
 6735TIP3   OH241619   4.842   0.163  12.557 -0.0845 -0.4691  0.0517
 6735TIP3    H141620   4.786   0.143  12.483 -0.9850 -0.9559  0.8408
 6735TIP3    H241621   4.849   0.259  12.557 -0.3885 -0.4480 -0.4342
 6736TIP3   OH241622   1.010   2.983  15.851 -0.5615  0.2681  0.4689
 6736TIP3    H141623   0.942   3.041  15.817 -1.3507 -1.0068 -0.2228
 6736TIP3    H241624   0.984   2.896  15.821  1.0881 -0.3294  0.6738
 6737TIP3   OH241625   0.092   3.053   0.048  0.1586 -0.5019  0.8844
 6737TIP3    H141626   0.122   2.963   0.031  2.0133  0.3182 -0.4781
 6737TIP3    H241627   0.160   3.108   0.010 -2.2171  1.5133 -0.6872
 6738TIP3   OH241628   1.515   1.007   4.515 -0.5761 -0.1135 -0.2473
 6738TIP3    H141629   1.494   1.084   4.568 -2.3743 -0.0843 -0.9205
 6738TIP3    H241630   1.508   1.037   4.425 -0.1209 -0.7878 -0.5165
 6739TIP3   OH241631   2.055   0.037  15.392 -0.0774  0.1712  0.8175
 6739TIP3    H141632   2.100  -0.048  15.394  0.9317  0.6610 -0.2465
 6739TIP3    H241633   2.000   0.033  15.314 -0.6398  0.2193  1.2007
 6740TIP3   OH241634   2.459   0.034  17.006  0.1895  0.3557 -0.2095
 6740TIP3    H141635   2.395   0.105  17.007  1.2136  1.2949  1.2550
 6740TIP3    H241636   2.489   0.027  17.096  0.8410 -1.2923 -0.5149
 6741TIP3   OH241637   3.561   0.969  16.752  0.9336 -0.5964  0.3163
 6741TIP3    H141638   3.655   0.980  16.736  0.9508 -1.6176 -0.3493
 6741TIP3    H241639   3.520   1.027  16.688  1.1065  0.4423  1.1211
 6742TIP3   OH241640   6.456   3.269  12.553 -0.0147  0.3014 -0.0554
 6742TIP3    H141641   6.486   3.358  12.569  2.8514 -0.8715  2.0158
 6742TIP3    H241642   6.399   3.249  12.627  1.6476 -0.4435  1.0750
 6743TIP3   OH241643   2.481   2.287   4.904 -0.3519  0.0365 -0.1205
 6743TIP3    H141644   2.517   2.356   4.960  0.0947  0.1067 -0.4833
 6743TIP3    H241645   2.408   2.330   4.858  0.8438  0.7205 -1.4479
 6744TIP3   OH241646   3.874   1.068   5.467  0.1596  0.7774  0.1708
 6744TIP3    H141647   3.851   1.114   5.386 -1.8020 -0.2595  0.0717
 6744TIP3    H241648   3.870   0.975   5.444  1.9977  0.4709  0.8810
 6745TIP3   OH241649   6.618   0.162   2.592  0.0751 -0.4685  0.1134
 6745TIP3    H141650   6.578   0.076   2.580 -1.4629  0.3883 -1.4668
 6745TIP3    H241651   6.693   0.163   2.532 -0.0597 -0.6431 -0.0600
 6746TIP3   OH241652   1.260   0.925   0.492  0.4084 -0.2255  0.2486
 6746TIP3    H141653   1.263   0.985   0.567  0.8530  0.1733 -0.0779
 6746TIP3    H241654   1.232   0.980   0.419 -0.9206 -0.8126  0.2932
 6747TIP3   OH241655   0.230   6.659   3.537 -0.3255 -0.9196 -0.0645
 6747TIP3    H141656   0.240   6.620   3.624 -0.0560 -1.5576 -0.3736
 6747TIP3    H241657   0.316   6.650   3.497 -0.5136 -0.8500 -0.4910
 6748TIP3   OH241658   0.859   4.218   3.863 -0.3718 -0.3255 -0.2719
 6748TIP3    H141659   0.791   4.161   3.898  0.6150 -0.0385  2.3727
 6748TIP3    H241660   0.864   4.290   3.926  1.1694  0.5712 -1.3545
 6749TIP3   OH241661   4.713   2.831   3.067 -0.1424  0.5449  0.1955
 6749TIP3    H141662   4.702   2.824   3.162 -4.3542 -0.0036 -0.1669
 6749TIP3    H241663   4.710   2.925   3.050  0.7737  0.6555  0.5598
 6750TIP3   OH241664   3.547   6.497  11.345 -0.7593  0.2377 -0.2204
 6750TIP3    H141665   3.475   6.453  11.390 -3.2912  1.5147 -2.7078
 6750TIP3    H241666   3.504   6.550  11.277  2.5574  1.0449 -1.8890
 6751TIP3   OH241667   1.468   0.828  14.248 -0.0070  0.0202  0.0939
 6751TIP3    H141668   1.477   0.921  14.226 -0.4677 -0.2854 -1.5037
 6751TIP3    H241669   1.477   0.825  14.344 -2.4544  2.0316  0.4840
 6752TIP3   OH241670   5.836   3.302   3.923 -0.2509 -0.2840  0.4275
 6752TIP3    H141671   5.891   3.226   3.908 -2.5854 -2.1175  0.6282
 6752TIP3    H241672   5.868   3.368   3.861  2.8759 -0.7675  1.3759
 6753TIP3   OH241673   4.301   1.596  15.010  0.0691 -0.3296 -0.1842
 6753TIP3    H141674   4.374   1.572  15.068  0.5971 -0.7513 -1.0050
 6753TIP3    H241675   4.271   1.681  15.043  1.6421  0.3782 -0.4825
 6754TIP3   OH241676   4.836   4.837   1.576 -0.1559 -0.7282 -0.0537
 6754TIP3    H141677   4.836   4.933   1.572  0.7837 -0.6986  0.1633
 6754TIP3    H241678   4.874   4.818   1.662 -2.2179 -1.3051  0.7934
 6755TIP3   OH241679   5.951   1.632   3.522 -0.4926 -0.6729  0.1733
 6755TIP3    H141680   5.978   1.570   3.455 -1.4619 -0.4140 -0.4768
 6755TIP3    H241681   6.032   1.657   3.566  0.0254 -1.6195 -0.2275
 6756TIP3   OH241682   3.563   0.920  14.540  0.1504  0.1177 -0.4136
 6756TIP3    H141683   3.643   0.917  14.591 -0.1015 -1.7465 -0.0402
 6756TIP3    H241684   3.571   0.847  14.478 -1.3357 -0.2492 -0.2109
 6757TIP3   OH241685   1.416   4.953   1.035 -0.0544 -0.3553 -0.3008
 6757TIP3    H141686   1.380   4.943   0.947 -0.6619  0.6744 -0.1779
 6757TIP3    H241687   1.506   4.919   1.028  0.0829  0.2050 -1.4432
 6758TIP3   OH241688   0.763   2.554   0.755  0.0280  0.4472  0.3159
 6758TIP3    H141689   0.794   2.613   0.824  0.2599 -1.2332  1.7152
 6758TIP3    H241690   0.723   2.481   0.802 -0.4987 -0.3891 -1.3605
 6759TIP3   OH241691   3.167   5.884  13.232 -0.3688  0.3098  0.5865
 6759TIP3    H141692   3.203   5.961  13.187  0.7692  0.5819  1.8900
 6759TIP3    H241693   3.115   5.839  13.166  0.1469  1.4194 -0.6054
 6760TIP3   OH241694   5.094   3.352  13.412 -0.4593  0.3511  0.1186
 6760TIP3    H141695   5.152   3.407  13.359 -1.6307  1.5811  0.0588
 6760TIP3    H241696   5.148   3.324  13.485  0.3648  1.0239 -0.2098
 6761TIP3   OH241697   3.254   2.638   0.135  0.0579  0.0676 -0.3070
 6761TIP3    H141698   3.159   2.643   0.146 -0.0412  0.1628 -1.1489
 6761TIP3    H241699   3.267   2.628   0.041  0.8778 -0.1570 -0.1790
 6762TIP3   OH241700   0.450   1.997  13.109  0.5420  0.7749 -0.0893
 6762TIP3    H141701   0.453   1.901  13.103 -0.1527  0.6637  1.0560
 6762TIP3    H241702   0.463   2.015  13.202 -3.0456  1.5899  0.3649
 6763TIP3   OH241703   1.098   1.227  14.960  0.3362  0.3488  0.1382
 6763TIP3    H141704   1.164   1.187  14.903  0.2614 -2.0023  1.5774
 6763TIP3    H241705   1.059   1.296  14.906  1.5960 -0.4656 -1.9467
 6764TIP3   OH241706   2.919   5.720  12.164 -0.3966 -0.5806  0.7053
 6764TIP3    H141707   2.841   5.769  12.138  0.6258  1.1872  0.8865
 6764TIP3    H241708   2.933   5.743  12.255  0.0037 -1.3825  0.8630
 6765TIP3   OH241709   5.213   3.960  12.429 -0.0159  0.1778 -0.1341
 6765TIP3    H141710   5.222   3.965  12.524  1.3937 -1.7956 -0.1102
 6765TIP3    H241711   5.146   3.894  12.414  0.7432 -0.5225 -0.5007
 6766TIP3   OH241712   1.398   1.617  12.184  0.6103 -0.3783 -0.5960
 6766TIP3    H141713   1.319   1.665  12.208  1.4023  1.8623 -2.0997
 6766TIP3    H241714   1.385   1.592  12.092  1.4053 -0.4495 -0.7023
 6767TIP3   OH241715   5.677   2.919  11.304  0.5652 -0.0720  0.1585
 6767TIP3    H141716   5.641   2.941  11.218 -0.8784 -0.0830  0.7358
 6767TIP3    H241717   5.752   2.978  11.315  1.3371 -0.6915 -1.4705
 6768TIP3   OH241718   2.040   0.659   0.715  0.6932  0.3191  0.1247
 6768TIP3    H141719   2.119   0.606   0.704  0.8553  0.7766 -1.0479
 6768TIP3    H241720   1.974   0.598   0.747  1.5451 -0.0424  1.2482
 6769TIP3   OH241721   6.054   0.600   2.360  0.6942 -0.4612  0.0752
 6769TIP3    H141722   6.031   0.563   2.446 -0.1154  0.0875  0.1152
 6769TIP3    H241723   5.973   0.642   2.331  1.6760  1.7162  0.2798
 6770TIP3   OH241724   1.289   6.283  10.646 -0.3589 -0.1404  0.0534
 6770TIP3    H141725   1.336   6.308  10.567 -1.8294 -0.8117 -1.0767
 6770TIP3    H241726   1.224   6.352  10.659  0.2097  0.2407  1.0049
 6771TIP3   OH241727   2.293   1.217   4.409 -0.3302  0.6758  0.0360
 6771TIP3    H141728   2.208   1.228   4.365 -0.5683 -0.8312  0.0720
 6771TIP3    H241729   2.273   1.230   4.502 -0.5263  0.3504  0.0426
 6772TIP3   OH241730   6.604   0.346   4.275  0.1942  0.0009 -0.0524
 6772TIP3    H141731   6.523   0.388   4.306  0.3744  1.0204 -0.9257
 6772TIP3    H241732   6.630   0.398   4.199  2.3409  0.4439  0.9304
 6773TIP3   OH241733   1.579   4.723   1.904 -0.9375  0.1398 -0.0575
 6773TIP3    H141734   1.501   4.683   1.864 -1.4673 -0.3128  1.3524
 6773TIP3    H241735   1.598   4.798   1.848 -0.7328 -1.2762 -1.9962
 6774TIP3   OH241736   6.000   3.298  13.990 -0.1721 -0.6516  0.0200
 6774TIP3    H141737   5.990   3.301  13.894  0.9302 -1.2756 -0.1288
 6774TIP3    H241738   5.911   3.313  14.023 -0.4204  0.5050 -1.0788
 6775TIP3   OH241739   3.595   3.759  14.059  0.0008  0.3210 -0.8116
 6775TIP3    H141740   3.672   3.703  14.051 -0.2841 -0.1466 -0.3337
 6775TIP3    H241741   3.608   3.807  14.140 -0.8741 -0.8111  0.0194
 6776TIP3   OH241742   0.482   5.933  12.895  0.7777  0.3856  0.2515
 6776TIP3    H141743   0.407   5.946  12.954 -0.7901 -0.9969 -1.3595
 6776TIP3    H241744   0.473   5.843  12.864  2.6388  0.4772 -0.6451
 6777TIP3   OH241745   1.810   1.974  11.554 -0.3400 -0.0049 -0.2216
 6777TIP3    H141746   1.799   1.937  11.642  0.8428 -1.9667 -0.8544
 6777TIP3    H241747   1.903   1.992  11.547 -0.5822  1.1543 -0.7350
 6778TIP3   OH241748   0.368   5.233   0.310  0.0687  0.0205 -0.2413
 6778TIP3    H141749   0.355   5.138   0.304  3.0707 -0.6164  1.4799
 6778TIP3    H241750   0.463   5.244   0.315 -0.0893  3.2675 -1.7421
 6779TIP3   OH241751   0.407   4.902  16.121  0.0214  0.2855 -0.3454
 6779TIP3    H141752   0.485   4.882  16.171  0.3131  1.4360 -0.3184
 6779TIP3    H241753   0.436   4.964  16.054 -1.0947  1.7944  0.5042
 6780TIP3   OH241754   1.468   4.985   5.283 -0.1103  0.3477 -0.3037
 6780TIP3    H141755   1.476   4.897   5.322 -1.7695  0.2849 -0.0414
 6780TIP3    H241756   1.554   5.001   5.243  0.5192 -1.0142  0.4200
 6781TIP3   OH241757   1.490   4.283  12.868 -0.2637  0.2029 -0.0646
 6781TIP3    H141758   1.525   4.215  12.926 -2.5151  0.1335  1.3611
 6781TIP3    H241759   1.530   4.265  12.783  0.6000 -1.7940  0.6951
 6782TIP3   OH241760   3.843   4.063   6.495  0.4166 -0.0596 -0.3295
 6782TIP3    H141761   3.924   4.054   6.445  0.1607 -1.0206 -0.5841
 6782TIP3    H241762   3.793   3.984   6.475  0.4087 -0.5989  1.6100
 6783TIP3   OH241763   4.126   3.649  17.116 -0.0717 -0.4257 -0.2677
 6783TIP3    H141764   4.207   3.624  17.162  0.1769 -1.3051 -1.1508
 6783TIP3    H241765   4.075   3.697  17.181  0.4176 -1.3485  0.8243
 6784TIP3   OH241766   1.980   1.208  15.868 -0.2755  0.1448  0.3648
 6784TIP3    H141767   2.029   1.131  15.898  0.1675  0.4780  0.5229
 6784TIP3    H241768   1.894   1.200  15.909 -0.4480 -0.6017 -0.1481
 6785TIP3   OH241769   6.766   6.228   6.002  0.2135  0.5135 -0.0085
 6785TIP3    H141770   6.679   6.242   6.041 -0.1287 -1.6883  0.1286
 6785TIP3    H241771   6.820   6.198   6.075  0.0507 -1.8477 -0.8010
 6786TIP3   OH241772   3.930   0.869  12.125 -0.3462  0.0577 -0.3700
 6786TIP3    H141773   3.926   0.956  12.086 -1.1241 -0.2644 -1.0541
 6786TIP3    H241774   3.868   0.817  12.074 -0.4183 -0.7191  0.4716
 6787TIP3   OH241775   4.335   5.566  13.308  0.1318 -0.0097 -0.9168
 6787TIP3    H141776   4.385   5.647  13.320 -0.4420  0.4386 -1.4892
 6787TIP3    H241777   4.269   5.588  13.243 -0.3998 -0.7819 -0.6520
 6788TIP3   OH241778   1.795   6.787  14.316 -0.0520  0.0399  0.1846
 6788TIP3    H141779   1.792   6.877  14.349  0.1481 -0.5794  2.0235
 6788TIP3    H241780   1.748   6.790  14.233  0.5632  1.9647 -0.1326
 6789TIP3   OH241781   2.017   2.676  13.619  0.2456 -0.2055 -0.0842
 6789TIP3    H141782   1.940   2.640  13.665 -0.6903 -1.1701 -2.2635
 6789TIP3    H241783   2.091   2.653  13.675 -0.9612  0.1219  1.7344
 6790TIP3   OH241784   1.115   1.692   3.388 -1.0454  0.2380 -0.2488
 6790TIP3    H141785   1.125   1.769   3.333 -2.0794  0.8403  0.3947
 6790TIP3    H241786   1.205   1.661   3.401 -0.7830 -0.2697 -2.7095
 6791TIP3   OH241787   6.788   3.459   4.725  0.4820 -0.4162 -0.3288
 6791TIP3    H141788   6.816   3.380   4.770  0.3786  0.8463  2.1108
 6791TIP3    H241789   6.704   3.435   4.686 -0.0386 -1.2551  1.2220
 6792TIP3   OH241790   1.193   3.953   0.208  0.0873 -0.5567  0.2138
 6792TIP3    H141791   1.280   3.988   0.188 -0.0478 -0.7754 -0.8194
 6792TIP3    H241792   1.184   3.876   0.152 -0.7605 -0.5567  0.3266
 6793TIP3   OH241793   3.915   1.131  16.902 -0.1730  0.4489  0.4583
 6793TIP3    H141794   3.964   1.051  16.880 -2.1770 -0.5381 -0.6893
 6793TIP3    H241795   3.892   1.120  16.994  1.4474  0.7980  0.9400
 6794TIP3   OH241796   0.407   5.141   5.536  0.0250  0.2939 -0.1018
 6794TIP3    H141797   0.331   5.133   5.594 -0.0150 -0.2601 -0.2194
 6794TIP3    H241798   0.482   5.118   5.592 -0.0838 -0.9252 -0.4326
 6795TIP3   OH241799   4.856   5.026   0.883  0.0687 -0.3299 -0.2961
 6795TIP3    H141800   4.919   5.036   0.955  0.7857 -1.6083 -0.7176
 6795TIP3    H241801   4.906   4.986   0.812 -0.9116 -0.1538 -1.1111
 6796TIP3   OH241802   2.425   0.724  15.489  0.1702  0.4525 -0.3806
 6796TIP3    H141803   2.473   0.699  15.568  0.5347 -0.1880 -0.8023
 6796TIP3    H241804   2.488   0.716  15.418 -0.3132  0.4767 -0.8230
 6797TIP3   OH241805   2.319   3.575  11.061 -0.6745 -0.3497  0.0492
 6797TIP3    H141806   2.359   3.489  11.051 -1.8904 -0.7876 -1.3908
 6797TIP3    H241807   2.380   3.635  11.017 -0.3168 -0.6188  0.1752
 6798TIP3   OH241808   4.252   5.466  12.999  0.3618  0.3715 -0.2449
 6798TIP3    H141809   4.309   5.522  12.946  2.4340 -0.2392  1.1945
 6798TIP3    H241810   4.188   5.527  13.038 -1.3408  0.8090 -3.4260
 6799TIP3   OH241811   2.594   3.995  12.930 -0.0176 -0.3931  0.0203
 6799TIP3    H141812   2.645   4.071  12.959  0.9104 -1.4056  1.1751
 6799TIP3    H241813   2.653   3.948  12.871 -0.6119 -0.1898 -0.7401
 6800TIP3   OH241814   4.927   0.568   6.461  0.1659  0.0668  0.0893
 6800TIP3    H141815   4.892   0.656   6.449  1.6246  0.7452  0.5037
 6800TIP3    H241816   4.906   0.522   6.380 -2.1058  0.2292  0.5315
 6801TIP3   OH241817   3.603   1.819  12.559  0.5985  0.2718  0.5547
 6801TIP3    H141818   3.671   1.757  12.532  0.0283 -0.1464  0.0472
 6801TIP3    H241819   3.521   1.782  12.525  0.0414  0.5105  1.5833
 6802TIP3   OH241820   2.709   3.997   3.743  0.7347 -0.0468  0.2649
 6802TIP3    H141821   2.663   3.914   3.731  1.2521 -0.3317  0.2001
 6802TIP3    H241822   2.642   4.058   3.771 -0.1751  0.1563 -2.0917
 6803TIP3   OH241823   4.678   5.930  14.875 -0.3483 -0.1709 -0.0198
 6803TIP3    H141824   4.671   5.893  14.963 -1.0865 -0.0812 -0.0351
 6803TIP3    H241825   4.735   6.007  14.886 -0.9124  0.1837  0.4934
 6804TIP3   OH241826   3.109   2.351  12.918  0.0208  0.1317 -0.2512
 6804TIP3    H141827   3.140   2.353  13.009 -0.5648  0.3931 -0.0489
 6804TIP3    H241828   3.188   2.356  12.865  0.2591  3.3990  0.2166
 6805TIP3   OH241829   0.316   1.319  16.576  0.3931  0.1079  0.3629
 6805TIP3    H141830   0.261   1.392  16.605 -0.9172 -0.6598 -0.0534
 6805TIP3    H241831   0.297   1.312  16.482 -0.2718 -1.3613  0.5820
 6806TIP3   OH241832   4.650   4.984   0.502 -0.2625 -0.0383 -0.0017
 6806TIP3    H141833   4.676   5.060   0.554  0.7704  0.9955 -1.8835
 6806TIP3    H241834   4.567   4.956   0.539 -0.8273  2.2155  0.5721
 6807TIP3   OH241835   5.437   5.709  11.881 -0.0181 -0.6833 -0.1691
 6807TIP3    H141836   5.441   5.794  11.837  2.2900 -1.8508 -2.4959
 6807TIP3    H241837   5.351   5.674  11.858 -1.1525  1.0723  1.1167
 6808TIP3   OH241838   6.501   3.685   2.177  0.2715  0.1517 -0.7160
 6808TIP3    H141839   6.487   3.628   2.252 -0.6971  1.2802  0.0002
 6808TIP3    H241840   6.548   3.760   2.213 -0.8029  1.0168 -1.0731
 6809TIP3   OH241841   1.481   4.969  14.836  0.7448 -0.4746 -0.3358
 6809TIP3    H141842   1.537   4.895  14.858 -0.1402 -1.2040 -0.4989
 6809TIP3    H241843   1.508   4.994  14.747  0.2868 -1.3105 -0.7098
 6810TIP3   OH241844   2.566   5.273   0.792  0.9221  0.0752  0.4700
 6810TIP3    H141845   2.569   5.347   0.731  1.7414  0.9329  1.5095
 6810TIP3    H241846   2.483   5.283   0.838  0.4710 -0.3656 -0.2244
 6811TIP3   OH241847   5.661   2.962   6.589 -0.8990 -0.3436  0.4581
 6811TIP3    H141848   5.726   2.934   6.524  0.7821 -0.2198  2.0065
 6811TIP3    H241849   5.612   2.882   6.609  0.1314 -0.9094  0.7518
 6812TIP3   OH241850   5.368   4.307  11.874  0.4787  0.0517 -0.2415
 6812TIP3    H141851   5.290   4.301  11.929 -0.2580  0.5348 -1.1987
 6812TIP3    H241852   5.417   4.227  11.893  0.1138  0.0900  0.9101
 6813TIP3   OH241853   3.726   1.395  17.081 -0.2823  0.0651 -0.1438
 6813TIP3    H141854   3.762   1.469  17.130  0.4136 -0.6917  0.5065
 6813TIP3    H241855   3.634   1.419  17.066 -0.1585  0.8911  0.3818
 6814TIP3   OH241856   2.948   2.603   5.284 -0.4499  0.0375 -0.2470
 6814TIP3    H141857   3.014   2.534   5.275  0.2834  0.6716  0.1485
 6814TIP3    H241858   2.899   2.579   5.362 -1.3902 -0.9950 -1.1161
 6815TIP3   OH241859   6.375   6.237   1.409 -0.6334  0.0892  0.2578
 6815TIP3    H141860   6.355   6.144   1.424 -1.6441 -0.0536 -1.6851
 6815TIP3    H241861   6.294   6.273   1.373 -0.2702  1.7732  1.0458
 6816TIP3   OH241862   1.199   6.405  13.230  0.1501  0.0814 -0.3229
 6816TIP3    H141863   1.240   6.452  13.158  0.5867 -0.5090 -0.4679
 6816TIP3    H241864   1.114   6.447  13.241 -0.2585 -0.3228 -1.7172
 6817TIP3   OH241865   1.120   2.750   3.965  0.0086 -0.7082  0.1943
 6817TIP3    H141866   1.115   2.750   3.870 -2.1248  0.9812  0.2342
 6817TIP3    H241867   1.037   2.711   3.994 -0.5029  1.0788  1.3065
 6818TIP3   OH241868   6.205   5.920   5.727  0.4305 -0.0949  0.1138
 6818TIP3    H141869   6.208   5.838   5.677  1.4371 -0.2302  0.3754
 6818TIP3    H241870   6.152   5.899   5.804  0.5833 -0.4632  0.1202
 6819TIP3   OH241871   6.040   0.090  13.061 -0.1761 -0.0218 -0.0971
 6819TIP3    H141872   6.117   0.146  13.052 -0.6744  0.8523  0.8558
 6819TIP3    H241873   6.056   0.041  13.141 -0.3098 -0.3274 -0.2573
 6820TIP3   OH241874   2.668   1.710  13.830  0.2563  0.1525  0.2991
 6820TIP3    H141875   2.656   1.781  13.767  0.9024  1.5002  1.6325
 6820TIP3    H241876   2.668   1.754  13.916  0.7899 -1.4430  1.1560
 6821TIP3   OH241877   6.251   3.688   6.128  0.8315  0.4087 -0.2745
 6821TIP3    H141878   6.323   3.748   6.144  1.5501 -0.2387 -1.0408
 6821TIP3    H241879   6.194   3.735   6.067 -1.0376  2.1799  2.5276
 6822TIP3   OH241880   1.313   6.471  14.277 -0.0654  0.1986  0.0065
 6822TIP3    H141881   1.289   6.424  14.197 -0.7887 -0.3340  0.5251
 6822TIP3    H241882   1.300   6.563  14.256  0.2166  0.0956 -0.6438
 6823TIP3   OH241883   3.014   3.286   3.222  0.1388  0.5741 -0.3575
 6823TIP3    H141884   2.947   3.247   3.166  0.1824  1.2295 -0.8729
 6823TIP3    H241885   2.984   3.375   3.239 -0.0894  0.2542  1.0368
 6824TIP3   OH241886   2.366   3.956  12.577 -0.0926  0.9557  0.2456
 6824TIP3    H141887   2.347   3.911  12.659 -0.1502  0.4743 -0.0262
 6824TIP3    H241888   2.461   3.965  12.574 -0.0949  1.0235  0.3876
 6825TIP3   OH241889   1.218   0.809   2.936  0.5131  0.3664  0.5005
 6825TIP3    H141890   1.215   0.869   2.862 -1.3133  0.0622  0.2653
 6825TIP3    H241891   1.255   0.861   3.008 -0.8322  1.7428  0.2515
 6826TIP3   OH241892   1.937   6.632  11.861 -0.6290  0.1632 -0.0871
 6826TIP3    H141893   2.017   6.677  11.834 -0.5139 -1.5179 -2.8596
 6826TIP3    H241894   1.916   6.671  11.946  3.6260  0.0393  1.2655
 6827TIP3   OH241895   2.973   4.982   3.544  1.2027  0.1816  0.3219
 6827TIP3    H141896   3.000   4.961   3.633 -0.1677 -0.9804  0.5068
 6827TIP3    H241897   2.890   5.027   3.554  0.9833 -0.0563 -0.3641
 6828TIP3   OH241898   6.253   4.944   4.348  0.2175  0.0323 -0.0747
 6828TIP3    H141899   6.289   4.865   4.388  1.5256  0.7313  0.1785
 6828TIP3    H241900   6.202   4.985   4.419  0.9107  0.2577  0.3045
 6829TIP3   OH241901   0.576   6.111  11.228 -0.6912  0.0505  0.1711
 6829TIP3    H141902   0.664   6.078  11.210 -0.6706 -0.5821  1.3347
 6829TIP3    H241903   0.533   6.039  11.274 -0.0402  2.1670  4.5990
 6830TIP3   OH241904   0.457   4.564   4.006  0.0633  0.0897 -0.3458
 6830TIP3    H141905   0.364   4.549   3.990 -0.1486  0.8403  0.1215
 6830TIP3    H241906   0.495   4.476   4.011 -0.9194 -0.3024  1.1650
 6831TIP3   OH241907   0.824   5.637  15.623  0.3216  0.0397  0.1768
 6831TIP3    H141908   0.829   5.621  15.717  1.7936  1.3943  0.3734
 6831TIP3    H241909   0.788   5.556  15.587 -0.6125 -0.3806  1.9181
 6832TIP3   OH241910   3.286   5.586  11.140  0.1169 -0.1063 -0.1861
 6832TIP3    H141911   3.275   5.614  11.050 -2.5096  1.2491  0.4412
 6832TIP3    H241912   3.239   5.503  11.145  0.3425 -0.2279 -0.0984
 6833TIP3   OH241913   4.076   5.664   2.745  0.0990  0.7902  0.1999
 6833TIP3    H141914   4.011   5.687   2.812 -0.0140  0.2535  0.2754
 6833TIP3    H241915   4.047   5.710   2.666  0.2906  1.5161  0.5355
 6834TIP3   OH241916   0.248   5.373  15.373 -0.5483  0.1865  0.3372
 6834TIP3    H141917   0.221   5.386  15.282  0.3083 -0.6219 -0.0504
 6834TIP3    H241918   0.311   5.301  15.369 -0.8198 -0.1485  1.6285
 6835TIP3   OH241919   3.206   5.190  17.109 -0.3602 -0.1086  0.1028
 6835TIP3    H141920   3.265   5.175  17.035  1.2959 -0.6470  1.4797
 6835TIP3    H241921   3.246   5.262  17.157 -1.3496  0.1500  0.5543
 6836TIP3   OH241922   5.516   0.108  11.603 -0.0178 -0.4776  0.5049
 6836TIP3    H141923   5.561   0.038  11.557  0.4035  0.1799 -0.0947
 6836TIP3    H241924   5.495   0.070  11.689  3.5012 -0.2003  1.6619
 6837TIP3   OH241925   1.451   1.437   2.958  0.3301 -0.2926 -0.8935
 6837TIP3    H141926   1.360   1.453   2.935  0.1019  2.2936  1.3053
 6837TIP3    H241927   1.502   1.490   2.896  0.1326  0.5995 -0.3151
 6838TIP3   OH241928   0.398   5.903   2.083  0.1927  0.2774  0.0550
 6838TIP3    H141929   0.426   5.985   2.042 -0.2583  0.4225  0.0362
 6838TIP3    H241930   0.406   5.919   2.177  1.1406 -0.0252  0.0339
 6839TIP3   OH241931   2.970   5.167   4.818 -0.4979  0.0716 -0.9046
 6839TIP3    H141932   3.032   5.237   4.794 -0.0675 -0.5152 -1.5161
 6839TIP3    H241933   3.026   5.095   4.845 -0.7696 -1.4446 -3.9906
 6840TIP3   OH241934   3.038   0.499  15.062  0.5381 -0.0713  0.2574
 6840TIP3    H141935   3.111   0.505  15.001  0.2575  0.8448  0.0043
 6840TIP3    H241936   2.960   0.496  15.006  0.2766  0.8376  0.5631
 6841TIP3   OH241937   6.257   6.519  12.654  0.0947 -0.2596 -0.1268
 6841TIP3    H141938   6.215   6.434  12.641 -0.2741 -0.0103 -0.5942
 6841TIP3    H241939   6.328   6.501  12.716 -0.8552 -0.6447  0.8803
 6842TIP3   OH241940   4.119   6.117   4.537 -0.1656 -0.7208  0.4330
 6842TIP3    H141941   4.142   6.030   4.504  1.3058 -0.1713 -0.0994
 6842TIP3    H241942   4.105   6.104   4.631  0.2586 -1.5060  0.3951
 6843TIP3   OH241943   2.672   1.728  14.457  0.1935 -0.6418 -0.3837
 6843TIP3    H141944   2.751   1.700  14.504 -0.1295 -0.1466  0.4702
 6843TIP3    H241945   2.682   1.690  14.369  1.1655 -0.9532 -0.1530
 6844TIP3   OH241946   2.838   3.757   2.063 -0.6073  0.2505 -0.0603
 6844TIP3    H141947   2.860   3.785   1.974 -0.0113  1.6379  0.4908
 6844TIP3    H241948   2.881   3.822   2.119  0.5162 -1.5909  1.2945
 6845TIP3   OH241949   1.121   0.054   3.737 -0.5951  0.5495  0.2025
 6845TIP3    H141950   1.209   0.061   3.774 -0.4248 -0.9505  0.1216
 6845TIP3    H241951   1.078  -0.013   3.789 -1.4133  0.6622 -0.3090
 6846TIP3   OH241952   0.424   6.046   4.489 -0.1409 -0.0665  0.3326
 6846TIP3    H141953   0.356   6.110   4.470  0.5061  0.9572  1.3634
 6846TIP3    H241954   0.448   6.010   4.403  1.0555  2.7173 -0.6044
 6847TIP3   OH241955   1.189   0.905   5.756 -0.1439  0.2921 -0.0298
 6847TIP3    H141956   1.234   0.970   5.702  0.2068  1.7563  1.9263
 6847TIP3    H241957   1.135   0.856   5.694  1.7178  0.5651 -1.9904
 6848TIP3   OH241958   5.905   3.229   6.541 -0.3249  0.1420 -0.1539
 6848TIP3    H141959   5.871   3.307   6.586 -2.1765 -0.4733 -0.3895
 6848TIP3    H241960   5.930   3.169   6.612 -1.6757 -0.1791  0.0741
 6849TIP3   OH241961   0.903   3.783   1.989  0.1635 -0.8042 -0.4094
 6849TIP3    H141962   0.853   3.740   1.919  0.1365 -0.9756 -0.2838
 6849TIP3    H241963   0.936   3.863   1.948  0.0847 -0.8667 -0.5975
 6850TIP3   OH241964   1.318   4.454   0.056  0.8610 -0.1365 -0.2774
 6850TIP3    H141965   1.370   4.415  -0.015 -0.4198 -0.2260 -1.2015
 6850TIP3    H241966   1.234   4.474   0.015  1.1289  2.7589  0.4085
 6851TIP3   OH241967   6.652   3.286  16.254  0.1028  0.2121  0.1606
 6851TIP3    H141968   6.729   3.238  16.284  0.5768  1.1918  0.5819
 6851TIP3    H241969   6.589   3.278  16.325 -0.6283 -1.5148 -0.6419
 6852TIP3   OH241970   1.103   5.873  11.032  0.0068 -0.5983  0.1537
 6852TIP3    H141971   1.054   5.955  11.036 -0.2843 -0.8277  1.8729
 6852TIP3    H241972   1.143   5.873  10.945 -1.3432  0.5697 -0.4942
 6853TIP3   OH241973   1.488   4.567  12.884  0.2488 -0.0387 -0.4900
 6853TIP3    H141974   1.565   4.587  12.830 -0.1275  0.0245 -1.0162
 6853TIP3    H241975   1.485   4.471  12.887  1.6234 -0.0713  1.4074
 6854TIP3   OH241976   2.853   1.985   4.213 -0.3150 -0.1833  0.9685
 6854TIP3    H141977   2.941   1.965   4.247 -0.8149 -0.5421  2.0884
 6854TIP3    H241978   2.861   1.974   4.118  1.0331  0.4874  0.9767
 6855TIP3   OH241979   1.789   2.703  11.698 -0.0711 -0.3221  0.0976
 6855TIP3    H141980   1.724   2.716  11.767 -0.9158  3.9409 -1.2481
 6855TIP3    H241981   1.873   2.716  11.742 -0.1797 -2.6415  1.1778
 6856TIP3   OH241982   5.223   5.102   3.813 -0.0846 -0.2281 -0.1279
 6856TIP3    H141983   5.192   5.017   3.782 -1.7964  0.8976 -1.7389
 6856TIP3    H241984   5.193   5.107   3.903  1.3165 -1.8779  0.4907
 6857TIP3   OH241985   1.386   0.008  14.121  0.0143  0.6100 -0.1686
 6857TIP3    H141986   1.344  -0.060  14.070  0.5256 -0.6643  1.0307
 6857TIP3    H241987   1.479  -0.001  14.102  0.2107  0.1270  0.9276
 6858TIP3   OH241988   0.353   4.947   0.271 -0.2141 -0.0039  0.3819
 6858TIP3    H141989   0.299   4.877   0.235 -0.4932 -0.3659  1.4604
 6858TIP3    H241990   0.399   4.906   0.345  0.0572  0.8016  0.6713
 6859TIP3   OH241991   1.936   0.691   3.025  0.5798  0.0791 -0.2348
 6859TIP3    H141992   1.997   0.703   3.098  1.3586  0.3063 -0.9157
 6859TIP3    H241993   1.874   0.626   3.057 -0.3631  1.6856  1.4239
 6860TIP3   OH241994   2.141   5.553  15.975 -0.1187 -0.1294 -0.2426
 6860TIP3    H141995   2.149   5.637  15.929 -0.5778 -1.0220 -2.0110
 6860TIP3    H241996   2.064   5.512  15.937 -1.0629 -0.5565  1.9801
 6861TIP3   OH241997   5.287   3.478  14.306  0.2369  0.5233  0.1472
 6861TIP3    H141998   5.287   3.554  14.248 -1.4479 -0.5616 -1.4156
 6861TIP3    H241999   5.194   3.463  14.326  0.3618 -1.7704 -0.6157
 6862TIP3   OH242000   3.023   3.505   5.897  0.2089  0.2136  0.3276
 6862TIP3    H142001   3.101   3.473   5.850 -0.4726 -0.0833 -0.6425
 6862TIP3    H242002   3.058   3.559   5.968  1.2812  0.9679 -0.7297
 6863TIP3   OH242003   1.238   1.885   6.030  0.1301  0.0401 -0.0143
 6863TIP3    H142004   1.289   1.837   6.095  0.7915 -1.4597 -1.5319
 6863TIP3    H242005   1.147   1.864   6.050  0.3054 -0.1723  0.5819
 6864TIP3   OH242006   2.660   4.953   1.097  0.1091  0.2862  0.3285
 6864TIP3    H142007   2.565   4.961   1.096  0.0954  0.0823 -0.7695
 6864TIP3    H242008   2.691   5.038   1.130 -0.4218  0.7582 -0.3641
 6865TIP3   OH242009   4.486   5.697   5.398 -0.3600 -0.5375  0.3183
 6865TIP3    H142010   4.485   5.618   5.453 -0.8786  0.1277  1.3114
 6865TIP3    H242011   4.426   5.757   5.443  1.3958  1.0839  0.5938
 6866TIP3   OH242012   1.564   4.077  15.764  0.1350 -0.1780  0.3598
 6866TIP3    H142013   1.535   3.986  15.767  0.2587 -0.2081  0.8448
 6866TIP3    H242014   1.589   4.097  15.855  0.1716  0.3168  0.2456
 6867TIP3   OH242015   2.055   5.137   3.395 -0.3241  0.2150  0.0245
 6867TIP3    H142016   2.092   5.049   3.405 -0.1093  0.0752 -1.6818
 6867TIP3    H242017   2.129   5.196   3.405 -0.3653  0.1766  0.5879
 6868TIP3   OH242018   0.762   3.606   1.772 -0.4932  0.4828 -0.1448
 6868TIP3    H142019   0.751   3.634   1.681 -0.1129  0.1625 -0.2887
 6868TIP3    H242020   0.674   3.616   1.810 -0.8547 -0.1972 -0.7762
 6869TIP3   OH242021   2.691   0.408   0.606 -0.5589  0.0811  0.3559
 6869TIP3    H142022   2.675   0.391   0.513  0.0635 -1.3436  0.4980
 6869TIP3    H242023   2.700   0.504   0.611  0.5760  0.0934 -1.2404
 6870TIP3   OH242024   3.110   2.455   3.762 -0.6072 -0.4160  0.2167
 6870TIP3    H142025   3.119   2.409   3.678  0.8646  0.7324 -0.2781
 6870TIP3    H242026   3.146   2.394   3.827  1.4855  0.0602 -0.4514
 6871TIP3   OH242027   1.462   5.291  16.826  0.5558  0.1168 -0.5934
 6871TIP3    H142028   1.548   5.327  16.806 -0.4827  3.0788 -0.2489
 6871TIP3    H242029   1.430   5.256  16.743  1.9554 -0.8702 -0.7570
 6872TIP3   OH242030   4.760   4.788   4.614 -0.0174  0.0115  0.0886
 6872TIP3    H142031   4.812   4.775   4.693  1.1048  1.0680 -0.4352
 6872TIP3    H242032   4.817   4.838   4.556  0.0796 -2.6226 -2.3164
 6873TIP3   OH242033   3.214   1.412  16.244  0.3172  0.1767  0.0917
 6873TIP3    H142034   3.142   1.421  16.306  1.1893 -1.5772  1.4361
 6873TIP3    H242035   3.225   1.500  16.207 -0.5452  1.1803  2.0785
 6874TIP3   OH242036   4.237   0.716   2.772  0.1844 -0.3456 -0.0846
 6874TIP3    H142037   4.221   0.639   2.826 -2.3365  0.9840  1.2357
 6874TIP3    H242038   4.332   0.718   2.760  0.4259 -2.9834  0.7881
 6875TIP3   OH242039   3.674   6.730   4.480  0.1569 -0.2649  0.0947
 6875TIP3    H142040   3.590   6.770   4.457  1.6281  3.0162 -0.2649
 6875TIP3    H242041   3.678   6.737   4.576  0.2343  0.1445  0.0655
 6876TIP3   OH242042   3.682   5.815   6.110 -0.0210  0.3521  0.6665
 6876TIP3    H142043   3.686   5.750   6.180 -0.7803 -0.6858 -0.2179
 6876TIP3    H242044   3.598   5.799   6.067  0.8828  0.2375 -1.1548
 6877TIP3   OH242045   1.395   3.973  17.028 -0.3060  0.0461 -0.0014
 6877TIP3    H142046   1.333   3.905  17.001  0.0240  0.4031 -1.8101
 6877TIP3    H242047   1.343   4.034  17.079 -0.7659 -1.1683  1.0535
 6878TIP3   OH242048   3.437   6.194  12.186 -0.2271  0.4390  0.1429
 6878TIP3    H142049   3.461   6.162  12.099 -0.1903  1.3924 -0.2068
 6878TIP3    H242050   3.405   6.116  12.232  0.2174 -0.1663 -0.5553
 6879TIP3   OH242051   0.349   1.070  15.670  0.1780  0.0763 -0.5675
 6879TIP3    H142052   0.338   1.112  15.585 -0.7285  2.3722  0.5758
 6879TIP3    H242053   0.265   1.027  15.687 -0.0363  0.5697 -0.3669
 6880TIP3   OH242054   0.494   2.002   2.908  0.4125  0.0265 -0.3714
 6880TIP3    H142055   0.430   2.073   2.906  0.0462 -0.3169 -0.8598
 6880TIP3    H242056   0.547   2.021   2.986  0.1606  0.6931 -0.3521
 6881TIP3   OH242057   4.931   3.989   5.603 -0.1169 -0.0334  0.5334
 6881TIP3    H142058   4.903   4.078   5.621 -0.9149  0.0826 -1.1034
 6881TIP3    H242059   4.860   3.951   5.551  0.7479 -1.2056  0.1588
 6882TIP3   OH242060   0.903   4.614   1.744 -0.1656  0.4327 -0.2503
 6882TIP3    H142061   0.850   4.623   1.665 -0.5229  1.6231  0.0987
 6882TIP3    H242062   0.939   4.701   1.759 -0.9407  0.5210  1.4503
 6883TIP3   OH242063   6.332   3.655   2.534  0.1842  0.1296 -0.0497
 6883TIP3    H142064   6.323   3.569   2.574  1.7080 -0.5767 -1.1473
 6883TIP3    H242065   6.281   3.649   2.453  0.7594  0.0664 -0.4079
 6884TIP3   OH242066   1.627   3.638  15.224  0.4834  0.5049  0.0408
 6884TIP3    H142067   1.716   3.613  15.249 -0.3328 -0.2415  2.4615
 6884TIP3    H242068   1.570   3.590  15.284 -1.4220  3.7707  1.1029
 6885TIP3   OH242069   3.019   1.727  15.259  0.3214 -0.3744 -0.2429
 6885TIP3    H142070   3.074   1.668  15.206  1.2438 -0.4202  0.7304
 6885TIP3    H242071   3.014   1.684  15.344 -2.8482 -1.3468 -0.8059
 6886TIP3   OH242072   4.184   4.285   0.747 -0.1621  0.1662 -0.2898
 6886TIP3    H142073   4.279   4.289   0.758 -0.1736 -0.0366 -0.1114
 6886TIP3    H242074   4.155   4.376   0.750  0.1668  0.3329 -1.5809
 6887TIP3   OH242075   3.418   5.313  13.361 -0.2405  0.3417 -0.4989
 6887TIP3    H142076   3.426   5.307  13.456 -2.5469  1.0001 -0.2153
 6887TIP3    H242077   3.479   5.382  13.336  0.2660  0.2764  0.5080
 6888TIP3   OH242078   4.904   5.908  16.981 -0.4922 -0.2714 -0.6555
 6888TIP3    H142079   4.941   5.989  17.015 -0.6271  0.0071 -1.1635
 6888TIP3    H242080   4.958   5.839  17.020  0.6637  0.1276 -1.4851
 6889TIP3   OH242081   3.231   1.822  10.529 -0.1556 -0.2157 -0.0024
 6889TIP3    H142082   3.268   1.873  10.458  0.8194 -0.0775  0.5868
 6889TIP3    H242083   3.143   1.799  10.499  0.1496  0.0453 -1.1372
 6890TIP3   OH242084   1.244   5.641   4.890 -0.0649  0.7766  0.4530
 6890TIP3    H142085   1.158   5.646   4.847  0.1517 -0.3133 -0.1512
 6890TIP3    H242086   1.249   5.551   4.922 -0.1572  1.5068  2.6987
 6891TIP3   OH242087   5.830   2.867  14.270  0.4384 -0.4238 -0.3418
 6891TIP3    H142088   5.882   2.798  14.312  0.9561 -0.0118 -0.2991
 6891TIP3    H242089   5.891   2.939  14.258 -0.0243 -0.0807 -0.6700
 6892TIP3   OH242090   5.033   3.953   0.601  0.3491  0.0759  0.2865
 6892TIP3    H142091   4.985   3.887   0.650  0.1682 -0.4539 -0.5967
 6892TIP3    H242092   5.031   4.031   0.657  0.5865 -0.6616  1.3418
 6893TIP3   OH242093   2.654   4.633  12.475  0.8208 -0.2447  0.1837
 6893TIP3    H142094   2.710   4.699  12.433  0.7584 -1.2032 -1.4957
 6893TIP3    H242095   2.714   4.580  12.526  0.9699  0.6589  0.9840
 6894TIP3   OH242096   5.398   1.660  11.881  0.8048 -0.2911 -0.0079
 6894TIP3    H142097   5.467   1.701  11.830  1.2955 -0.0269  0.8469
 6894TIP3    H242098   5.317   1.695  11.844  1.1734  0.4580 -0.1224
 6895TIP3   OH242099   3.713   2.218  14.068 -0.8650 -0.2124 -0.3490
 6895TIP3    H142100   3.636   2.199  14.121 -0.0438 -1.1180  0.5458
 6895TIP3    H242101   3.677   2.250  13.985 -2.1975 -0.4572  0.1122
 6896TIP3   OH242102   5.203   6.514   3.936  0.8464 -0.3566 -0.3378
 6896TIP3    H142103   5.298   6.526   3.933  0.7681  0.1019 -1.7063
 6896TIP3    H242104   5.179   6.531   4.027  2.1268 -0.9394  0.1362
 6897TIP3   OH242105   5.563   2.098   0.785  0.0575  0.0108 -0.4604
 6897TIP3    H142106   5.625   2.116   0.856 -1.0226 -2.5039  1.2698
 6897TIP3    H242107   5.480   2.134   0.816  0.0952  1.2523 -1.7000
 6898TIP3   OH242108   0.781   5.419   1.301  0.0958  0.3063 -0.2395
 6898TIP3    H142109   0.697   5.434   1.258 -0.8623  0.0240  1.4332
 6898TIP3    H242110   0.812   5.336   1.265 -1.9089 -1.2306  1.3559
 6899TIP3   OH242111   1.285   5.179  14.492  0.0765  0.2129  0.7269
 6899TIP3    H142112   1.299   5.148  14.403  0.7682  1.5329  0.3606
 6899TIP3    H242113   1.254   5.269  14.482  1.0013  0.6795  1.8221
 6900TIP3   OH242114   1.173   4.294  16.252 -0.7217  0.4977  0.5537
 6900TIP3    H142115   1.142   4.364  16.309 -2.0863  0.7681 -0.4635
 6900TIP3    H242116   1.267   4.288  16.269 -0.5479  2.6253  0.6018
 6901TIP3   OH242117   5.287   5.898   2.639 -0.6745 -0.7075 -0.2358
 6901TIP3    H142118   5.248   5.949   2.710 -0.0289  0.3110 -0.5973
 6901TIP3    H242119   5.341   5.961   2.591 -0.3321 -1.6031 -1.0492
 6902TIP3   OH242120   1.441   1.363  11.392 -0.0725 -0.3286 -0.0256
 6902TIP3    H142121   1.395   1.318  11.321 -1.2172 -0.1074  0.5539
 6902TIP3    H242122   1.505   1.419  11.347 -1.4969  0.6244 -0.9643
 6903TIP3   OH242123   0.251   5.142  11.967  0.1768  0.6238  0.1097
 6903TIP3    H142124   0.344   5.163  11.965  0.7055 -1.5389 -0.1054
 6903TIP3    H242125   0.217   5.175  11.883  0.6296  1.7537  0.3442
 6904TIP3   OH242126   1.073   5.179  15.828  0.9914  0.1570 -0.5271
 6904TIP3    H142127   1.039   5.233  15.900 -0.7627 -0.7481 -0.6050
 6904TIP3    H242128   1.151   5.137  15.864 -0.1895 -0.7519  1.1114
 6905TIP3   OH242129   2.950   3.781  16.191 -0.4248  0.1492  0.2377
 6905TIP3    H142130   2.979   3.701  16.148 -0.5381  1.0894 -1.6833
 6905TIP3    H242131   3.030   3.825  16.217 -0.2834  0.3987 -0.6053
 6906TIP3   OH242132   5.876   5.759  13.683  0.4096  0.2747 -1.0998
 6906TIP3    H142133   5.891   5.667  13.703 -1.2079  0.5744  2.2478
 6906TIP3    H242134   5.840   5.760  13.595 -0.2328 -2.3890 -0.9395
 6907TIP3   OH242135   2.432   1.507  16.004 -0.5275  0.4090  0.3153
 6907TIP3    H142136   2.470   1.582  15.958  0.4961 -0.1646  0.1899
 6907TIP3    H242137   2.345   1.536  16.029  0.0465  1.8293  0.7564
 6908TIP3   OH242138   1.710   0.766  15.113  0.1081 -0.4624 -0.1888
 6908TIP3    H142139   1.726   0.672  15.107 -1.2491 -0.6764 -0.6975
 6908TIP3    H242140   1.792   0.806  15.083  0.6245 -1.4717 -0.1783
 6909TIP3   OH242141   3.389   2.035   5.153 -0.2776  0.8332  0.2516
 6909TIP3    H142142   3.445   2.031   5.230 -0.6035 -1.5414  0.4377
 6909TIP3    H242143   3.446   2.009   5.081 -0.1312  2.4739 -0.2850
 6910TIP3   OH242144   4.410   2.805   1.464  0.4475  0.3425  0.0768
 6910TIP3    H142145   4.407   2.838   1.553 -0.2514 -0.0765  0.2165
 6910TIP3    H242146   4.324   2.765   1.450  0.1722  1.2515 -1.1096
 6911TIP3   OH242147   4.289   3.661   1.980 -0.3638 -0.1153 -0.1445
 6911TIP3    H142148   4.211   3.683   1.929 -0.3770  1.0528  0.3553
 6911TIP3    H242149   4.340   3.742   1.982 -0.7004  0.1039  2.2923
 6912TIP3   OH242150   1.436   2.782   1.967 -0.4275  0.2789 -0.3726
 6912TIP3    H142151   1.445   2.869   2.005 -0.1817  1.1317 -2.2668
 6912TIP3    H242152   1.353   2.785   1.920 -2.0177 -1.5858  2.0580
 6913TIP3   OH242153   0.150   6.723  10.675 -0.2513 -0.0906 -0.2315
 6913TIP3    H142154   0.238   6.724  10.638  0.3265  2.4495  0.9490
 6913TIP3    H242155   0.157   6.664  10.750  0.7430  0.7545  0.3776
 6914TIP3   OH242156   1.496   3.428   1.548 -0.5459 -0.6987 -0.0738
 6914TIP3    H142157   1.523   3.356   1.604 -1.3486 -0.6711  0.3583
 6914TIP3    H242158   1.576   3.452   1.500  0.0919 -0.8741  0.8743
 6915TIP3   OH242159   3.225   1.626   4.138  0.4956  0.1745 -0.4950
 6915TIP3    H142160   3.242   1.542   4.095 -1.4049 -1.9887  2.5554
 6915TIP3    H242161   3.130   1.635   4.135  0.4538  0.7753  1.6444
 6916TIP3   OH242162   5.008   5.101   3.203 -0.0102 -0.4060  0.1223
 6916TIP3    H142163   4.954   5.102   3.124 -0.8011 -3.5759  0.4493
 6916TIP3    H242164   4.978   5.023   3.250  0.5103  1.2775  3.5124
 6917TIP3   OH242165   0.915   2.402   5.241 -0.1462 -0.1312 -0.6854
 6917TIP3    H142166   0.909   2.319   5.288 -0.3463 -0.4418 -1.2409
 6917TIP3    H242167   1.000   2.438   5.266 -1.2598  0.9436  1.8897
 6918TIP3   OH242168   6.098   3.591  11.385 -0.3853 -0.4105 -0.0368
 6918TIP3    H142169   6.063   3.585  11.474  1.4228  0.6016  0.8032
 6918TIP3    H242170   6.080   3.505  11.346 -1.2193 -0.8713  1.2817
 6919TIP3   OH242171   2.301   3.726   1.200 -0.1805 -0.1409 -0.0197
 6919TIP3    H142172   2.249   3.671   1.142 -0.4571  0.6386 -0.5232
 6919TIP3    H242173   2.317   3.671   1.277 -0.9278 -0.7216 -0.2650
 6920TIP3   OH242174   0.115   4.641   6.122  0.2655 -0.2038  0.1629
 6920TIP3    H142175   0.030   4.610   6.153 -0.2501  1.0548  0.0843
 6920TIP3    H242176   0.165   4.657   6.202  0.4194 -0.8931  0.2111
 6921TIP3   OH242177   3.942   5.395   2.118  0.4056 -0.7446 -0.2361
 6921TIP3    H142178   3.971   5.303   2.117 -2.3922 -1.7650  0.9945
 6921TIP3    H242179   3.862   5.395   2.065  0.9848  1.2913 -1.1987
 6922TIP3   OH242180   6.031   5.701  11.540 -0.0144  0.2414  0.9737
 6922TIP3    H142181   6.006   5.777  11.593  1.0611  1.0005  0.4276
 6922TIP3    H242182   6.109   5.666  11.583  0.9610  0.9524 -0.1456
 6923TIP3   OH242183   3.340   5.059   5.412  0.4719 -0.4333  0.6844
 6923TIP3    H142184   3.419   5.083   5.459  1.5942  2.1176 -2.1855
 6923TIP3    H242185   3.358   4.972   5.376  1.2167 -0.6299  1.5031
 6924TIP3   OH242186   2.458   6.003   4.159 -0.2688  0.0310  0.6709
 6924TIP3    H142187   2.404   5.958   4.094 -1.1592  0.2926  1.2048
 6924TIP3    H242188   2.413   6.086   4.174  0.0923  0.1070  1.3742
 6925TIP3   OH242189   0.823   2.281   5.607  0.1119 -0.0186  0.7570
 6925TIP3    H142190   0.771   2.361   5.620  1.0974  0.4636  1.9605
 6925TIP3    H242191   0.882   2.279   5.682  0.0340 -1.9536  0.8239
 6926TIP3   OH242192   4.862   3.502  13.524  0.5664  0.2195  0.5036
 6926TIP3    H142193   4.803   3.502  13.449  1.2965  0.9421 -0.0922
 6926TIP3    H242194   4.946   3.472  13.488  1.0751  1.1455  0.8920
 6927TIP3   OH242195   5.210   1.601   0.671  0.5128  0.2026 -0.3369
 6927TIP3    H142196   5.303   1.618   0.654  0.7608 -0.4458  0.3588
 6927TIP3    H242197   5.202   1.506   0.669  0.0287  0.2184  0.4702
 6928TIP3   OH242198   4.316   3.844   6.287 -0.3221 -0.5496 -0.3026
 6928TIP3    H142199   4.359   3.854   6.372 -0.9621 -0.0915 -0.0258
 6928TIP3    H242200   4.383   3.870   6.223 -0.2029  0.2575  0.1295
 6929TIP3   OH242201   2.200   2.023  13.011 -0.2845  0.7340 -0.0455
 6929TIP3    H142202   2.242   2.070  12.940  0.4276  0.1181 -0.0443
 6929TIP3    H242203   2.192   2.088  13.082 -0.0075  1.0521 -0.3041
 6930TIP3   OH242204   0.625   2.763   5.353 -0.1981 -0.3601 -0.2633
 6930TIP3    H142205   0.660   2.730   5.271 -2.0321  0.6144 -1.4869
 6930TIP3    H242206   0.565   2.694   5.383  1.0167 -1.0498  0.7041
 6931TIP3   OH242207   6.541   1.645  13.633  0.8803  0.1511 -0.3979
 6931TIP3    H142208   6.585   1.602  13.560 -0.0410 -2.1140  0.3032
 6931TIP3    H242209   6.448   1.622  13.622  0.5763  0.6923  0.8885
 6932TIP3   OH242210   1.506   4.968   1.307  0.4828  0.1657  0.1667
 6932TIP3    H142211   1.456   4.983   1.227  0.0160 -1.2345  0.1714
 6932TIP3    H242212   1.440   4.944   1.372  1.0632 -0.8187  0.4114
 6933TIP3   OH242213   0.910   0.495   5.574  0.2242 -0.1881  0.8535
 6933TIP3    H142214   0.934   0.437   5.645 -0.4393  0.1031  1.3270
 6933TIP3    H242215   0.988   0.547   5.558  0.8366 -1.2218  0.3972
 6934TIP3   OH242216   4.439   1.505   2.921  0.0589  0.2351 -0.6945
 6934TIP3    H142217   4.532   1.523   2.937  0.0294 -0.1887 -0.0182
 6934TIP3    H242218   4.412   1.450   2.994 -0.9089  0.9377 -0.5014
 6935TIP3   OH242219   2.034   4.388  12.569 -0.4951  0.7278  0.2086
 6935TIP3    H142220   2.046   4.353  12.481 -0.1224  3.8428 -1.0996
 6935TIP3    H242221   1.941   4.372  12.588 -0.4083 -0.6313 -0.3925
 6936TIP3   OH242222   5.204   6.115   4.900 -0.0344 -0.1058 -0.1476
 6936TIP3    H142223   5.226   6.141   4.811 -1.4046  1.1228 -0.1576
 6936TIP3    H242224   5.109   6.102   4.899  0.2806 -3.2940  0.3707
 6937TIP3   OH242225   5.825   5.144   4.055  0.5736 -0.1086 -0.1700
 6937TIP3    H142226   5.876   5.186   4.125  1.0796  0.7697 -1.0472
 6937TIP3    H242227   5.891   5.108   3.996  0.1747  0.4108 -0.9441
 6938TIP3   OH242228   3.333   4.623  13.842 -0.2408 -0.2947 -0.3971
 6938TIP3    H142229   3.355   4.694  13.902  0.9344 -0.3969 -0.6929
 6938TIP3    H242230   3.262   4.659  13.788  1.0496  1.0632 -1.2609
 6939TIP3   OH242231   0.270   0.054  14.547 -0.1054 -0.2805  0.3745
 6939TIP3    H142232   0.199   0.074  14.608 -0.8433 -0.9501 -0.2553
 6939TIP3    H242233   0.341   0.022  14.602  0.7497  2.8615  1.3387
 6940TIP3   OH242234   1.726   1.908  10.559 -0.1557  0.4466 -0.1426
 6940TIP3    H142235   1.730   1.835  10.621 -0.1844 -0.3086 -1.0037
 6940TIP3    H242236   1.800   1.964  10.582  0.8332 -0.6872 -0.4589
 6941TIP3   OH242237   1.160   3.575  13.813  0.5284  0.2429  0.1181
 6941TIP3    H142238   1.191   3.655  13.856  0.2604  0.2283  0.3394
 6941TIP3    H242239   1.067   3.571  13.833  0.2459  0.5878 -1.0290
 6942TIP3   OH242240   3.526   5.600   0.316 -0.0924  0.2290  0.8218
 6942TIP3    H142241   3.471   5.640   0.383 -1.5957  0.0100 -0.2321
 6942TIP3    H242242   3.517   5.506   0.331  0.1950  0.1942  0.7862
 6943TIP3   OH242243   1.593   4.030   0.676 -0.7054 -0.2663  0.2285
 6943TIP3    H142244   1.525   4.095   0.692  0.6869  1.5545 -0.7987
 6943TIP3    H242245   1.546   3.951   0.649 -2.4411  0.3755  1.2595
 6944TIP3   OH242246   4.858   0.627  10.938 -0.4510  0.0162  0.6079
 6944TIP3    H142247   4.933   0.636  10.879 -0.1639  0.1175  0.9858
 6944TIP3    H242248   4.782   0.636  10.881 -0.1775 -0.0933  0.2199
 6945TIP3   OH242249   1.200   0.645   0.939 -0.3236  0.1994  0.0747
 6945TIP3    H142250   1.171   0.682   1.022 -0.7277  1.4529 -0.5991
 6945TIP3    H242251   1.293   0.627   0.951  0.0173  1.9308  0.2859
 6946TIP3   OH242252   0.157   4.571   1.964  0.0629 -0.7806  0.0345
 6946TIP3    H142253   0.063   4.587   1.961  0.1165 -0.5783 -0.9802
 6946TIP3    H242254   0.169   4.509   2.035 -1.0239 -2.0401 -0.8236
 6947TIP3   OH242255   1.541   4.521  15.248 -0.3290 -0.5209  0.0379
 6947TIP3    H142256   1.484   4.549  15.320  0.9670 -0.2306  0.9903
 6947TIP3    H242257   1.607   4.466  15.290  2.0053  1.7427 -0.4400
 6948TIP3   OH242258   4.195   5.993  11.644 -0.5526  0.2709  0.7041
 6948TIP3    H142259   4.219   5.912  11.598 -0.5113  0.6495  0.0350
 6948TIP3    H242260   4.220   6.063  11.583 -0.7084  0.7817  1.2175
 6949TIP3   OH242261   0.174   2.874  15.323 -1.0377  0.2833  0.3959
 6949TIP3    H142262   0.259   2.858  15.363 -0.2913  0.1194 -1.1928
 6949TIP3    H242263   0.126   2.925  15.389  0.7536  1.5340  0.8234
 6950TIP3   OH242264   1.319   5.307   4.081 -0.0557  0.0433 -0.8750
 6950TIP3    H142265   1.235   5.353   4.087 -0.0214 -0.0074  0.1685
 6950TIP3    H242266   1.343   5.313   3.988 -0.4168  1.4717 -0.9057
 6951TIP3   OH242267   4.562   2.223   3.383 -0.0228 -0.1998  0.1267
 6951TIP3    H142268   4.504   2.158   3.421 -2.1082 -0.0862 -2.5466
 6951TIP3    H242269   4.505   2.297   3.363  1.1995  0.3148 -1.7420
 6952TIP3   OH242270   1.489   4.162  16.654 -0.1286  0.3293  0.2691
 6952TIP3    H142271   1.414   4.208  16.691  1.1606  2.6699  0.1264
 6952TIP3    H242272   1.475   4.070  16.679 -1.3508  1.1725  3.1029
 6953TIP3   OH242273   5.375   5.821   1.214  0.0680 -0.0047  0.3552
 6953TIP3    H142274   5.373   5.732   1.178  0.9175  0.0194  0.2126
 6953TIP3    H242275   5.310   5.820   1.284 -1.1982 -0.2293 -0.7781
 6954TIP3   OH242276   4.583   2.581  11.800  0.3971 -0.3772  0.7414
 6954TIP3    H142277   4.661   2.601  11.852  0.1306 -0.1032  1.0369
 6954TIP3    H242278   4.562   2.663  11.756  0.0590 -0.3493  0.9528
 6955TIP3   OH242279   2.553   5.555   1.022  0.7695 -0.1614  0.5590
 6955TIP3    H142280   2.610   5.516   1.088  0.8124  0.6643  1.0140
 6955TIP3    H242281   2.612   5.603   0.964  0.7210 -0.8016 -0.0365
 6956TIP3   OH242282   2.234   1.825  15.585  0.0732  0.1825  0.5841
 6956TIP3    H142283   2.170   1.886  15.546  0.5007  0.4017  0.2213
 6956TIP3    H242284   2.272   1.780  15.510  1.6396  1.3217  0.6534
 6957TIP3   OH242285   2.519   5.343  16.080  0.3449  0.1168 -0.0010
 6957TIP3    H142286   2.566   5.278  16.029  0.5930 -0.6490  1.1815
 6957TIP3    H242287   2.567   5.425  16.066  1.3234 -0.4107  0.2464
 6958TIP3   OH242288   5.986   6.014   0.914  0.8268 -0.7629  0.5720
 6958TIP3    H142289   5.985   5.955   0.838  1.8759 -0.2586  0.1515
 6958TIP3    H242290   6.045   6.085   0.888 -0.9885  0.8957  0.7576
 6959TIP3   OH242291   1.506   4.413   5.168  0.3615  0.4056  0.2464
 6959TIP3    H142292   1.600   4.407   5.181  0.2992  1.4633  1.3979
 6959TIP3    H242293   1.469   4.386   5.253 -0.3953 -0.4062 -0.3204
 6960TIP3   OH242294   0.641   2.319   4.339 -0.1882 -1.1649  0.3449
 6960TIP3    H142295   0.597   2.342   4.421 -0.1594 -0.2141  0.1047
 6960TIP3    H242296   0.570   2.302   4.277 -0.2375 -0.3193  0.1489
 6961TIP3   OH242297   2.196   3.713  11.480 -0.4552 -0.1375  0.2433
 6961TIP3    H142298   2.133   3.785  11.487 -0.1928  0.0508  0.6766
 6961TIP3    H242299   2.207   3.682  11.570  0.1526 -0.1046  0.1811
 6962TIP3   OH242300   6.253   0.722  12.533  0.1726  0.7740  0.0164
 6962TIP3    H142301   6.218   0.750  12.449  1.0058 -0.8835 -0.9407
 6962TIP3    H242302   6.348   0.732  12.524  0.5854 -2.3925 -0.5362
 6963TIP3   OH242303   4.609   0.058   4.804 -0.1907 -0.3186 -0.5688
 6963TIP3    H142304   4.607  -0.021   4.858  2.0680  0.4081  0.7266
 6963TIP3    H242305   4.648   0.030   4.721  1.2862 -0.4860  0.1468
 6964TIP3   OH242306   2.985   4.278   2.470  0.0004 -0.2592 -0.0874
 6964TIP3    H142307   3.004   4.261   2.377 -0.6179 -0.3582 -0.2024
 6964TIP3    H242308   3.053   4.231   2.517 -0.1067 -0.8261 -0.4791
 6965TIP3   OH242309   1.489   5.979  14.846  0.1778 -0.3249  0.3539
 6965TIP3    H142310   1.485   5.953  14.938 -0.1837  0.9592  0.7203
 6965TIP3    H242311   1.581   5.999  14.831 -0.0521  1.4490  1.0445
 6966TIP3   OH242312   6.373   5.861   4.428 -0.4577  0.3914  0.0145
 6966TIP3    H142313   6.346   5.814   4.507  0.1301 -0.9556 -0.5647
 6966TIP3    H242314   6.347   5.804   4.356  0.8028  0.6610 -0.6820
 6967TIP3   OH242315   5.469   3.701   2.197 -0.3302 -0.1391  0.1192
 6967TIP3    H142316   5.528   3.729   2.267  0.3804 -1.6836  0.1770
 6967TIP3    H242317   5.525   3.692   2.121 -0.6303 -0.9087 -0.0167
 6968TIP3   OH242318   0.038   1.340   4.091 -0.1223  0.4258  0.8850
 6968TIP3    H142319   0.134   1.347   4.086 -0.1306  0.3183  0.5267
 6968TIP3    H242320   0.018   1.353   4.183  0.2438  0.3936  0.9722
 6969TIP3   OH242321   2.953   5.111   1.382  0.2543 -0.3046 -0.2187
 6969TIP3    H142322   2.892   5.139   1.450 -0.5815 -0.9514 -0.6799
 6969TIP3    H242323   2.986   5.193   1.344 -0.3281  0.0582  0.0456
 6970TIP3   OH242324   0.173   3.518  16.906 -0.4945  0.3313 -0.4471
 6970TIP3    H142325   0.246   3.515  16.968 -0.8477  0.8304  0.0010
 6970TIP3    H242326   0.107   3.460  16.944 -1.1695  1.5164  0.2607
 6971TIP3   OH242327   0.536   1.721  14.150 -0.5929 -0.0399 -0.4721
 6971TIP3    H142328   0.489   1.639  14.136 -0.4499 -0.0933 -0.6459
 6971TIP3    H242329   0.624   1.694  14.176 -0.1678  0.0465 -1.7530
 6972TIP3   OH242330   0.318   2.946   0.577  0.7009  0.6994  0.5698
 6972TIP3    H142331   0.257   2.878   0.605  0.9504 -0.2878 -1.1402
 6972TIP3    H242332   0.271   3.028   0.592 -0.3879  0.0528  0.8418
 6973TIP3   OH242333   1.939   5.824  14.455  0.3710 -0.1832 -0.6032
 6973TIP3    H142334   2.026   5.840  14.491 -1.1427  3.1984  2.0894
 6973TIP3    H242335   1.944   5.854  14.365  1.8380  0.6205 -0.2867
 6974TIP3   OH242336   6.540   4.714   4.380  0.0608 -0.1367 -0.4200
 6974TIP3    H142337   6.532   4.687   4.472  0.3623  1.6796  0.1860
 6974TIP3    H242338   6.580   4.801   4.384 -0.0679  0.0512 -2.2823
 6975TIP3   OH242339   0.076   1.650  10.938 -0.2320  0.2426 -0.4814
 6975TIP3    H142340   0.029   1.639  10.855 -1.7144  0.3460  0.3085
 6975TIP3    H242341   0.162   1.683  10.913  0.5132 -2.5849 -2.2127
 6976TIP3   OH242342   4.147   2.981  12.267 -0.3505  0.1189 -0.0161
 6976TIP3    H142343   4.183   2.996  12.354  1.0444  0.6393 -0.6516
 6976TIP3    H242344   4.224   2.965  12.212 -1.2520 -0.9299 -1.0163
 6977TIP3   OH242345   3.888   4.532   2.299  0.6866  0.0789  0.7443
 6977TIP3    H142346   3.796   4.558   2.303 -0.1920 -2.1692 -1.9552
 6977TIP3    H242347   3.900   4.473   2.374 -0.6268 -1.0443  0.1034
 6978TIP3   OH242348   1.366   2.350  11.463  0.0826 -0.8489 -0.3242
 6978TIP3    H142349   1.427   2.403  11.411 -0.3950  1.1734  1.0353
 6978TIP3    H242350   1.286   2.403  11.467  0.5945 -0.0707  3.6654
 6979TIP3   OH242351   1.860   6.385  16.376  0.1488  0.6386  0.3722
 6979TIP3    H142352   1.929   6.358  16.315 -0.5359 -0.9472  0.2575
 6979TIP3    H242353   1.782   6.394  16.321 -1.0192 -2.9223  1.1886
 6980TIP3   OH242354   5.704   1.341   2.172  0.1351 -0.4912  0.3387
 6980TIP3    H142355   5.639   1.409   2.188  2.2703  1.9088 -0.3748
 6980TIP3    H242356   5.786   1.390   2.159  1.3551 -3.0114 -2.8838
 6981TIP3   OH242357   2.383   4.578  15.652 -0.1675 -0.0932 -0.2360
 6981TIP3    H142358   2.368   4.626  15.733 -0.4247 -0.1147 -0.2713
 6981TIP3    H242359   2.444   4.633  15.603  0.3054 -0.2659  0.1373
 6982TIP3   OH242360   2.435   6.475   3.910  0.3880  0.2299  0.2959
 6982TIP3    H142361   2.441   6.482   3.815  1.0374  0.5965  0.3588
 6982TIP3    H242362   2.465   6.560   3.942 -0.3650  0.3098  0.8154
 6983TIP3   OH242363   5.768   3.048   0.828  0.2282  0.3844 -0.3764
 6983TIP3    H142364   5.837   3.093   0.779 -0.0348  0.8314 -0.3493
 6983TIP3    H242365   5.741   3.112   0.895 -0.1899  0.2078 -0.3716
 6984TIP3   OH242366   1.686   2.239  10.921  0.0287  0.0444 -0.3042
 6984TIP3    H142367   1.646   2.169  10.869  1.8039  0.7276 -2.8153
 6984TIP3    H242368   1.771   2.202  10.948  0.2856  0.6441 -0.2860
 6985TIP3   OH242369   4.582   1.133  13.278  0.2989 -0.5024 -0.0396
 6985TIP3    H142370   4.611   1.153  13.367  0.4270 -1.7551  0.2192
 6985TIP3    H242371   4.654   1.162  13.222  0.9636 -1.2430  0.4086
 6986TIP3   OH242372   5.482   6.128   2.082 -0.2442 -0.1757 -0.1615
 6986TIP3    H142373   5.548   6.180   2.127 -0.7574 -0.6466  1.1780
 6986TIP3    H242374   5.484   6.043   2.126 -0.1639 -0.9667 -1.6079
 6987TIP3   OH242375   0.692   6.443   3.595  0.5908 -0.4992  0.4342
 6987TIP3    H142376   0.689   6.532   3.630  0.9138  0.4541 -1.7723
 6987TIP3    H242377   0.688   6.455   3.500 -0.0086 -2.8871  0.0967
 6988TIP3   OH242378   0.883   0.286  15.355  0.2407  0.1732  0.1913
 6988TIP3    H142379   0.816   0.309  15.420  0.5114  0.5272  0.3481
 6988TIP3    H242380   0.834   0.275  15.273 -0.1146 -0.3661  0.4675
 6989TIP3   OH242381   3.599   4.372   3.922 -0.8181  0.2137  0.5311
 6989TIP3    H142382   3.573   4.434   3.854 -0.0109  0.2278  0.2282
 6989TIP3    H242383   3.562   4.288   3.893 -1.0865  0.3619  0.4461
 6990TIP3   OH242384   3.374   2.573  13.779  0.1512  0.8499  0.3998
 6990TIP3    H142385   3.405   2.485  13.759 -0.8667  1.0408 -2.5473
 6990TIP3    H242386   3.453   2.624  13.796  0.8207 -0.3881  1.0509
 6991TIP3   OH242387   1.078   6.213   1.044 -1.0658 -0.0127  0.0193
 6991TIP3    H142388   1.165   6.183   1.018 -1.3841 -1.0297  0.0805
 6991TIP3    H242389   1.033   6.134   1.074 -1.4643  0.7587  1.5610
 6992TIP3   OH242390   0.422   1.504  14.070 -0.0812 -0.2079 -0.2296
 6992TIP3    H142391   0.363   1.532  14.000  0.3721  1.0387 -0.1376
 6992TIP3    H242392   0.389   1.418  14.097 -0.9034 -0.2211 -1.2343
 6993TIP3   OH242393   2.795   2.385  16.975  0.0607 -0.7484  0.3022
 6993TIP3    H142394   2.711   2.340  16.970 -0.1832 -0.9863  3.7132
 6993TIP3    H242395   2.776   2.464  17.027  1.8012 -0.4838  0.5846
 6994TIP3   OH242396   1.080   0.352   2.067  0.5117  0.0926 -0.1803
 6994TIP3    H142397   1.141   0.352   2.140  2.0456  1.7931 -1.3790
 6994TIP3    H242398   1.070   0.259   2.045 -1.3680 -0.6702  3.1534
 6995TIP3   OH242399   2.218   0.415   1.172  0.2826  0.3965  0.3084
 6995TIP3    H142400   2.132   0.422   1.213  1.5416  1.3224  3.0441
 6995TIP3    H242401   2.258   0.338   1.213  0.9757  0.3136 -0.5024
 6996TIP3   OH242402   0.798   1.493  14.504  0.3773  0.4741  0.3371
 6996TIP3    H142403   0.758   1.408  14.524  1.2670  0.0097  0.1601
 6996TIP3    H242404   0.780   1.507  14.411  2.0083 -0.5025 -0.1510
 6997TIP3   OH242405   3.157   1.171  16.532 -0.1292 -0.1402 -0.1237
 6997TIP3    H142406   3.101   1.141  16.603 -0.1004 -1.6081 -0.6868
 6997TIP3    H242407   3.237   1.118  16.540  1.9677  2.9590  1.6430
 6998TIP3   OH242408   5.399   3.674  15.551  0.2504  0.8448 -0.2704
 6998TIP3    H142409   5.355   3.694  15.634 -1.2516  2.4812 -1.3942
 6998TIP3    H242410   5.473   3.735  15.548  2.5556 -1.6140  1.4145
 6999TIP3   OH242411   1.701   2.056   1.482 -0.3423 -0.2286  0.0453
 6999TIP3    H142412   1.621   2.032   1.436 -0.6407 -0.1911  0.5273
 6999TIP3    H242413   1.772   2.032   1.423 -0.6802 -1.0114 -0.0481
 7000TIP3   OH242414   6.174   5.741  13.445  0.3605 -0.4315 -0.7179
 7000TIP3    H142415   6.208   5.807  13.385  1.3627  0.2336  0.5088
 7000TIP3    H242416   6.249   5.721  13.502 -0.7813 -0.3074  0.8992
 7001TIP3   OH242417   0.793   0.233  15.804  0.5040 -0.5075  0.2840
 7001TIP3    H142418   0.712   0.189  15.828 -0.7362  1.7035  0.4201
 7001TIP3    H242419   0.861   0.167  15.819 -1.1283 -2.0760  1.2360
 7002TIP3   OH242420   1.258   4.533  11.645  0.6320  0.2221 -0.0042
 7002TIP3    H142421   1.265   4.628  11.629  0.3962  0.2163 -0.1625
 7002TIP3    H242422   1.334   4.512  11.698  0.3843  0.6066  0.5170
 7003TIP3   OH242423   5.486   2.992  14.517  0.0687  0.0406  0.0544
 7003TIP3    H142424   5.419   2.948  14.464 -0.2075  0.5837 -0.0551
 7003TIP3    H242425   5.456   3.083  14.523  0.5270  0.1704  0.4497
 7004TIP3   OH242426   4.840   0.811  13.609  0.6595 -0.0880  0.2285
 7004TIP3    H142427   4.878   0.860  13.682  0.0456 -0.1398  0.5924
 7004TIP3    H242428   4.745   0.816  13.624  0.4823  0.5587 -0.9863
 7005TIP3   OH242429   6.679   6.124  10.131  0.6392 -0.5779 -0.0331
 7005TIP3    H142430   6.658   6.205  10.177  2.9576  0.9172 -1.4456
 7005TIP3    H242431   6.610   6.115  10.065 -0.3457 -0.4972  0.9523
 7006TIP3   OH242432   4.453   3.517  11.167 -0.0120 -0.1132  0.2183
 7006TIP3    H142433   4.469   3.603  11.206 -2.6097  0.1299  0.9470
 7006TIP3    H242434   4.524   3.506  11.104  2.2946  1.0791  2.4274
 7007TIP3   OH242435   6.494   2.568   0.935  0.1165 -0.0605 -0.2553
 7007TIP3    H142436   6.495   2.507   1.008 -1.1185  0.8535  0.5699
 7007TIP3    H242437   6.418   2.543   0.883  0.2400  0.0892 -0.5110
 7008TIP3   OH242438   1.185   2.296  15.528  0.0346  0.2327  0.1070
 7008TIP3    H142439   1.165   2.233  15.597 -2.0362  0.8794  0.1590
 7008TIP3    H242440   1.176   2.246  15.447 -1.4887  0.3884  0.1541
 7009TIP3   OH242441   5.827   6.410  12.053  0.6954  0.1829  0.5695
 7009TIP3    H142442   5.913   6.440  12.083  0.3634  0.5831  1.1481
 7009TIP3    H242443   5.818   6.448  11.966  2.8648 -3.2958 -1.3733
 7010TIP3   OH242444   1.004   2.228  13.914  0.3815  0.2286  0.4306
 7010TIP3    H142445   1.094   2.257  13.897  0.7517 -0.9639  0.2905
 7010TIP3    H242446   0.998   2.222  14.009  1.1255 -1.6643  0.3998
 7011TIP3   OH242447   4.505   3.504   3.590 -0.2827 -0.0483 -0.6070
 7011TIP3    H142448   4.519   3.463   3.675  0.0522 -0.5346 -0.8880
 7011TIP3    H242449   4.466   3.589   3.610 -2.0243 -0.9361 -0.0468
 7012TIP3   OH242450   6.498   4.821   4.948  0.1244 -0.4119  0.4491
 7012TIP3    H142451   6.572   4.851   4.895  0.8472  0.7718  2.0603
 7012TIP3    H242452   6.426   4.813   4.885  0.6306  2.0867 -0.5708
 7013TIP3   OH242453   2.719   3.119  10.675 -0.0909  0.1523 -0.5313
 7013TIP3    H142454   2.814   3.117  10.664  0.1941 -1.0905  1.6773
 7013TIP3    H242455   2.698   3.037  10.719 -1.9010  1.3571  1.0034
 7014TIP3   OH242456   6.234   6.268  12.323  0.3296 -0.0216  0.0093
 7014TIP3    H142457   6.228   6.174  12.308  1.4153 -0.1012  0.0179
 7014TIP3    H242458   6.321   6.292  12.292 -0.3938  1.2094 -1.1921
 7015TIP3   OH242459   6.154   4.619  11.348 -0.5398  0.5825  0.2720
 7015TIP3    H142460   6.074   4.605  11.398 -1.2429 -0.1430 -0.9923
 7015TIP3    H242461   6.224   4.589  11.405 -1.4349 -1.6369  0.3155
 7016TIP3   OH242462   4.624   4.777   3.990  0.1896 -0.7805 -0.0765
 7016TIP3    H142463   4.624   4.833   3.912 -3.3263 -1.4982 -0.7428
 7016TIP3    H242464   4.550   4.808   4.042  2.1320 -0.6494  2.8803
 7017TIP3   OH242465   5.853   0.078   2.605 -0.3669  0.4492  0.3551
 7017TIP3    H142466   5.944   0.076   2.574 -0.3285  0.9823  0.4236
 7017TIP3    H242467   5.861   0.077   2.701 -0.3930  1.6703  0.3773
 7018TIP3   OH242468   4.266   5.888  16.910  0.1259 -0.0891 -0.0121
 7018TIP3    H142469   4.211   5.928  16.977 -0.9145  1.3078 -1.6139
 7018TIP3    H242470   4.353   5.883  16.949 -0.6582 -0.3548  1.8080
 7019TIP3   OH242471   2.341   2.429   3.012  0.3448 -0.6728 -0.5347
 7019TIP3    H142472   2.353   2.490   2.939 -0.1614 -0.8786 -0.7901
 7019TIP3    H242473   2.265   2.463   3.059  0.2801 -0.9036 -0.4743
 7020TIP3   OH242474   4.009   4.818   4.526 -0.2870  0.5114 -0.2884
 7020TIP3    H142475   3.955   4.744   4.499 -0.0442 -0.3069  1.3345
 7020TIP3    H242476   4.019   4.871   4.447 -0.7072 -1.0380 -1.4229
 7021TIP3   OH242477   5.700   1.457   0.315 -0.6354 -0.3068  0.2094
 7021TIP3    H142478   5.723   1.550   0.305  0.8126 -0.6982 -0.4452
 7021TIP3    H242479   5.722   1.436   0.406  0.1456 -0.2740  0.0363
 7022TIP3   OH242480   6.729   5.632  13.534  0.0390  0.0622 -0.6883
 7022TIP3    H142481   6.812   5.589  13.514 -0.4491 -1.8777  1.1072
 7022TIP3    H242482   6.739   5.721  13.500  2.4030 -0.4520 -1.5178
 7023TIP3   OH242483   4.910   5.653  15.736  0.0463 -0.7112 -0.0680
 7023TIP3    H142484   4.988   5.674  15.788  1.1898 -0.3943 -1.8084
 7023TIP3    H242485   4.840   5.706  15.775  0.8606 -0.4905  1.1294
 7024TIP3   OH242486   6.752   6.024   2.944 -0.0661 -0.7114  0.4340
 7024TIP3    H142487   6.730   6.091   2.878  1.1009 -0.0259  0.7082
 7024TIP3    H242488   6.740   5.941   2.899 -1.7890 -0.3641  0.1507
 7025TIP3   OH242489   0.186   3.319   3.097 -0.8192 -0.4268 -0.2153
 7025TIP3    H142490   0.273   3.348   3.071 -1.7896  1.0921 -2.0974
 7025TIP3    H242491   0.201   3.244   3.154  1.7725  1.3536  1.6482
 7026TIP3   OH242492   5.528   4.865  13.888  0.5373 -0.4140 -0.0778
 7026TIP3    H142493   5.585   4.891  13.816  0.0977  0.7767 -0.0170
 7026TIP3    H242494   5.501   4.775  13.866  1.0202 -0.3484 -0.9915
 7027TIP3   OH242495   3.080   2.156  11.980 -0.1345 -0.1411  0.2469
 7027TIP3    H142496   3.005   2.127  11.928 -0.2256 -3.4479  1.9680
 7027TIP3    H242497   3.040   2.201  12.055 -0.1498  1.5100 -0.7090
 7028TIP3   OH242498   6.779   4.912   2.480 -0.1021  0.2794  0.0537
 7028TIP3    H142499   6.859   4.901   2.531 -0.2884  0.1152  0.3095
 7028TIP3    H242500   6.742   4.995   2.510  0.8755  1.2633 -1.2988
 7029TIP3   OH242501   1.371   1.298   2.628 -0.3898  0.4234 -0.4226
 7029TIP3    H142502   1.359   1.391   2.645 -0.9491  0.1374  0.8974
 7029TIP3    H242503   1.344   1.255   2.709  0.4957 -0.8546 -0.7660
 7030TIP3   OH242504   4.425   0.151   0.812 -0.3416  0.0827 -0.2559
 7030TIP3    H142505   4.479   0.223   0.779 -0.7119  0.8626  0.7838
 7030TIP3    H242506   4.478   0.111   0.881 -0.0319 -0.8196 -1.0037
 7031TIP3   OH242507   4.787   1.345  11.612  0.1974 -0.6552  0.1650
 7031TIP3    H142508   4.873   1.305  11.601 -0.6368 -3.5520  2.7961
 7031TIP3    H242509   4.792   1.389  11.697 -0.5741  0.2408 -0.2400
 7032TIP3   OH242510   1.593   1.829  15.977 -0.5413 -0.2082  0.2103
 7032TIP3    H142511   1.628   1.745  15.949 -1.3851 -0.2065 -0.9093
 7032TIP3    H242512   1.670   1.886  15.986  0.1140 -1.2556  1.6679
 7033TIP3   OH242513   0.721   3.117   0.258  0.3619  0.5488 -0.0027
 7033TIP3    H142514   0.719   3.045   0.195 -0.5714 -0.0951  0.7352
 7033TIP3    H242515   0.680   3.082   0.337  0.4370  1.7039  0.5814
 7034TIP3   OH242516   3.389   2.462  16.505  0.1881 -0.1329 -0.0497
 7034TIP3    H142517   3.316   2.524  16.497  0.8550  0.5685 -0.7585
 7034TIP3    H242518   3.373   2.418  16.589 -1.4860 -0.5739 -0.5592
 7035TIP3   OH242519   5.371   5.625  11.160 -0.0709  0.1497 -0.3602
 7035TIP3    H142520   5.399   5.702  11.209  1.7281 -1.2537  0.9571
 7035TIP3    H242521   5.291   5.596  11.203  0.2311  0.2510  0.2734
 7036TIP3   OH242522   0.647   3.261   5.757 -0.1094  0.5854 -0.8676
 7036TIP3    H142523   0.676   3.178   5.795 -1.4615 -0.2461 -1.5625
 7036TIP3    H242524   0.559   3.274   5.793  0.3617  2.0967 -0.2150
 7037TIP3   OH242525   5.700   3.597  16.248  0.3216 -0.2399 -0.0366
 7037TIP3    H142526   5.657   3.658  16.189  1.0058  0.7323  0.4411
 7037TIP3    H242527   5.630   3.539  16.279 -0.2972  0.1631 -0.6662
 7038TIP3   OH242528   0.731   0.802   0.474 -0.4512 -0.3501 -0.6057
 7038TIP3    H142529   0.696   0.792   0.563 -0.1745  1.3910 -0.2638
 7038TIP3    H242530   0.662   0.768   0.417 -0.6393 -1.4799  0.2640
 7039TIP3   OH242531   2.626   1.422   2.770 -0.4144  0.4242 -0.6372
 7039TIP3    H142532   2.540   1.418   2.812 -1.0039 -2.7766 -1.8398
 7039TIP3    H242533   2.607   1.414   2.677  1.1769 -0.0794 -0.9428
 7040TIP3   OH242534   3.288   5.593  10.864 -0.4851  0.1878  0.0978
 7040TIP3    H142535   3.308   5.546  10.783 -0.3836 -1.4421  1.0329
 7040TIP3    H242536   3.219   5.655  10.839  1.1200  1.3643 -1.7227
 7041TIP3   OH242537   4.548   1.704  14.722  0.4680  0.8509  0.2900
 7041TIP3    H142538   4.538   1.636  14.655  1.9222  1.4447 -0.5777
 7041TIP3    H242539   4.606   1.768  14.682  0.0530  2.0400  1.5304
 7042TIP3   OH242540   1.358   4.141   4.819 -0.0957 -0.3459  0.4684
 7042TIP3    H142541   1.268   4.147   4.852  0.4819 -2.2169  2.6923
 7042TIP3    H242542   1.400   4.222   4.848 -0.7655  0.0006  0.4801
 7043TIP3   OH242543   1.661   0.298   5.632 -0.0316  0.0000 -0.5784
 7043TIP3    H142544   1.707   0.232   5.580 -0.5289 -0.0078 -1.0140
 7043TIP3    H242545   1.591   0.251   5.676 -1.4312  0.4949 -2.1860
 7044TIP3   OH242546   2.424   3.130  14.783 -0.0687  0.5334 -0.4612
 7044TIP3    H142547   2.333   3.161  14.783 -0.7045 -1.2013 -1.0688
 7044TIP3    H242548   2.423   3.055  14.843  0.8356  0.1713 -0.8869
 7045TIP3   OH242549   3.254   4.012  13.145  0.0101 -0.2977 -0.6724
 7045TIP3    H142550   3.183   4.076  13.153  0.0444  0.2247 -3.5153
 7045TIP3    H242551   3.240   3.952  13.217 -2.1787  0.8879 -0.0177
 7046TIP3   OH242552   3.624   2.003  13.732  0.7746 -0.3349  0.6203
 7046TIP3    H142553   3.654   1.944  13.663 -0.5391  0.1412 -0.3922
 7046TIP3    H242554   3.702   2.054  13.756  1.4089 -1.0044  0.0156
 7047TIP3   OH242555   4.572   1.789  12.769 -1.1783  0.3053  0.3189
 7047TIP3    H142556   4.649   1.754  12.813 -1.4284  0.2796  0.7411
 7047TIP3    H242557   4.531   1.847  12.834 -0.2581  2.1347 -0.6743
 7048TIP3   OH242558   4.441   6.414   3.305  0.1501  0.0270 -0.6789
 7048TIP3    H142559   4.438   6.446   3.395 -1.9826 -2.3184  0.2305
 7048TIP3    H242560   4.357   6.439   3.267  0.5629  0.0079 -1.6414
 7049TIP3   OH242561   2.918   5.997   0.603  0.3437  0.2017  0.8706
 7049TIP3    H142562   2.888   5.925   0.658  1.8792  0.2288  1.7938
 7049TIP3    H242563   2.992   6.034   0.650  1.5091  0.4456 -1.0556
 7050TIP3   OH242564   3.236   0.838  16.964  0.1982  0.2281  0.1130
 7050TIP3    H142565   3.297   0.776  17.004 -0.1214 -0.1767 -0.0232
 7050TIP3    H242566   3.186   0.874  17.037 -0.8403 -1.0011  0.0217
 7051TIP3   OH242567   5.963   5.550   0.469  0.0819 -0.5576  0.2088
 7051TIP3    H142568   5.871   5.531   0.452 -0.8581  3.1106  0.4261
 7051TIP3    H242569   6.005   5.538   0.384 -0.9302 -0.5708 -0.3086
 7052TIP3   OH242570   1.986   2.892   2.321  0.2900  0.3769  0.4265
 7052TIP3    H142571   1.950   2.966   2.370  0.3062 -0.6174  1.9973
 7052TIP3    H242572   2.010   2.828   2.388  0.3834 -1.0134 -0.8913
 7053TIP3   OH242573   4.622   6.784  13.731  0.4583 -0.1896  0.4198
 7053TIP3    H142574   4.531   6.796  13.705  0.6803 -0.7153 -0.6374
 7053TIP3    H242575   4.622   6.798  13.826  0.0215  4.3728 -0.0138
 7054TIP3   OH242576   1.346   1.815  12.942  0.1466  0.0948 -0.4728
 7054TIP3    H142577   1.429   1.862  12.936 -0.1246  0.4851 -1.4206
 7054TIP3    H242578   1.329   1.785  12.853 -0.2457 -0.8284 -0.0948
 7055TIP3   OH242579   2.010   2.555  13.355  0.1482  0.0477  0.0564
 7055TIP3    H142580   1.962   2.478  13.383  0.6872 -0.2570  0.1558
 7055TIP3    H242581   2.019   2.609  13.433  1.7229 -0.8392  0.5377
 7056TIP3   OH242582   4.608   5.545  15.599  0.9958  0.0467  0.1145
 7056TIP3    H142583   4.530   5.499  15.568  1.2502 -1.2056  1.2384
 7056TIP3    H242584   4.678   5.513  15.542  1.1271 -0.8022  0.7336
 7057TIP3   OH242585   3.497   3.058  13.254 -0.8580  0.0632 -0.1017
 7057TIP3    H142586   3.435   3.058  13.181 -1.9624  0.0869  0.8237
 7057TIP3    H242587   3.444   3.074  13.332  0.2592 -0.2725  0.7587
 7058TIP3   OH242588   1.420   4.914   6.091 -0.1652 -0.6423  0.1119
 7058TIP3    H142589   1.504   4.930   6.135  1.3703 -1.4082 -2.3688
 7058TIP3    H242590   1.400   4.996   6.046  0.4746 -1.1587 -1.1595
 7059TIP3   OH242591   5.583   3.997  16.358  0.5097 -0.1014 -0.2440
 7059TIP3    H142592   5.505   3.942  16.352  0.9124 -0.5235 -2.5937
 7059TIP3    H242593   5.549   4.086  16.360 -0.0698 -0.3092  1.4640
 7060TIP3   OH242594   4.954   2.714  13.407  1.1457  0.6670  0.0156
 7060TIP3    H142595   4.915   2.640  13.360 -1.6391  1.4668  0.8682
 7060TIP3    H242596   5.003   2.762  13.341  0.6897 -0.4315 -1.1468
 7061TIP3   OH242597   2.766   4.056  16.132 -0.7305 -0.1688 -0.6773
 7061TIP3    H142598   2.697   4.061  16.198  0.6833 -1.5173  1.0006
 7061TIP3    H242599   2.786   3.963  16.125 -0.9137 -0.0813 -3.1548
 7062TIP3   OH242600   6.425   1.741  12.091  0.4542  0.1645  0.5319
 7062TIP3    H142601   6.399   1.682  12.020  1.3471  1.9174 -1.3873
 7062TIP3    H242602   6.346   1.792  12.110  0.1166 -0.5464  1.0794
 7063TIP3   OH242603   2.254   4.470  13.190  0.0496 -0.2317  0.2597
 7063TIP3    H142604   2.255   4.380  13.221 -1.4926 -0.4406 -0.1878
 7063TIP3    H242605   2.318   4.473  13.120  0.0299 -1.0112  0.2013
 7064TIP3   OH242606   1.752   4.328  14.621  0.7008  0.0873 -0.3283
 7064TIP3    H142607   1.748   4.237  14.593 -1.4719  0.2681 -0.7639
 7064TIP3    H242608   1.822   4.330  14.686  0.8466 -1.8695 -0.3659
 7065TIP3   OH242609   5.286   5.259  13.124 -0.3245  0.8223 -0.1783
 7065TIP3    H142610   5.348   5.207  13.073 -0.4228  0.1940  0.3292
 7065TIP3    H242611   5.201   5.219  13.107 -0.5996  1.6582 -0.8422
 7066TIP3   OH242612   3.210   0.503  13.950 -0.3036 -0.1284 -0.0600
 7066TIP3    H142613   3.295   0.518  13.991 -1.2023 -0.2570  1.9529
 7066TIP3    H242614   3.175   0.591  13.934 -0.3893 -0.0690  0.4385
 7067TIP3   OH242615   3.682   2.482   1.604  0.1198 -0.6223 -0.1423
 7067TIP3    H142616   3.720   2.396   1.620  1.3932 -0.0210  0.2217
 7067TIP3    H242617   3.695   2.497   1.510 -1.0882 -1.2607 -0.4290
 7068TIP3   OH242618   5.983   0.271   4.658  0.2053 -0.4298 -0.2764
 7068TIP3    H142619   5.916   0.202   4.660 -0.9443  0.5303 -2.1724
 7068TIP3    H242620   5.974   0.317   4.741  0.4843 -2.0731  0.6968
 7069TIP3   OH242621   2.806   0.651   2.149  0.3859  0.3824 -0.3140
 7069TIP3    H142622   2.806   0.561   2.117  1.2032 -0.4855  1.9076
 7069TIP3    H242623   2.714   0.671   2.167  0.0714  0.4342 -1.8609
 7070TIP3   OH242624   0.728   5.561  12.940  0.0229  0.3582  0.1685
 7070TIP3    H142625   0.772   5.645  12.952 -0.5128  0.5720  0.6912
 7070TIP3    H242626   0.759   5.507  13.013  1.2530 -0.2990 -0.7985
 7071TIP3   OH242627   5.383   6.169  14.925  0.3499 -0.4839  0.5416
 7071TIP3    H142628   5.439   6.197  14.853 -0.9592 -0.3206 -0.4593
 7071TIP3    H242629   5.437   6.178  15.003  1.9812 -1.1714 -0.4739
 7072TIP3   OH242630   6.688   5.899   4.680 -0.6424  0.3407  0.2745
 7072TIP3    H142631   6.654   5.813   4.705  1.7354 -0.4278  1.1602
 7072TIP3    H242632   6.648   5.960   4.742 -0.1181 -0.5845  1.5707
 7073TIP3   OH242633   4.153   4.430  17.149 -0.4118 -0.1423 -0.1536
 7073TIP3    H142634   4.219   4.479  17.198  0.5235  0.1708 -1.6545
 7073TIP3    H242635   4.152   4.343  17.189  1.2873 -0.3137 -0.4270
 7074TIP3   OH242636   2.201   3.850   0.419  0.0137  0.6115 -0.1437
 7074TIP3    H142637   2.249   3.844   0.336  0.2840 -2.0023  0.1285
 7074TIP3    H242638   2.265   3.825   0.486 -0.1057  3.0080  0.9631
 7075TIP3   OH242639   5.151   0.649   4.942 -0.1743  0.3681 -0.1339
 7075TIP3    H142640   5.120   0.645   4.852 -0.0476  2.0576 -0.2826
 7075TIP3    H242641   5.072   0.661   4.994 -0.1711  0.1835 -0.0842
 7076TIP3   OH242642   2.585   3.881   3.079 -0.0843  0.1790  0.3661
 7076TIP3    H142643   2.657   3.896   3.140  1.1118 -0.2405 -0.9078
 7076TIP3    H242644   2.549   3.796   3.106 -0.4559  0.6216  1.3207
 7077TIP3   OH242645   1.344   4.639  13.109  0.0223  0.1155 -0.6512
 7077TIP3    H142646   1.408   4.609  13.174  0.5805  0.5620 -0.9815
 7077TIP3    H242647   1.383   4.616  13.025 -0.4527  0.0185 -0.8488
 7078TIP3   OH242648   0.197   4.259   2.788  0.4568  0.6734 -0.4694
 7078TIP3    H142649   0.178   4.256   2.882 -0.2666 -2.1647 -0.6048
 7078TIP3    H242650   0.125   4.310   2.751 -1.5671 -1.5175  0.1676
 7079TIP3   OH242651   2.018   6.571  16.544 -0.4022 -0.1938  0.1352
 7079TIP3    H142652   2.005   6.513  16.619 -2.3808  0.6938  0.5448
 7079TIP3    H242653   1.964   6.534  16.474  3.2160 -2.3760 -1.8017
 7080TIP3   OH242654   2.109   3.675  16.341 -0.2776  0.0363 -0.3198
 7080TIP3    H142655   2.113   3.749  16.281  1.5817 -0.5163 -0.9506
 7080TIP3    H242656   2.116   3.598  16.286  0.1486 -0.5207  0.4817
 7081TIP3   OH242657   3.612   2.196  16.572  0.3272 -0.2193  0.5416
 7081TIP3    H142658   3.707   2.191  16.586  0.3335 -0.5778  0.3810
 7081TIP3    H242659   3.603   2.234  16.485  0.3130  0.2235  0.7321
 7082TIP3   OH242660   4.214   5.267   3.784  0.8222  0.1516  0.0812
 7082TIP3    H142661   4.220   5.285   3.877  1.5176  1.2699 -0.1570
 7082TIP3    H242662   4.292   5.214   3.764  1.2054  0.7475 -0.0325
 7083TIP3   OH242663   6.749   5.510  11.911  0.1053 -0.0472 -0.0683
 7083TIP3    H142664   6.770   5.421  11.882 -2.0266 -0.2933 -1.0677
 7083TIP3    H242665   6.770   5.510  12.005  0.3282 -1.5366 -0.0891
 7084TIP3   OH242666   1.872   1.676  10.649  0.2041 -0.3320 -0.5154
 7084TIP3    H142667   1.941   1.635  10.701 -2.7358 -0.7442  3.5090
 7084TIP3    H242668   1.819   1.603  10.617 -1.0799  0.0138  0.7030
 7085TIP3   OH242669   0.043   0.594   0.765  0.3655  0.2901 -0.5139
 7085TIP3    H142670   0.083   0.623   0.847  1.0509 -0.6851 -0.4900
 7085TIP3    H242671  -0.043   0.562   0.790  0.4503  0.2898 -0.2244
 7086TIP3   OH242672   1.674   6.075   3.375  0.0507 -0.4035 -0.0246
 7086TIP3    H142673   1.757   6.047   3.337  0.3967  0.8382 -0.2250
 7086TIP3    H242674   1.676   6.041   3.464  0.3354 -1.2148 -0.3342
 7087TIP3   OH242675   6.718   1.030   4.896 -0.3546 -0.2687  0.3633
 7087TIP3    H142676   6.664   1.065   4.825  1.1287  0.3686 -0.4911
 7087TIP3    H242677   6.734   0.939   4.872 -0.6701 -0.3367  0.4034
 7088TIP3   OH242678   3.520   2.107   2.267 -0.0358 -0.3464 -0.1254
 7088TIP3    H142679   3.592   2.070   2.215  1.1514  2.4150 -0.6360
 7088TIP3    H242680   3.564   2.152   2.340 -1.3800 -0.0035  0.5050
 7089TIP3   OH242681   6.672   0.324  15.698  0.3437 -0.7159 -0.4481
 7089TIP3    H142682   6.599   0.384  15.680  0.6746 -0.3387 -0.5453
 7089TIP3    H242683   6.747   0.364  15.655  0.2059 -2.1245 -2.1387
 7090TIP3   OH242684   2.592   0.560  16.367  0.0654  0.3443 -0.2113
 7090TIP3    H142685   2.672   0.603  16.335  0.5696 -0.8824 -0.6672
 7090TIP3    H242686   2.534   0.557  16.292 -0.3293  1.0099  0.0555
 7091TIP3   OH242687   4.387   0.511   3.896  0.1257 -0.0399 -0.2180
 7091TIP3    H142688   4.360   0.515   3.988  0.7561 -3.3635  0.2420
 7091TIP3    H242689   4.305   0.516   3.847 -0.4074 -0.2437  0.6300
 7092TIP3   OH242690   2.513   3.457   5.765  0.2293 -0.1065  0.0951
 7092TIP3    H142691   2.430   3.426   5.729 -0.6606  2.7569 -0.6629
 7092TIP3    H242692   2.577   3.391   5.739 -1.7309 -2.3034  0.4982
 7093TIP3   OH242693   5.319   0.757   1.012  0.1194  0.1134  0.5686
 7093TIP3    H142694   5.315   0.673   0.966 -1.3203  0.5523 -0.1684
 7093TIP3    H242695   5.392   0.747   1.073  1.8512 -0.6353 -1.5052
 7094TIP3   OH242696   5.303   1.151   5.058 -0.8178 -0.1313  0.7619
 7094TIP3    H142697   5.294   1.204   4.979 -1.4804 -1.2285  0.0846
 7094TIP3    H242698   5.289   1.213   5.130 -1.3645  0.6485  0.0039
 7095TIP3   OH242699   5.696   5.715  16.195 -0.6468 -0.1963 -0.0600
 7095TIP3    H142700   5.734   5.693  16.280  0.1056 -0.4804 -0.4559
 7095TIP3    H242701   5.761   5.773  16.155 -1.6548  1.1126  0.1322
 7096TIP3   OH242702   4.275   6.609  12.526 -0.2796  0.1479 -0.3098
 7096TIP3    H142703   4.264   6.524  12.483  0.5869 -0.4770  0.6556
 7096TIP3    H242704   4.213   6.607  12.598 -0.3773  0.4137 -0.3864
 7097TIP3   OH242705   4.615   6.200   4.382  0.4260  0.1280  0.1779
 7097TIP3    H142706   4.646   6.174   4.295  0.3042 -1.0134  0.4668
 7097TIP3    H242707   4.532   6.154   4.393  0.9767 -0.6227  1.3413
 7098TIP3   OH242708   4.591   3.772   5.665 -0.1863 -0.0744  0.6511
 7098TIP3    H142709   4.679   3.788   5.700  0.2895  0.9717 -0.8838
 7098TIP3    H242710   4.559   3.697   5.714  0.5407  1.0647  3.0126
 7099TIP3   OH242711   3.102   2.836  13.808  0.4826  0.6619 -0.4910
 7099TIP3    H142712   3.022   2.838  13.860  0.4530  0.0153 -0.5035
 7099TIP3    H242713   3.166   2.885  13.860  0.3058  0.4823 -0.1038
 7100TIP3   OH242714   4.136   5.249   5.159  0.0529  0.3549  0.2140
 7100TIP3    H142715   4.087   5.169   5.179  1.3394 -0.2983  0.8445
 7100TIP3    H242716   4.200   5.257   5.229 -0.0203  1.9361  0.1434
 7101TIP3   OH242717   4.278   3.581  11.389 -0.1392  0.1680  0.5721
 7101TIP3    H142718   4.214   3.611  11.324  1.7135  1.3769 -0.8105
 7101TIP3    H242719   4.341   3.530  11.338  0.5299 -0.1853  1.7185
 7102TIP3   OH242720   5.292   4.750  13.664  0.5619  0.6963 -0.5069
 7102TIP3    H142721   5.352   4.713  13.600  0.0094 -0.3379 -0.4372
 7102TIP3    H242722   5.246   4.820  13.617  3.0504  2.7725 -0.0780
 7103TIP3   OH242723   5.928   4.776   5.308 -0.7479  0.0830 -0.1294
 7103TIP3    H142724   5.941   4.689   5.270  0.5618  0.0546  0.3318
 7103TIP3    H242725   6.016   4.809   5.322 -1.1508  0.2426  2.5276
 7104TIP3   OH242726   2.263   0.926  14.966  0.2143 -0.3537  0.2670
 7104TIP3    H142727   2.201   0.918  14.894  0.1910  0.0380  0.2373
 7104TIP3    H242728   2.244   1.012  15.004  1.6367  0.4009 -0.6092
 7105TIP3   OH242729   1.283   4.633  15.052 -0.3068 -0.5322  0.1442
 7105TIP3    H142730   1.334   4.562  15.091  2.1086  0.7015 -0.6089
 7105TIP3    H242731   1.311   4.712  15.100  0.4381  0.5482 -1.9447
 7106TIP3   OH242732   4.588   0.209   3.548 -0.0073 -0.2323 -0.3177
 7106TIP3    H142733   4.655   0.211   3.616 -1.1689  1.6862  0.8520
 7106TIP3    H242734   4.638   0.200   3.466  1.5719 -0.2192  0.6025
 7107TIP3   OH242735   3.413   6.687  11.193 -0.4707 -0.5147  0.8375
 7107TIP3    H142736   3.408   6.658  11.102  1.1049 -2.2438  1.2286
 7107TIP3    H242737   3.430   6.781  11.188  0.2671 -0.6979 -0.6930
 7108TIP3   OH242738   2.361   3.597   4.602 -0.4832 -0.0572 -0.1994
 7108TIP3    H142739   2.315   3.559   4.677 -0.3662  1.0010  0.4231
 7108TIP3    H242740   2.291   3.621   4.541 -0.6010 -0.6173 -0.2852
 7109TIP3   OH242741   4.953   3.154   4.397 -0.1696 -0.4384 -0.0518
 7109TIP3    H142742   4.976   3.159   4.305 -0.6375 -0.5806 -0.1774
 7109TIP3    H242743   4.874   3.208   4.405  1.0361  1.3644  0.6584
 7110TIP3   OH242744   6.135   2.961  16.960  0.1604  0.3994 -0.5876
 7110TIP3    H142745   6.104   3.048  16.984 -1.8316 -0.0479 -1.3517
 7110TIP3    H242746   6.207   2.977  16.899  1.8628  1.4870  1.5664
 7111TIP3   OH242747   3.036   0.869  16.055 -0.1801 -0.0401 -0.1080
 7111TIP3    H142748   3.074   0.957  16.049  2.9664 -1.3723 -2.1406
 7111TIP3    H242749   3.027   0.841  15.964  1.5229 -2.7739  0.4569
 7112TIP3   OH242750   5.126   5.442   5.173  0.1102  0.4199 -0.1011
 7112TIP3    H142751   5.153   5.432   5.082 -0.4924 -0.2294 -0.2135
 7112TIP3    H242752   5.074   5.523   5.173 -1.9078 -0.8154 -0.8336
 7113TIP3   OH242753   0.770   0.076   0.135 -0.0767  0.1344 -0.6300
 7113TIP3    H142754   0.806   0.149   0.185  1.8089 -0.1002 -1.5500
 7113TIP3    H242755   0.824   0.001   0.158  0.8463  0.0085 -2.8948
 7114TIP3   OH242756   2.660   2.684  15.950 -0.0947  0.4314  0.3422
 7114TIP3    H142757   2.650   2.618  16.018  0.8480  2.0117  2.0923
 7114TIP3    H242758   2.753   2.684  15.929 -0.3781 -0.0600 -1.0011
 7115TIP3   OH242759   0.265   3.988  14.938  0.0616  0.0089  0.1592
 7115TIP3    H142760   0.350   3.963  14.975  0.1494  0.8453  0.5562
 7115TIP3    H242761   0.261   3.942  14.854  0.1501 -1.4009  0.8959
 7116TIP3   OH242762   4.081   0.955  12.328  0.4863  0.5914 -0.2775
 7116TIP3    H142763   4.166   0.912  12.326 -0.9696 -2.5388 -0.5988
 7116TIP3    H242764   4.037   0.926  12.248 -1.4814  0.7187  0.6887
 7117TIP3   OH242765   1.124   0.703  12.909 -0.2629  0.5046  0.6607
 7117TIP3    H142766   1.202   0.755  12.892 -0.6461  0.8563 -0.0834
 7117TIP3    H242767   1.093   0.677  12.822  0.3041 -1.5613  1.0303
 7118TIP3   OH242768   4.692   3.308   6.083  0.5303  0.3431 -0.2921
 7118TIP3    H142769   4.733   3.263   6.009  0.3239 -1.3383  0.5812
 7118TIP3    H242770   4.645   3.240   6.131  1.2589  1.2353  1.8219
 7119TIP3   OH242771   0.020   5.445  12.186  0.0760  0.3930 -0.7596
 7119TIP3    H142772   0.056   5.357  12.195  0.1005  0.3608 -1.1469
 7119TIP3    H242773   0.040   5.488  12.269 -0.1666 -0.0512 -0.4664
 7120TIP3   OH242774   1.080   3.480   5.543 -0.2794  0.4060 -0.2685
 7120TIP3    H142775   1.061   3.473   5.636 -0.8438 -0.4559 -0.4353
 7120TIP3    H242776   1.117   3.568   5.532  2.3876 -0.4259  1.2029
 7121TIP3   OH242777   1.905   6.152  16.920  0.4924 -0.2236  0.1558
 7121TIP3    H142778   1.917   6.097  16.997  1.1759 -0.3938 -0.0649
 7121TIP3    H242779   1.855   6.227  16.951  1.0393 -0.1345  0.8410
 7122TIP3   OH242780   0.605   5.880   0.544  0.5173 -0.0959  0.5859
 7122TIP3    H142781   0.668   5.858   0.612  0.8854 -0.2816  0.1890
 7122TIP3    H242782   0.656   5.926   0.477  0.0253  0.7329  0.7606
 7123TIP3   OH242783   2.182   6.517  16.916  0.3879 -0.0376 -0.3819
 7123TIP3    H142784   2.140   6.603  16.908  1.4002  0.3244 -2.4620
 7123TIP3    H242785   2.269   6.536  16.952  1.1931  0.0556 -2.2646
 7124TIP3   OH242786   4.227   5.600   0.845  0.2750  0.1102 -0.2297
 7124TIP3    H142787   4.222   5.568   0.936 -1.1657 -0.1181 -0.3781
 7124TIP3    H242788   4.321   5.597   0.825  0.5752 -0.2835  1.0924
 7125TIP3   OH242789   6.138   0.925  14.494 -0.1565  0.3857 -0.4225
 7125TIP3    H142790   6.152   1.017  14.516  2.1308 -0.0236  0.0700
 7125TIP3    H242791   6.101   0.886  14.573 -0.9903  0.8261 -0.5837
 7126TIP3   OH242792   1.928   2.433   1.466 -0.1125 -0.7073 -0.3039
 7126TIP3    H142793   1.893   2.510   1.421  0.2489 -0.0619  0.4892
 7126TIP3    H242794   1.852   2.393   1.508  0.1176  1.0572  1.9620
 7127TIP3   OH242795   6.153   4.017  12.006 -0.4124  0.0864  0.1172
 7127TIP3    H142796   6.223   4.016  11.941 -0.7565  2.0963 -0.3704
 7127TIP3    H242797   6.196   4.042  12.087 -0.5640  1.9251 -0.3048
 7128TIP3   OH242798   1.974   4.995   1.345  0.5945  0.0505 -0.2623
 7128TIP3    H142799   1.964   5.052   1.421  0.6261  1.9132 -1.5756
 7128TIP3    H242800   2.056   4.949   1.360  0.5799  0.3491  0.8309
 7129TIP3   OH242801   0.169   5.057   3.361 -0.2708 -0.5303 -0.3738
 7129TIP3    H142802   0.241   5.032   3.302 -0.2787  0.3946 -0.7835
 7129TIP3    H242803   0.190   5.012   3.443  0.0522 -1.3603 -0.8952
 7130TIP3   OH242804   2.854   3.858   3.212  0.4132  0.6630  0.1234
 7130TIP3    H142805   2.926   3.898   3.261  0.8421 -0.2320  0.2417
 7130TIP3    H242806   2.831   3.780   3.262 -0.0625  0.4761 -0.3751
 7131TIP3   OH242807   4.306   4.929  12.912  0.2848 -0.2839 -0.2031
 7131TIP3    H142808   4.394   4.945  12.946  0.0433  2.3799 -0.6411
 7131TIP3    H242809   4.257   5.008  12.935 -1.8117 -1.4033 -0.6085
 7132TIP3   OH242810   6.526   2.206   0.147 -0.4898 -0.1967  0.1042
 7132TIP3    H142811   6.499   2.235   0.234  2.1206 -0.8617  1.2540
 7132TIP3    H242812   6.552   2.114   0.159  0.3825 -0.1582 -1.2502
 7133TIP3   OH242813   4.729   3.256  10.837  0.4241  0.2663  0.1983
 7133TIP3    H142814   4.801   3.194  10.853 -1.1686 -2.0199 -1.0489
 7133TIP3    H242815   4.652   3.215  10.876 -0.5418  1.9214  0.1402
 7134TIP3   OH242816   4.204   4.441   0.470 -0.0454  0.4962  0.6638
 7134TIP3    H142817   4.109   4.456   0.467 -0.2948 -1.0322  0.0273
 7134TIP3    H242818   4.213   4.347   0.483  1.3921  0.5560  0.2708
 7135TIP3   OH242819   4.815   6.582  10.896  0.2503 -0.6396 -0.0917
 7135TIP3    H142820   4.906   6.614  10.893  0.4557 -1.1378  0.7801
 7135TIP3    H242821   4.790   6.576  10.803  0.6925  0.6479 -0.3192
 7136TIP3   OH242822   3.013   5.313  14.543  0.0085 -0.1825  0.2688
 7136TIP3    H142823   2.948   5.383  14.545 -0.1230 -0.3002  0.0806
 7136TIP3    H242824   2.968   5.239  14.503 -0.0230 -0.5436  0.9450
 7137TIP3   OH242825   3.703   0.048   5.613 -0.2947  0.8718 -0.1616
 7137TIP3    H142826   3.651   0.107   5.559 -3.1796  0.2158  1.6837
 7137TIP3    H242827   3.700   0.086   5.700 -0.4133 -0.8647  0.6362
 7138TIP3   OH242828   1.259   4.574  14.370 -0.3619  0.3341  0.4632
 7138TIP3    H142829   1.341   4.618  14.350 -0.2240 -0.4878 -0.8704
 7138TIP3    H242830   1.210   4.638  14.422  1.3944  0.5568  1.9692
 7139TIP3   OH242831   1.657   3.685   2.162 -0.0558  0.0567  0.4585
 7139TIP3    H142832   1.709   3.699   2.241  1.3526  0.9952 -0.5875
 7139TIP3    H242833   1.666   3.766   2.113 -1.7020 -0.1437 -0.2504
 7140TIP3   OH242834   1.679   6.693   5.846  0.2978  0.0472  0.0503
 7140TIP3    H142835   1.739   6.654   5.783 -1.0677 -1.7360 -0.2507
 7140TIP3    H242836   1.624   6.752   5.795  1.8403  1.8325  0.3610
 7141TIP3   OH242837   3.981   2.296   4.352 -0.5506 -0.3460 -0.6854
 7141TIP3    H142838   3.998   2.308   4.445 -1.4965  0.3372 -0.5843
 7141TIP3    H242839   3.953   2.383   4.322  2.2186  0.1414 -2.1682
 7142TIP3   OH242840   3.587   5.745  15.033 -0.8473  0.0094  0.0872
 7142TIP3    H142841   3.512   5.694  15.065 -0.9186  1.0712  1.7252
 7142TIP3    H242842   3.558   5.836  15.040  0.1186  0.3729 -0.5371
 7143TIP3   OH242843   5.696   5.400   3.885  0.7220  0.4115  0.0418
 7143TIP3    H142844   5.780   5.445   3.880  1.1568 -0.4310 -0.4915
 7143TIP3    H242845   5.633   5.469   3.907  1.5090  1.0958  0.2108
 7144TIP3   OH242846   2.030   3.858   6.410 -0.3340  0.5292  0.2950
 7144TIP3    H142847   1.952   3.837   6.462 -0.0026  0.3200  0.7074
 7144TIP3    H242848   2.006   3.939   6.364 -1.4930 -0.5445 -1.0676
 7145TIP3   OH242849   3.743   6.426  13.063 -0.4676 -0.3558 -0.4355
 7145TIP3    H142850   3.673   6.361  13.056  0.6015 -1.5170 -0.7181
 7145TIP3    H242851   3.821   6.380  13.033  0.8176  0.2746  1.7619
 7146TIP3   OH242852   6.462   5.850   2.216 -0.1421 -0.3224  0.1195
 7146TIP3    H142853   6.538   5.885   2.171 -0.2936 -1.1033 -0.7737
 7146TIP3    H242854   6.481   5.757   2.226  0.1520 -0.0888  2.2340
 7147TIP3   OH242855   3.946   2.179  12.030 -0.2827 -0.7783 -0.3084
 7147TIP3    H142856   3.902   2.216  12.107 -0.1770  1.4188 -1.2114
 7147TIP3    H242857   3.886   2.112  11.997 -0.9669 -0.7771  0.8916
 7148TIP3   OH242858   1.974   0.597   0.173 -0.1749 -0.2489 -0.2609
 7148TIP3    H142859   2.001   0.510   0.204 -1.3229  0.2244  2.3495
 7148TIP3    H242860   1.893   0.581   0.123 -0.0767 -0.7224 -0.2724
 7149TIP3   OH242861   0.559   0.722  15.439 -0.2522 -0.0733  0.3238
 7149TIP3    H142862   0.530   0.742  15.527  0.0551 -1.0639  0.6658
 7149TIP3    H242863   0.585   0.806  15.402  1.6201  0.1133  1.9023
 7150TIP3   OH242864   3.190   5.229   2.353  0.3422 -0.2162 -0.6508
 7150TIP3    H142865   3.097   5.210   2.342 -0.2112  2.1845 -0.5336
 7150TIP3    H242866   3.221   5.249   2.264  0.5361 -0.1522 -0.5700
 7151TIP3   OH242867   3.403   1.016  13.228 -0.1121 -0.6604 -0.6108
 7151TIP3    H142868   3.340   0.951  13.258 -2.5751  2.1170  0.7648
 7151TIP3    H242869   3.381   1.031  13.136 -1.4067  0.1538 -0.1860
 7152TIP3   OH242870   2.209   6.545  13.657 -0.1099 -0.2859 -0.4254
 7152TIP3    H142871   2.267   6.562  13.582  0.3346 -1.8368 -0.4632
 7152TIP3    H242872   2.121   6.557  13.621  0.0693 -1.5867 -1.3958
 7153TIP3   OH242873   0.461   3.496   6.590 -0.2268 -0.0344  0.1773
 7153TIP3    H142874   0.448   3.582   6.630 -0.5354 -0.6331  1.4177
 7153TIP3    H242875   0.538   3.461   6.634  0.1078 -0.2540 -0.5787
 7154TIP3   OH242876   2.762   5.730  15.781  0.0503 -0.0916 -0.6781
 7154TIP3    H142877   2.755   5.687  15.866  3.5770  0.8054  0.2140
 7154TIP3    H242878   2.747   5.661  15.717  1.8704 -1.8746  0.7107
 7155TIP3   OH242879   5.102   4.838  10.773 -0.1045  0.2002  0.4160
 7155TIP3    H142880   5.062   4.874  10.693  1.7174 -0.2119 -0.7372
 7155TIP3    H242881   5.131   4.750  10.748 -1.0354 -0.6375  2.0737
 7156TIP3   OH242882   6.307   5.964  13.277 -0.5432  0.1483  0.6214
 7156TIP3    H142883   6.310   5.958  13.181 -2.2931 -1.4106  0.6254
 7156TIP3    H242884   6.393   5.932  13.305 -0.2724 -0.0664 -0.4051
 7157TIP3   OH242885   4.988   4.216  11.306 -0.1418 -0.5873 -0.7647
 7157TIP3    H142886   4.989   4.231  11.212 -0.0898  0.8326 -0.5478
 7157TIP3    H242887   5.071   4.250  11.338 -0.3108 -0.7306 -0.1468
 7158TIP3   OH242888   5.636   4.228  11.542 -0.2391  1.0952  0.2868
 7158TIP3    H142889   5.584   4.308  11.541 -3.0135 -0.5378  0.7209
 7158TIP3    H242890   5.667   4.220  11.632 -0.5717  1.3339  0.4231
 7159TIP3   OH242891   1.764   2.557   0.559 -0.5210 -0.3300 -0.1682
 7159TIP3    H142892   1.721   2.595   0.636 -1.8969 -0.9056 -0.6194
 7159TIP3    H242893   1.737   2.614   0.486  0.8503  0.2678 -0.2282
 7160TIP3   OH242894   6.759   2.565   5.071  0.4174  0.0124 -0.7981
 7160TIP3    H142895   6.694   2.527   5.130  1.5331 -0.2943  0.2869
 7160TIP3    H242896   6.775   2.497   5.006  1.1117 -0.7351  0.1191
 7161TIP3   OH242897   1.469   1.254  11.664  0.3456  0.6807  0.5336
 7161TIP3    H142898   1.491   1.165  11.635  2.6688  0.9802  1.1821
 7161TIP3    H242899   1.437   1.297  11.585 -1.9874 -1.0147  0.4522
 7162TIP3   OH242900   2.356   3.710   2.104 -0.5120  0.0060  0.3295
 7162TIP3    H142901   2.355   3.642   2.037  0.3916  1.2057 -0.9469
 7162TIP3    H242902   2.449   3.728   2.118 -0.7296  0.5447  1.1082
 7163TIP3   OH242903   4.985   2.074   2.001  0.7463 -0.4640 -0.1207
 7163TIP3    H142904   4.946   2.082   2.088 -0.2633  0.1418 -0.6170
 7163TIP3    H242905   4.975   2.160   1.962  1.1915 -0.7331 -0.8468
 7164TIP3   OH242906   1.846   4.283   0.524  0.0755  0.2355 -0.4117
 7164TIP3    H142907   1.884   4.201   0.492 -1.6411 -1.2131  1.0044
 7164TIP3    H242908   1.903   4.309   0.597  0.1312 -0.2243 -0.2867
 7165TIP3   OH242909   0.525   2.687   0.979  0.4553 -0.0314  0.4002
 7165TIP3    H142910   0.477   2.673   0.897  0.5237 -0.7174  0.4654
 7165TIP3    H242911   0.577   2.765   0.963  0.7248 -0.3443 -0.3377
 7166TIP3   OH242912   6.338   6.754   4.345  0.2847 -0.1022 -0.2206
 7166TIP3    H142913   6.394   6.814   4.394 -1.5581  1.9286 -0.4302
 7166TIP3    H242914   6.339   6.788   4.256 -0.0307 -0.9710 -0.5611
 7167TIP3   OH242915   1.017   0.941  12.694  0.6056  0.2584 -0.2330
 7167TIP3    H142916   1.048   0.956  12.605 -0.4801 -0.9806 -0.8646
 7167TIP3    H242917   0.973   1.022  12.718  0.7267  0.5313 -0.8948
 7168TIP3   OH242918   5.274   6.774   3.725 -0.1129 -0.2310  0.1795
 7168TIP3    H142919   5.332   6.847   3.743 -0.0219 -0.0664 -0.7230
 7168TIP3    H242920   5.332   6.698   3.722 -0.2091 -0.3532  1.1261
 7169TIP3   OH242921   5.985   2.462  12.223  0.8110 -0.2859  0.2332
 7169TIP3    H142922   5.968   2.546  12.266  0.3002 -0.4145  0.2835
 7169TIP3    H242923   6.003   2.485  12.132 -1.5299 -0.2928 -0.2760
 7170TIP3   OH242924   4.878   3.235   5.581 -0.5544  0.1205 -0.4191
 7170TIP3    H142925   4.948   3.296   5.559  0.1475 -0.2558  0.6854
 7170TIP3    H242926   4.873   3.238   5.676 -0.1570 -1.9028 -0.3000
 7171TIP3   OH242927   6.672   1.253  12.945 -0.3906 -0.0483 -0.4519
 7171TIP3    H142928   6.739   1.212  12.891 -0.7832 -0.4762 -0.6323
 7171TIP3    H242929   6.610   1.289  12.882 -0.5211  0.0099 -0.2916
 7172TIP3   OH242930   2.441   5.890  15.578  0.3915 -0.4999 -0.0934
 7172TIP3    H142931   2.437   5.901  15.673 -1.4369 -0.6168 -0.1250
 7172TIP3    H242932   2.364   5.936  15.545  0.6081 -1.0752 -1.4676
 7173TIP3   OH242933   0.614   4.151  12.028  0.1286 -0.0546  0.4948
 7173TIP3    H142934   0.661   4.177  11.949  0.0341  1.2802  0.8497
 7173TIP3    H242935   0.676   4.167  12.099 -0.3183  0.2408  0.8254
 7174TIP3   OH242936   1.500   4.272  12.158 -0.3513  0.4006  0.3945
 7174TIP3    H142937   1.539   4.206  12.102  0.7121  1.4510 -0.1536
 7174TIP3    H242938   1.528   4.355  12.120 -2.0733  1.1930  0.7529
 7175TIP3   OH242939   3.647   0.097  14.869 -0.4330 -0.2872 -0.0116
 7175TIP3    H142940   3.720   0.158  14.870 -2.4819  2.3613  1.0748
 7175TIP3    H242941   3.687   0.011  14.876  2.5660  0.9986 -0.0354
 7176TIP3   OH242942   1.872   6.743   0.942  0.1240 -0.3860  0.2065
 7176TIP3    H142943   1.876   6.772   0.851  0.2465 -1.2747 -0.0806
 7176TIP3    H242944   1.781   6.758   0.968  0.1390  0.0637  0.0013
 7177TIP3   OH242945   3.070   3.378  13.508 -0.1765  0.3187 -0.5088
 7177TIP3    H142946   3.159   3.410  13.523 -0.5134  1.2245 -0.4002
 7177TIP3    H242947   3.015   3.456  13.513 -1.2784 -0.5108  1.7513
 7178TIP3   OH242948   2.109   6.241   3.672  0.0136  0.1129 -0.7186
 7178TIP3    H142949   2.066   6.323   3.649  0.6463  0.7813  0.4232
 7178TIP3    H242950   2.173   6.265   3.739 -0.0200 -1.3584 -0.1265
 7179TIP3   OH242951   3.026   2.714  14.650 -0.1217 -0.0369 -0.1234
 7179TIP3    H142952   2.978   2.639  14.615  2.0172 -0.6271 -2.0539
 7179TIP3    H242953   3.089   2.676  14.711  0.7385  0.1844 -0.8500
 7180TIP3   OH242954   0.107   5.122   0.820 -0.0878 -0.1942  0.3639
 7180TIP3    H142955   0.113   5.031   0.849  0.4213 -0.3220 -0.1097
 7180TIP3    H242956   0.027   5.126   0.768  0.2393 -0.5472 -0.1819
 7181TIP3   OH242957   4.187   2.361  16.241  0.3362 -0.0954  0.0542
 7181TIP3    H142958   4.241   2.424  16.288 -0.2807  0.1952  0.3796
 7181TIP3    H242959   4.125   2.415  16.192  1.0632 -0.3765 -1.2406
 7182TIP3   OH242960   5.121   3.915   4.762  0.2554  0.6611 -0.1257
 7182TIP3    H142961   5.166   3.991   4.799  2.0441 -0.8602  1.0236
 7182TIP3    H242962   5.166   3.900   4.679  0.0563  0.7261 -0.2444
 7183TIP3   OH242963   0.770   3.830   3.199  0.0562 -0.9857 -0.4332
 7183TIP3    H142964   0.751   3.825   3.105 -0.0699 -0.9836 -0.4083
 7183TIP3    H242965   0.856   3.789   3.208  0.8192  0.4716 -0.7733
 7184TIP3   OH242966   2.082   3.202  11.289  0.3961 -0.5082 -0.1596
 7184TIP3    H142967   2.158   3.196  11.348  0.3255 -0.7636 -0.0901
 7184TIP3    H242968   2.040   3.284  11.311  0.2579 -0.6974  0.2877
 7185TIP3   OH242969   6.149   6.576   3.193 -0.4597  0.5087 -0.6400
 7185TIP3    H142970   6.206   6.505   3.221 -0.7119  0.7370  0.4982
 7185TIP3    H242971   6.063   6.535   3.181 -0.5759  0.5853 -0.1063
 7186TIP3   OH242972   6.409   1.236  12.262 -0.5499 -0.0790  0.0465
 7186TIP3    H142973   6.315   1.225  12.245 -0.4204  0.4408 -1.1342
 7186TIP3    H242974   6.422   1.331  12.259 -0.0227 -0.1390  0.4442
 7187TIP3   OH242975   0.288   2.176  10.881 -0.1335 -0.4902  0.2277
 7187TIP3    H142976   0.234   2.247  10.846 -2.1372 -2.5484 -1.1277
 7187TIP3    H242977   0.368   2.179  10.829 -0.8583 -0.1754 -0.9056
 7188TIP3   OH242978   6.435   2.355   3.129 -0.0347  0.2181 -0.5105
 7188TIP3    H142979   6.488   2.332   3.205  1.3967  2.0932 -0.8529
 7188TIP3    H242980   6.455   2.287   3.065  0.8404  0.0791 -0.1142
 7189TIP3   OH242981   5.266   4.172  13.978 -0.2689  0.3025 -0.3205
 7189TIP3    H142982   5.187   4.166  13.924  0.5080 -0.4443 -1.4217
 7189TIP3    H242983   5.333   4.126  13.927  0.3137 -1.1714  1.6723
 7190TIP3   OH242984   4.543   5.788  17.042  0.2937 -0.4685 -0.6250
 7190TIP3    H142985   4.607   5.744  17.098  0.0899  0.2993  0.2352
 7190TIP3    H242986   4.585   5.791  16.956  1.1410 -0.5724 -0.2321
 7191TIP3   OH242987   4.673   6.740  15.322  0.4260 -0.2769  0.4071
 7191TIP3    H142988   4.662   6.755  15.228  2.0954 -0.6362  0.1262
 7191TIP3    H242989   4.659   6.826  15.362 -2.0626 -0.4494  0.0593
 7192TIP3   OH242990   2.959   3.335  13.986 -0.3849  0.0273  0.6182
 7192TIP3    H142991   2.938   3.409  14.044 -0.1306  1.2235 -0.7593
 7192TIP3    H242992   3.038   3.363  13.940  0.1739 -1.4540  0.6106
 7193TIP3   OH242993   6.139   5.168  12.786 -0.6573  0.7112  0.5755
 7193TIP3    H142994   6.061   5.128  12.823 -0.4545  0.2764  0.5417
 7193TIP3    H242995   6.112   5.256  12.760 -1.5897 -0.0005 -1.0057
 7194TIP3   OH242996   2.673   5.314  15.131 -0.4625 -0.0480  0.2535
 7194TIP3    H142997   2.581   5.294  15.121 -0.6076  0.2704  0.8681
 7194TIP3    H242998   2.707   5.246  15.190 -0.2470 -0.3173 -0.1809
 7195TIP3   OH242999   0.686   3.419   2.315  0.3892  0.0837  0.2033
 7195TIP3    H143000   0.723   3.468   2.388 -0.0100  0.2998  0.2618
 7195TIP3    H243001   0.601   3.459   2.300 -0.6208 -1.5877  1.2522
 7196TIP3   OH243002   5.009   4.669   2.981  0.1013 -0.3848 -0.3901
 7196TIP3    H143003   4.969   4.629   2.903 -0.3030  1.6220 -1.2871
 7196TIP3    H243004   4.956   4.747   2.997  0.1871 -0.7333  1.9334
 7197TIP3   OH243005   6.004   3.691  14.765 -0.5463  0.9480  0.2239
 7197TIP3    H143006   5.915   3.664  14.786 -0.4073  0.1641 -0.1632
 7197TIP3    H243007   6.004   3.786  14.778 -1.6652  1.0720 -0.5805
 7198TIP3   OH243008   1.233   5.805  12.298 -0.4559 -0.0507  0.5771
 7198TIP3    H143009   1.274   5.792  12.213 -0.7565 -1.7484  0.6633
 7198TIP3    H243010   1.208   5.717  12.327 -0.8705  0.5491  2.1641
 7199TIP3   OH243011   0.984   4.171  12.729 -0.0626  0.6128  0.1932
 7199TIP3    H143012   1.055   4.229  12.757 -0.8191  1.8378 -0.3302
 7199TIP3    H243013   0.984   4.100  12.793  0.3596  1.6292  1.3596
 7200TIP3   OH243014   2.072   6.669  14.236  0.6252  0.2159 -0.9919
 7200TIP3    H143015   1.992   6.630  14.270  2.0879 -0.6473  1.8044
 7200TIP3    H243016   2.044   6.752  14.197 -1.6040  0.0046  0.0037
 7201TIP3   OH243017   6.561   4.630   5.425 -0.0775 -0.6636  0.0187
 7201TIP3    H143018   6.642   4.664   5.462 -0.9493  0.5681  0.8768
 7201TIP3    H243019   6.508   4.605   5.501 -0.1243 -2.4373 -0.5511
 7202TIP3   OH243020   3.671   1.318   0.777  0.3256  0.4258 -0.4970
 7202TIP3    H143021   3.766   1.311   0.773  0.1659 -2.1244 -3.8718
 7202TIP3    H243022   3.642   1.235   0.815 -0.5937  0.5808 -0.8321
 7203TIP3   OH243023   0.416   5.894  11.312 -0.3903 -0.1253 -0.0279
 7203TIP3    H143024   0.404   5.807  11.273 -0.3697  0.0939 -0.5191
 7203TIP3    H243025   0.343   5.901  11.374  0.2224 -0.9302  0.8204
 7204TIP3   OH243026   1.448   4.638  15.827  0.2108 -0.3981  0.1598
 7204TIP3    H143027   1.413   4.580  15.894  0.8222 -0.2939  0.5792
 7204TIP3    H243028   1.489   4.579  15.763 -0.0374 -0.4799  0.0778
 7205TIP3   OH243029   2.073   3.508  15.188 -0.1429  0.4048  0.2711
 7205TIP3    H143030   2.138   3.536  15.124  0.3085 -1.8017 -0.3095
 7205TIP3    H243031   2.034   3.590  15.220  0.7235  1.6343 -1.6433
 7206TIP3   OH243032   4.160   5.496   3.202 -0.6821  0.1150  0.5128
 7206TIP3    H143033   4.186   5.586   3.185 -1.5603 -0.0107 -1.9969
 7206TIP3    H243034   4.184   5.449   3.122 -2.5420 -1.3276  0.7335
 7207TIP3   OH243035   3.621   3.633   1.673  0.7106 -0.0230  0.1959
 7207TIP3    H143036   3.596   3.651   1.763 -0.3807  1.2351 -0.3151
 7207TIP3    H243037   3.549   3.580   1.638 -0.2914  1.7664 -0.6531
 7208TIP3   OH243038   4.588   5.103   2.222  0.3286 -0.3263 -0.3211
 7208TIP3    H143039   4.528   5.130   2.153  0.1236  0.2161  0.0664
 7208TIP3    H243040   4.563   5.154   2.298  1.8887  0.6273 -0.4007
 7209TIP3   OH243041   5.517   2.003   1.832  0.4724 -0.5947  0.2246
 7209TIP3    H143042   5.588   1.989   1.894 -0.2984 -1.3637  0.9643
 7209TIP3    H243043   5.445   1.949   1.866 -0.8693  1.0812  0.1790
 7210TIP3   OH243044   5.228   4.461   2.235  0.1486 -0.3491  0.6354
 7210TIP3    H143045   5.255   4.370   2.245 -1.1197 -0.7938  0.1485
 7210TIP3    H243046   5.233   4.478   2.141 -2.2656 -0.8130  0.3535
 7211TIP3   OH243047   2.470   4.266  13.181 -0.2535  0.4650  0.1181
 7211TIP3    H143048   2.414   4.264  13.103 -0.5674  1.4543  0.3020
 7211TIP3    H243049   2.414   4.233  13.252  0.1541 -0.8091 -0.1329
 7212TIP3   OH243050   0.424   2.580   6.640  0.2182  0.4596  0.0896
 7212TIP3    H143051   0.465   2.651   6.589 -0.2445 -0.6765 -2.0083
 7212TIP3    H243052   0.484   2.506   6.629 -0.6217 -0.2103 -0.0391
 7213TIP3   OH243053   6.539   1.758  15.931  0.2880 -0.4592 -0.0220
 7213TIP3    H143054   6.505   1.825  15.991 -0.1285 -0.1671 -0.5747
 7213TIP3    H243055   6.484   1.766  15.853 -0.3444 -2.0378  0.2204
 7214TIP3   OH243056   5.918   4.555  16.299 -0.4590  0.0982 -0.3726
 7214TIP3    H143057   5.949   4.518  16.216  0.3207 -0.5091  0.1802
 7214TIP3    H243058   5.985   4.620  16.322  0.7443 -1.5548  1.0695
 7215TIP3   OH243059   3.750   2.047  12.646 -0.5039  0.7268  0.1682
 7215TIP3    H143060   3.699   1.976  12.607 -0.3520  1.4926 -1.5015
 7215TIP3    H243061   3.744   2.118  12.582  2.9354  0.7380 -0.3259
 7216TIP3   OH243062   3.564   1.970   0.971 -0.3791  0.5057 -0.5221
 7216TIP3    H143063   3.602   1.968   0.884 -0.4098  2.7100 -0.6395
 7216TIP3    H243064   3.617   2.034   1.019 -0.1716 -0.8615  1.2019
 7217TIP3   OH243065   0.252   5.656  15.134  0.3519 -0.1631  0.1889
 7217TIP3    H143066   0.184   5.715  15.165  0.7215  0.9397 -1.0261
 7217TIP3    H243067   0.211   5.569  15.136 -0.1806  0.0882  2.0471
 7218TIP3   OH243068   4.268   5.992  11.927 -0.0507  0.4533  0.7759
 7218TIP3    H143069   4.236   5.992  11.837 -0.2566  2.3311  0.8059
 7218TIP3    H243070   4.228   5.915  11.966 -0.9782  0.2960 -0.3996
 7219TIP3   OH243071   1.056   2.907  13.358  0.3679  0.0927  0.8320
 7219TIP3    H143072   1.013   2.960  13.424  0.0407  0.1035  0.6143
 7219TIP3    H243073   1.131   2.868  13.403  2.1605  2.7808  0.3359
 7220TIP3   OH243074   0.479   2.683  10.868 -0.1152  0.2292  0.7186
 7220TIP3    H143075   0.467   2.613  10.932 -0.4038 -1.3532 -0.9470
 7220TIP3    H243076   0.416   2.663  10.799  0.5348  1.5500 -0.3133
 7221TIP3   OH243077   6.304   2.486   0.080 -0.1565 -0.8336  0.0637
 7221TIP3    H143078   6.313   2.570   0.125 -1.5070 -0.4646 -0.3095
 7221TIP3    H243079   6.212   2.463   0.092  0.3427 -2.6386  0.8038
 7222TIP3   OH243080   1.965   2.834  10.912 -0.2217  0.1135 -0.1757
 7222TIP3    H143081   2.003   2.871  10.992 -1.9269 -2.6107  2.0777
 7222TIP3    H243082   1.891   2.891  10.892  0.5721  1.1613 -0.1777
 7223TIP3   OH243083   4.341   1.175  12.408  0.1387 -0.0629 -0.1702
 7223TIP3    H143084   4.297   1.215  12.333 -1.2046 -0.7048  0.2486
 7223TIP3    H243085   4.347   1.082  12.386  0.3130 -0.1548  0.2506
 7224TIP3   OH243086   5.748   3.014   3.391  0.1236  0.4241 -0.1477
 7224TIP3    H143087   5.735   3.078   3.462  0.7440  0.8055 -0.3671
 7224TIP3    H243088   5.820   3.050   3.340 -0.3000  0.1373 -0.9665
 7225TIP3   OH243089   4.512   5.954   5.180  0.0289  0.1964  0.3102
 7225TIP3    H143090   4.445   5.936   5.246 -1.3556  0.9333 -0.8490
 7225TIP3    H243091   4.535   6.046   5.195  0.4274  0.0865  0.3826
 7226TIP3   OH243092   2.849   0.129  16.527 -0.6423  0.4096  0.3137
 7226TIP3    H143093   2.882   0.062  16.467 -3.9506 -0.3749 -0.8392
 7226TIP3    H243094   2.915   0.133  16.596  0.6006 -2.7582 -0.4999
 7227TIP3   OH243095   1.547   5.960   0.818  0.2459 -0.2997 -0.0718
 7227TIP3    H143096   1.623   6.006   0.783 -0.4928  1.7936  0.9125
 7227TIP3    H243097   1.580   5.873   0.839  1.2501 -0.9507 -3.7213
 7228TIP3   OH243098   2.265   0.169   4.465 -0.1473  0.6402 -0.6514
 7228TIP3    H143099   2.212   0.245   4.440  1.1244  1.3745 -1.1738
 7228TIP3    H243100   2.354   0.202   4.469  0.1538 -0.2379  1.5731
 7229TIP3   OH243101   0.506   1.023   0.235  0.0585  0.1255 -0.7347
 7229TIP3    H143102   0.456   1.027   0.153  1.5918  0.2203 -1.7026
 7229TIP3    H243103   0.521   0.930   0.249 -1.2859  0.0229  0.1444
 7230TIP3   OH243104   0.036   3.958   1.957 -0.5146  0.8412  0.6592
 7230TIP3    H143105   0.024   3.950   2.052 -0.3460  3.6955  0.9960
 7230TIP3    H243106   0.108   4.020   1.946 -1.5202  1.7568 -1.3200
 7231TIP3   OH243107   4.934   3.574  15.927 -0.2489 -0.2117 -0.1574
 7231TIP3    H143108   4.952   3.535  16.012 -0.3526 -2.0090 -0.9061
 7231TIP3    H243109   4.842   3.553  15.910 -0.1887 -0.0089 -0.7628
 7232TIP3   OH243110   0.189   5.017   2.978  0.0704  0.3868  0.3619
 7232TIP3    H143111   0.187   4.929   3.015 -1.8670  0.0015 -0.5103
 7232TIP3    H243112   0.153   5.006   2.890  2.4481  1.6239 -0.8602
 7233TIP3   OH243113   4.117   2.833  16.360 -0.4628 -0.9551  0.6568
 7233TIP3    H143114   4.093   2.925  16.365 -1.8904 -1.2594 -0.1190
 7233TIP3    H243115   4.145   2.810  16.449 -1.9118 -0.2358  1.3288
 7234TIP3   OH243116   6.159   4.232   5.959  0.0021 -0.0983 -0.2134
 7234TIP3    H143117   6.176   4.271   6.045 -1.0833 -0.3147  0.1079
 7234TIP3    H243118   6.240   4.185   5.938  0.8849  1.2950 -0.0662
 7235TIP3   OH243119   2.188   3.386  15.674 -0.1140 -0.4293  0.1039
 7235TIP3    H143120   2.168   3.313  15.615  0.6664 -1.2802  0.8519
 7235TIP3    H243121   2.281   3.375  15.695 -0.2094  0.2513  0.9355
 7236TIP3   OH243122   1.546   2.816   4.375  0.0498 -0.0638 -0.0410
 7236TIP3    H143123   1.588   2.900   4.355 -1.1206  1.1281  2.1727
 7236TIP3    H243124   1.604   2.776   4.440 -0.9984  0.5007  1.2578
 7237TIP3   OH243125   4.537   1.949  16.418  0.0190 -0.4294  0.0723
 7237TIP3    H143126   4.596   1.987  16.483  0.2483 -1.2115  0.3258
 7237TIP3    H243127   4.592   1.889  16.368 -0.7660 -1.9075  0.9400
 7238TIP3   OH243128   5.387   2.039   4.572  0.1815  0.3041  0.0295
 7238TIP3    H143129   5.342   2.124   4.573  0.7607  0.6221 -0.5619
 7238TIP3    H243130   5.435   2.036   4.654 -2.8074 -1.0996  1.9110
 7239TIP3   OH243131   4.410   1.257  15.132 -0.7197  0.6050 -0.0356
 7239TIP3    H143132   4.483   1.198  15.152 -0.9821  0.6651  1.1361
 7239TIP3    H243133   4.450   1.344  15.128 -0.7959  0.7100  1.1538
 7240TIP3   OH243134   5.522   6.588  15.436 -0.5313 -0.0196 -0.0605
 7240TIP3    H143135   5.546   6.496  15.429 -0.9592 -0.0356 -1.8764
 7240TIP3    H243136   5.564   6.629  15.360 -1.7802  0.9448 -0.2574
 7241TIP3   OH243137   6.000   4.399  16.090  0.3934 -0.2658 -0.2153
 7241TIP3    H143138   5.933   4.427  16.028 -1.3455 -0.2611  1.5706
 7241TIP3    H243139   5.990   4.304  16.095 -0.4234 -0.1328  1.0399
 7242TIP3   OH243140   0.383   3.693  15.017 -0.1271  0.4741  0.0258
 7242TIP3    H143141   0.335   3.667  15.096 -0.9139  0.9495 -0.2759
 7242TIP3    H243142   0.474   3.701  15.045 -0.4387  0.9266  0.9531
 7243TIP3   OH243143   1.967   4.088  14.960  0.6354  0.1581  0.3632
 7243TIP3    H143144   2.013   4.114  15.040  1.6875 -1.7510  0.4331
 7243TIP3    H243145   1.993   3.997  14.946 -1.2441 -0.2277 -0.9721
 7244TIP3   OH243146   1.452   6.495   0.370 -0.3969 -0.0638 -0.2216
 7244TIP3    H143147   1.491   6.472   0.285 -0.1262  0.1129 -0.1495
 7244TIP3    H243148   1.460   6.416   0.423  0.6520  0.2155  0.0704
 7245TIP3   OH243149   4.983   2.279   1.272  0.4611  0.8821  0.2854
 7245TIP3    H143150   5.052   2.322   1.323  1.8807 -1.7542  0.7475
 7245TIP3    H243151   5.017   2.277   1.183  1.1595 -0.6402  0.5579
 7246TIP3   OH243152   6.266   1.396  15.602  0.0381  0.2990 -0.3683
 7246TIP3    H143153   6.316   1.477  15.614  1.4756 -0.3911 -1.4495
 7246TIP3    H243154   6.327   1.336  15.561 -1.1255 -1.2335  0.0533
 7247TIP3   OH243155   6.791   1.569   3.166 -0.1848 -0.0675 -0.2312
 7247TIP3    H143156   6.744   1.619   3.233 -1.1998 -2.0292  0.6264
 7247TIP3    H243157   6.766   1.609   3.083 -0.1495  1.4492  0.4652
 7248TIP3   OH243158   2.451   5.899   2.514  0.7028 -0.3436 -0.0968
 7248TIP3    H143159   2.375   5.947   2.546 -2.2136 -2.1009 -3.6160
 7248TIP3    H243160   2.440   5.810   2.547 -0.3100 -1.2323 -2.5544
 7249TIP3   OH243161   1.191   3.263   2.120  0.1266 -0.0291 -0.6547
 7249TIP3    H143162   1.106   3.296   2.150  0.3181 -0.6178  0.6278
 7249TIP3    H243163   1.245   3.261   2.199  0.4840 -2.2096 -0.8924
 7250TIP3   OH243164   3.650   4.866  15.592 -0.0020 -0.1348  0.3459
 7250TIP3    H143165   3.569   4.845  15.545  1.1135 -1.0131 -1.2751
 7250TIP3    H243166   3.708   4.902  15.525 -0.0744  3.6875  2.0459
 7251TIP3   OH243167   1.458   5.100  13.859 -0.6227  0.1867  0.2383
 7251TIP3    H143168   1.445   5.005  13.861 -1.8767  0.2846 -1.0992
 7251TIP3    H243169   1.471   5.120  13.766 -3.4974  1.6524  0.0412
 7252TIP3   OH243170   5.080   2.752   3.187 -0.3248 -0.0259  0.3234
 7252TIP3    H143171   5.150   2.764   3.252 -1.3027  1.5285  1.1528
 7252TIP3    H243172   5.024   2.684   3.225 -0.7900  0.7442  1.0673
 7253TIP3   OH243173   3.083   5.771  15.091 -0.2074 -0.3026  0.0397
 7253TIP3    H143174   3.068   5.705  15.159 -1.5686  0.4492  0.5118
 7253TIP3    H243175   3.012   5.756  15.028  1.2721 -1.2498 -1.4615
 7254TIP3   OH243176   6.723   0.774  11.307  0.0301 -0.0400  0.4938
 7254TIP3    H143177   6.792   0.837  11.328  0.0688 -0.0194  0.3099
 7254TIP3    H243178   6.764   0.715  11.243 -0.4584  0.6337 -0.4735
 7255TIP3   OH243179   0.314   1.121  15.427  0.8609 -0.6331 -0.3766
 7255TIP3    H143180   0.383   1.179  15.393  3.5575 -1.8135  2.5556
 7255TIP3    H243181   0.271   1.087  15.348  1.3053  2.7486 -2.2713
 7256TIP3   OH243182   5.776   5.877   0.370  0.0990  0.3490  0.4349
 7256TIP3    H143183   5.852   5.839   0.325  0.4719  0.2260  1.1673
 7256TIP3    H243184   5.713   5.893   0.299  0.4339 -0.4274 -0.0530
 7257TIP3   OH243185   2.924   4.145   6.105  0.3687 -0.0765  0.2760
 7257TIP3    H143186   2.924   4.092   6.026  0.5117 -0.4766  0.5381
 7257TIP3    H243187   3.000   4.114   6.154  1.2296  1.2575 -0.1517
 7258TIP3   OH243188   2.688   1.365   0.736 -0.1149  0.2497 -0.3474
 7258TIP3    H143189   2.757   1.374   0.669 -1.2363  2.1297 -1.3433
 7258TIP3    H243190   2.607   1.378   0.688 -0.9694  1.5998  1.3461
 7259TIP3   OH243191   1.348   5.767  11.985 -0.0508 -0.3286 -0.5389
 7259TIP3    H143192   1.407   5.697  12.014 -1.0133 -0.9059  0.0743
 7259TIP3    H243193   1.382   5.793  11.900 -1.1759 -3.3602 -2.0622
 7260TIP3   OH243194   1.619   4.926   3.101  0.1139  0.4973  0.4883
 7260TIP3    H143195   1.697   4.943   3.153  1.8752 -0.1064 -1.7896
 7260TIP3    H243196   1.644   4.855   3.042 -2.4922 -0.3937  0.2979
 7261TIP3   OH243197   6.689   6.387  16.985 -0.4826 -0.3365 -0.4964
 7261TIP3    H143198   6.661   6.353  17.069 -1.1678 -2.3239 -1.4701
 7261TIP3    H243199   6.654   6.325  16.921  0.8670  0.5555 -2.1797
 7262TIP3   OH243200   6.377   4.307  12.534 -0.0603  0.3883 -0.6593
 7262TIP3    H143201   6.297   4.313  12.587  0.5631 -1.4881  0.5999
 7262TIP3    H243202   6.448   4.319  12.596  0.6731 -0.7834 -1.2327
 7263TIP3   OH243203   5.491   3.160   4.451 -0.3481 -0.5303  0.0753
 7263TIP3    H143204   5.410   3.196   4.485 -0.6383  0.5610 -1.6621
 7263TIP3    H243205   5.468   3.072   4.421 -1.0981  0.0582 -1.1235
 7264TIP3   OH243206   0.626   0.849  16.179  0.7518 -0.2809 -0.4243
 7264TIP3    H143207   0.626   0.807  16.093  1.1646  1.8954 -1.5630
 7264TIP3    H243208   0.684   0.795  16.232  1.1706 -1.2000 -1.7705
 7265TIP3   OH243209   1.085   5.722  11.893  0.4830  0.1900 -0.1553
 7265TIP3    H143210   1.106   5.787  11.825  0.9433 -1.3672 -1.5828
 7265TIP3    H243211   1.170   5.695  11.928  0.4416 -0.8741 -0.8169
 7266TIP3   OH243212   6.762   3.199   5.823  0.3219  0.0517  0.4748
 7266TIP3    H143213   6.790   3.278   5.870  0.1577 -0.4692  1.4721
 7266TIP3    H243214   6.678   3.176   5.864 -0.0571 -0.1600 -0.3963
 7267TIP3   OH243215   1.757   2.252   6.154 -0.2606  0.0902  0.7399
 7267TIP3    H143216   1.826   2.191   6.178 -0.1501 -0.5635 -1.0631
 7267TIP3    H243217   1.788   2.292   6.072 -1.2138  1.1228  0.8538
 7268TIP3   OH243218   1.018   0.682   0.730  0.4059 -0.5734 -0.6975
 7268TIP3    H143219   0.936   0.700   0.777  0.5226 -3.3529  0.7798
 7268TIP3    H243220   1.086   0.686   0.798  1.3629  0.4370 -1.6686
 7269TIP3   OH243221   5.277   0.383  11.670  0.1094 -0.0221  0.0391
 7269TIP3    H143222   5.191   0.347  11.646  0.8680 -0.6337 -1.8886
 7269TIP3    H243223   5.338   0.310  11.656  1.3676  1.2827 -1.6720
 7270TIP3   OH243224   6.603   0.642  14.035 -0.7281 -0.1514  0.1413
 7270TIP3    H143225   6.532   0.585  14.006 -0.4238  0.4334 -1.9353
 7270TIP3    H243226   6.669   0.634  13.966  1.8508 -1.6593  2.6033
 7271TIP3   OH243227   3.179   1.451   1.687 -0.1912  0.3191 -0.0961
 7271TIP3    H143228   3.138   1.397   1.755  0.8502 -0.0236  0.2783
 7271TIP3    H243229   3.254   1.491   1.731  0.3789  0.2573 -0.9960
 7272TIP3   OH243230   5.328   2.112  10.603 -0.8552  0.0174  0.2866
 7272TIP3    H143231   5.406   2.146  10.560 -0.0466 -1.7270  0.3145
 7272TIP3    H243232   5.348   2.021  10.623 -2.3543 -0.0757  1.6230
 7273TIP3   OH243233   3.672   5.379  17.160  0.2323 -0.3187 -0.3679
 7273TIP3    H143234   3.724   5.363  17.081  0.4016 -1.7214  0.0043
 7273TIP3    H243235   3.719   5.450  17.205  0.9799 -0.5344 -0.7887
 7274TIP3   OH243236   6.432   6.202  15.116  0.2702  0.5835  0.6466
 7274TIP3    H143237   6.511   6.170  15.160  0.9561 -0.6978 -1.3524
 7274TIP3    H243238   6.361   6.150  15.153  0.5860  0.6873  1.4030
 7275TIP3   OH243239   1.356   5.288   3.746  0.2855  0.0470  0.5256
 7275TIP3    H143240   1.373   5.367   3.694 -0.0320 -0.7780 -0.9056
 7275TIP3    H243241   1.263   5.269   3.731  0.5077 -0.9471  0.3148
 7276TIP3   OH243242   5.857   6.427   5.772 -0.4933 -0.1342 -0.2267
 7276TIP3    H143243   5.921   6.360   5.796 -1.6312 -1.5706 -1.0413
 7276TIP3    H243244   5.798   6.431   5.848 -2.1962 -2.3358 -1.3123
 7277TIP3   OH243245   4.073   2.464  11.464 -0.5069 -0.1242 -0.1814
 7277TIP3    H143246   4.058   2.466  11.369 -2.1535  1.8670  0.0633
 7277TIP3    H243247   4.059   2.373  11.489  0.0146 -0.6938 -1.8389
 7278TIP3   OH243248   1.349   2.238   4.852 -0.4615  0.1979  0.0840
 7278TIP3    H143249   1.328   2.204   4.765 -0.9893 -0.5372  0.4921
 7278TIP3    H243250   1.274   2.214   4.906  0.1212  0.1450  0.8813
 7279TIP3   OH243251   6.172   2.614  12.038  0.5382  0.6282 -0.1700
 7279TIP3    H143252   6.194   2.533  11.991  2.0135  1.6574 -1.3605
 7279TIP3    H243253   6.096   2.649  11.991 -0.1921 -0.1216  0.4378
 7280TIP3   OH243254   6.375   2.818  12.632  0.3888 -0.3007  0.0192
 7280TIP3    H143255   6.404   2.900  12.672 -0.6605  0.5799 -0.9213
 7280TIP3    H243256   6.340   2.766  12.705 -0.9627  1.0286  0.3755
 7281TIP3   OH243257   2.764   3.947   0.890 -0.3322 -0.1168  0.3666
 7281TIP3    H143258   2.699   3.957   0.960  0.9147 -1.6159  1.8443
 7281TIP3    H243259   2.848   3.963   0.932  0.4107 -0.2512 -0.9937
 7282TIP3   OH243260   3.405   3.517   6.133 -0.0098 -0.1315  0.0334
 7282TIP3    H143261   3.324   3.507   6.183  0.8514  0.5590  1.6276
 7282TIP3    H243262   3.393   3.597   6.082  0.2650  0.8576  1.4893
 7283TIP3   OH243263   2.868   3.018  17.161 -0.1227  0.4796  0.0282
 7283TIP3    H143264   2.808   2.958  17.205 -0.9210  1.5516  0.4292
 7283TIP3    H243265   2.862   2.993  17.068  0.8960 -1.1936  0.3686
 7284TIP3   OH243266   5.549   3.572   1.716 -0.0314  0.1891  0.0607
 7284TIP3    H143267   5.635   3.601   1.686 -0.0244  1.4687  1.2548
 7284TIP3    H243268   5.488   3.608   1.652  0.2446 -0.1204 -0.3876
 7285TIP3   OH243269   3.586   4.357  10.802  0.0636  0.2450 -0.0682
 7285TIP3    H143270   3.646   4.420  10.842 -0.2761  1.9735 -2.0564
 7285TIP3    H243271   3.499   4.387  10.830 -0.0427 -0.1843  0.0684
 7286TIP3   OH243272   6.291   6.642   2.312 -0.2541  0.4559  0.6212
 7286TIP3    H143273   6.260   6.565   2.359 -0.3272 -0.3532 -0.6937
 7286TIP3    H243274   6.213   6.678   2.270 -0.0059  0.4897  0.1848
 7287TIP3   OH243275   3.882   4.986  14.280  0.0702  0.1727  0.3614
 7287TIP3    H143276   3.788   4.984  14.261  0.2761  0.8038 -0.7997
 7287TIP3    H243277   3.918   5.049  14.218  1.3017 -0.2234  0.6428
 7288TIP3   OH243278   5.500   4.823   3.254  0.1316 -0.0254  0.3458
 7288TIP3    H143279   5.470   4.894   3.310  1.4354  1.4572 -0.7327
 7288TIP3    H243280   5.473   4.849   3.166  0.9192 -0.6886 -0.1081
 7289TIP3   OH243281   1.922   4.556   5.711  0.2520 -0.3328  0.4125
 7289TIP3    H143282   1.894   4.478   5.759  0.9147 -0.3140  0.8283
 7289TIP3    H243283   1.918   4.627   5.775 -0.5831  0.0322 -0.0255
 7290TIP3   OH243284   5.984   4.452   5.879 -0.3865 -0.0465  0.3361
 7290TIP3    H143285   6.065   4.402   5.888 -1.0311 -1.0340  0.7884
 7290TIP3    H243286   5.915   4.388   5.893 -1.2350  1.0717  1.4510
 7291TIP3   OH243287   4.767   4.386   2.391  0.1990  0.3507  0.2411
 7291TIP3    H143288   4.723   4.462   2.429  0.5595  0.1838  1.0163
 7291TIP3    H243289   4.830   4.423   2.330 -1.7791  0.5768 -1.8246
 7292TIP3   OH243290   0.780   2.286   4.686 -0.2667  0.7231 -0.3821
 7292TIP3    H143291   0.709   2.221   4.677 -0.1626  0.5035  0.3198
 7292TIP3    H243292   0.744   2.352   4.744  0.4377  0.1108  0.7873
 7293TIP3   OH243293   1.033   6.080   4.787  0.4558  0.1550 -0.2510
 7293TIP3    H143294   0.960   6.066   4.727 -1.1528  4.0949  0.4512
 7293TIP3    H243295   0.999   6.053   4.872  0.4189  0.4511 -0.1717
 7294TIP3   OH243296   5.400   0.358  12.498  0.4400  0.6959  0.0495
 7294TIP3    H143297   5.391   0.299  12.574 -0.9209 -0.2008 -0.7686
 7294TIP3    H243298   5.456   0.429  12.530  0.3689  0.0565  1.7240
 7295TIP3   OH243299   4.431   2.337  16.493 -0.9870 -0.1267 -0.2605
 7295TIP3    H143300   4.464   2.302  16.576 -0.0636 -1.5333 -1.1809
 7295TIP3    H243301   4.407   2.428  16.513 -0.1680 -0.2365  1.3759
 7296TIP3   OH243302   5.674   0.264  15.712 -0.3380  0.2948 -0.3937
 7296TIP3    H143303   5.672   0.215  15.629  0.3108  0.1881 -0.3545
 7296TIP3    H243304   5.603   0.328  15.704  1.6133  2.4437 -2.3951
 7297TIP3   OH243305   4.315   5.677  11.756 -0.1738 -0.4566 -0.3481
 7297TIP3    H143306   4.332   5.583  11.748  0.4445 -0.2959 -0.9765
 7297TIP3    H243307   4.401   5.718  11.752 -0.3539  0.0766  0.9749
 7298TIP3   OH243308   1.315   4.220   1.196  0.8121 -0.1469  0.7355
 7298TIP3    H143309   1.343   4.273   1.122  0.5887 -0.9390  0.0580
 7298TIP3    H243310   1.395   4.184   1.232  0.8174 -1.1045 -0.1834
 7299TIP3   OH243311   3.626   5.444  13.734 -0.6420 -0.1261 -0.2578
 7299TIP3    H143312   3.538   5.477  13.717 -0.3758  0.6284 -0.2212
 7299TIP3    H243313   3.674   5.459  13.653 -0.4720 -0.2636 -0.1826
 7300TIP3   OH243314   1.555   0.638   2.577  0.7328  0.2814  0.1529
 7300TIP3    H143315   1.647   0.614   2.565  1.0494  1.0542  0.9119
 7300TIP3    H243316   1.549   0.660   2.670 -0.1125  0.7196 -0.0012
 7301TIP3   OH243317   2.773   4.789   2.981  0.0426 -0.4903  0.9007
 7301TIP3    H143318   2.769   4.883   2.993  1.3559 -0.3379  0.3036
 7301TIP3    H243319   2.844   4.760   3.039  0.8894 -0.8373 -0.2639
 7302TIP3   OH243320   0.132   2.857   2.137  0.0392  0.0233  0.1533
 7302TIP3    H143321   0.167   2.924   2.196  1.3270  0.1929 -0.7548
 7302TIP3    H243322   0.210   2.813   2.102 -0.7215 -0.6327 -0.7829
 7303TIP3   OH243323   5.387   2.818  10.991  0.5388  0.0124 -0.4679
 7303TIP3    H143324   5.410   2.819  11.084 -0.9688  0.8730 -0.0697
 7303TIP3    H243325   5.342   2.734  10.978 -1.2464  0.8370  0.1379
 7304TIP3   OH243326   2.100   0.027   3.930 -0.7350  0.1117  0.2865
 7304TIP3    H143327   2.157   0.043   4.004 -1.1823  1.4394  0.3648
 7304TIP3    H243328   2.013   0.054   3.959 -1.6911 -2.8907  0.5497
 7305TIP3   OH243329   6.047   1.606  17.013 -0.5835 -0.1986  0.0891
 7305TIP3    H143330   6.139   1.632  17.013 -0.7487  0.6520 -2.3734
 7305TIP3    H243331   6.049   1.512  17.032  0.6527  0.0643  1.4505
 7306TIP3   OH243332   4.914   2.349   2.287 -0.7711 -0.0682 -0.0568
 7306TIP3    H143333   4.866   2.353   2.370 -1.4453  0.9587 -0.4741
 7306TIP3    H243334   4.908   2.257   2.260 -1.5234 -0.1806  0.4763
 7307TIP3   OH243335   2.838   1.846   3.129  0.4685 -0.0850 -0.4403
 7307TIP3    H143336   2.827   1.755   3.156  1.6006  0.4858  2.2806
 7307TIP3    H243337   2.751   1.884   3.137  0.3925 -0.4338  0.6353
 7308TIP3   OH243338   0.221   5.436   1.565  0.2581 -0.5449  0.7994
 7308TIP3    H143339   0.291   5.500   1.579  0.5064 -0.9152  1.2714
 7308TIP3    H243340   0.154   5.461   1.628  0.1395 -0.4425  0.6330
 7309TIP3   OH243341   5.046   0.630  11.951 -0.0614  0.3162 -0.5002
 7309TIP3    H143342   5.004   0.571  11.889  0.5238 -1.7639  0.9799
 7309TIP3    H243343   5.042   0.584  12.035  0.5177  2.3598  0.7177
 7310TIP3   OH243344   5.281   1.772   1.525 -0.1306 -0.0146 -0.1133
 7310TIP3    H143345   5.321   1.706   1.583 -0.5187 -2.9172 -2.9136
 7310TIP3    H243346   5.355   1.808   1.477 -0.2168 -1.1198 -1.1280
 7311TIP3   OH243347   4.378   3.815   1.404 -0.2677  0.0319  0.0212
 7311TIP3    H143348   4.317   3.767   1.461 -0.4647  0.9152  0.5597
 7311TIP3    H243349   4.446   3.751   1.383  0.3677 -0.0194  2.0814
 7312TIP3   OH243350   1.244   3.141   0.592 -0.0360  0.5019 -0.1966
 7312TIP3    H143351   1.254   3.070   0.655 -0.8460 -0.3543 -0.9997
 7312TIP3    H243352   1.178   3.199   0.631 -2.5676 -1.4185 -1.3859
 7313TIP3   OH243353   3.418   1.478  10.941 -0.0979  0.2784  0.2467
 7313TIP3    H143354   3.367   1.397  10.937  0.0395  0.1165  1.3257
 7313TIP3    H243355   3.383   1.532  10.870 -0.0080 -0.8210 -0.6671
 7314TIP3   OH243356   6.609   5.973   4.387 -0.4990 -0.0078 -0.0638
 7314TIP3    H143357   6.657   5.966   4.470  0.1589 -0.1741 -0.4580
 7314TIP3    H243358   6.522   5.937   4.407 -0.3455 -0.0461  0.5542
 7315TIP3   OH243359   2.595   5.762   3.210  0.2407 -0.1397  0.5379
 7315TIP3    H143360   2.666   5.821   3.184 -1.2239  0.5308 -2.2757
 7315TIP3    H243361   2.518   5.818   3.216 -0.6527 -1.3242  0.5162
 7316TIP3   OH243362   6.354   5.186  15.238  0.0249  0.1935 -0.2005
 7316TIP3    H143363   6.447   5.185  15.218  0.0762 -0.2472  0.0638
 7316TIP3    H243364   6.312   5.143  15.164  0.1194 -0.4766  0.1327
 7317TIP3   OH243365   5.892   0.151  13.369  0.9533 -0.0541  0.2929
 7317TIP3    H143366   5.814   0.112  13.329 -0.7962  4.6827 -1.6112
 7317TIP3    H243367   5.964   0.095  13.341 -1.1728 -1.6049 -2.5857
 7318TIP3   OH243368   0.333   1.682  14.565 -0.4546 -0.5566 -0.1520
 7318TIP3    H143369   0.324   1.713  14.475  1.3703  1.0088  0.1549
 7318TIP3    H243370   0.425   1.655  14.572 -0.7094 -1.1830  1.0956
 7319TIP3   OH243371   2.795   5.292  13.320  0.0071 -0.6075 -0.0684
 7319TIP3    H143372   2.793   5.221  13.256 -0.8223 -1.5393  0.9320
 7319TIP3    H243373   2.888   5.312  13.331  0.6396 -3.8454  1.9925
 7320TIP3   OH243374   3.844   0.357   2.051  0.0663 -0.1931  0.5232
 7320TIP3    H143375   3.774   0.300   2.084  0.9895 -2.1617 -0.7110
 7320TIP3    H243376   3.820   0.373   1.959 -0.6643  2.2975  1.0743
 7321TIP3   OH243377   4.772   2.848  16.190 -0.1572  0.1205 -0.0087
 7321TIP3    H143378   4.760   2.886  16.277  1.1479 -0.4783  0.4526
 7321TIP3    H243379   4.821   2.767  16.205 -0.8478 -0.5489 -1.2011
 7322TIP3   OH243380   2.449   6.082  16.102 -0.8099 -0.4142 -0.0299
 7322TIP3    H143381   2.433   6.175  16.086 -0.8214 -0.7129 -2.0133
 7322TIP3    H243382   2.512   6.080  16.174 -0.9518  1.1146  0.1628
 7323TIP3   OH243383   1.199   6.584  12.522  0.8237  0.3359 -0.1367
 7323TIP3    H143384   1.138   6.657  12.524  2.0595  1.4849 -1.9694
 7323TIP3    H243385   1.199   6.554  12.431  0.7101 -1.6901  0.4602
 7324TIP3   OH243386   2.801   2.358   4.339 -0.0947  0.5582 -1.0469
 7324TIP3    H143387   2.849   2.364   4.257  1.3102 -1.6254 -0.4628
 7324TIP3    H243388   2.768   2.268   4.341  1.9627 -0.2630  1.7948
 7325TIP3   OH243389   4.439   5.443   6.240  0.4840 -0.0593  0.0792
 7325TIP3    H143390   4.477   5.526   6.212  0.5967 -0.4834 -1.0530
 7325TIP3    H243391   4.467   5.380   6.174 -1.4119 -0.5790 -0.2956
 7326TIP3   OH243392   0.907   6.217   0.667  0.4221  0.2210  0.2091
 7326TIP3    H143393   0.945   6.305   0.667 -0.5233  0.6384  0.3579
 7326TIP3    H243394   0.979   6.160   0.693  1.0159  0.9637  0.2191
 7327TIP3   OH243395   3.267   1.438  15.889  0.3444  0.5186 -0.9597
 7327TIP3    H143396   3.313   1.510  15.932 -0.9932 -0.5110  2.6034
 7327TIP3    H243397   3.329   1.365  15.894 -0.1173  0.1865  0.0179
 7328TIP3   OH243398   4.239   5.173  13.041  0.1186 -0.3649 -0.2459
 7328TIP3    H143399   4.169   5.232  13.070  1.1367  0.3161  0.9133
 7328TIP3    H243400   4.264   5.207  12.955 -1.4936 -1.1075 -1.0528
 7329TIP3   OH243401   3.384   1.045  16.430 -0.2965 -0.1781 -0.3443
 7329TIP3    H143402   3.343   1.064  16.346  1.7637  0.3261 -1.3069
 7329TIP3    H243403   3.478   1.043  16.411  0.2011 -0.6649  1.8396
 7330TIP3   OH243404   2.559   3.739   1.341  0.6352  0.4361 -0.1574
 7330TIP3    H143405   2.500   3.686   1.394  1.3294  1.0972  1.3325
 7330TIP3    H243406   2.578   3.816   1.396 -0.5342  2.3981 -2.3099
 7331TIP3   OH243407   3.135   0.324  12.705 -0.1203 -0.2943  0.1476
 7331TIP3    H143408   3.077   0.357  12.774 -1.6498  0.6911 -1.5127
 7331TIP3    H243409   3.220   0.319  12.747 -0.8471  0.9246  1.9410
 7332TIP3   OH243410   4.023   5.104   0.647 -0.3902 -0.0242  0.0265
 7332TIP3    H143411   3.937   5.116   0.687 -0.1764 -0.0530  0.5150
 7332TIP3    H243412   4.058   5.025   0.690  0.1161  0.3290  0.2739
 7333TIP3   OH243413   1.544   3.469   2.497 -0.2387  0.1662 -0.4724
 7333TIP3    H143414   1.624   3.418   2.492  0.6713  1.2014  1.9249
 7333TIP3    H243415   1.550   3.531   2.424  1.7489  0.9805  0.3212
 7334TIP3   OH243416   3.290   4.477  12.883 -0.4298 -0.1910 -0.3616
 7334TIP3    H143417   3.301   4.572  12.880 -1.7375 -0.0384 -1.4440
 7334TIP3    H243418   3.373   4.444  12.918 -0.0597  1.3546  0.2945
 7335TIP3   OH243419   2.384   0.120  14.007  0.1592 -0.0023 -0.4754
 7335TIP3    H143420   2.460   0.099  13.952  1.6720 -0.6288  1.7225
 7335TIP3    H243421   2.399   0.210  14.035  0.0800 -0.1241 -0.0404
 7336TIP3   OH243422   0.441   5.166  15.397  0.2612 -0.6543  0.4679
 7336TIP3    H143423   0.492   5.176  15.478 -0.1202 -0.5178  0.6937
 7336TIP3    H243424   0.475   5.086  15.357  2.0163  0.4503 -0.3752
 7337TIP3   OH243425   2.199   3.933   3.358  0.0527  0.0479 -0.7072
 7337TIP3    H143426   2.173   4.001   3.419 -0.0544  0.0813 -0.7895
 7337TIP3    H243427   2.267   3.973   3.305 -1.3498  0.7515 -2.0497
 7338TIP3   OH243428   5.382   1.358  17.019 -0.2085 -0.2431 -0.2126
 7338TIP3    H143429   5.356   1.396  16.935 -0.1538  0.4107  0.0633
 7338TIP3    H243430   5.447   1.418  17.054 -1.8528  0.7268  1.3348
 7339TIP3   OH243431   3.929   4.982  15.228  0.6155 -0.1607 -0.2376
 7339TIP3    H143432   3.851   4.929  15.218  1.1237 -0.6793 -1.7130
 7339TIP3    H243433   3.918   5.026  15.312 -1.2830 -0.1533 -0.4609
 7340TIP3   OH243434   3.435   5.757   6.025  0.4765 -0.0054 -0.0626
 7340TIP3    H143435   3.417   5.796   5.939  0.9624 -2.8670 -1.5843
 7340TIP3    H243436   3.349   5.725   6.055  0.3487  0.7806  0.4350
 7341TIP3   OH243437   4.671   4.013   0.655  0.0811  0.1875 -0.2421
 7341TIP3    H143438   4.603   4.077   0.633 -1.1638 -0.7371  0.8142
 7341TIP3    H243439   4.736   4.063   0.704 -0.1756  0.9385 -0.6510
 7342TIP3   OH243440   0.979   1.673   4.249  0.5221 -0.2542 -0.2114
 7342TIP3    H143441   0.998   1.607   4.315  2.1474  1.1061  0.7498
 7342TIP3    H243442   1.048   1.662   4.183  0.0632 -0.3126 -0.6930
 7343TIP3   OH243443   1.246   5.513  15.134  0.3648 -0.1676 -0.7119
 7343TIP3    H143444   1.237   5.436  15.189 -0.7027 -1.0596 -2.0782
 7343TIP3    H243445   1.340   5.519  15.115  0.5192 -0.8065 -0.1556
 7344TIP3   OH243446   0.604   3.346   3.083  0.5462  0.2458 -0.1216
 7344TIP3    H143447   0.658   3.405   3.137 -1.8067  1.5279  0.9855
 7344TIP3    H243448   0.524   3.395   3.066 -0.5919 -1.8166 -1.1087
 7345TIP3   OH243449   4.869   5.133   4.759  0.6303 -0.2206 -0.1070
 7345TIP3    H143450   4.822   5.155   4.678  1.4681  0.5403 -0.3960
 7345TIP3    H243451   4.928   5.062   4.734 -0.1454 -0.9920  0.1942
 7346TIP3   OH243452   2.714   2.659   4.837 -0.7384 -0.2268  0.6331
 7346TIP3    H143453   2.729   2.681   4.745 -0.0010  2.9363  1.3884
 7346TIP3    H243454   2.783   2.596   4.858  1.3130  1.5989 -0.2013
 7347TIP3   OH243455   3.278   5.700   3.680 -0.1410 -0.3581 -0.1009
 7347TIP3    H143456   3.277   5.790   3.712  1.0598 -0.8171  1.3437
 7347TIP3    H243457   3.282   5.646   3.759  4.1861 -1.5296 -0.8156
 7348TIP3   OH243458   1.577   0.561  10.832 -0.4439  0.0050  0.0311
 7348TIP3    H143459   1.665   0.589  10.858 -0.2518 -0.6830  0.1283
 7348TIP3    H243460   1.529   0.552  10.914 -0.1879 -1.0011  0.0744
 7349TIP3   OH243461   6.029   2.958  15.496 -0.5170  0.2605  0.3074
 7349TIP3    H143462   6.027   3.047  15.462 -1.0306  0.6731  1.3747
 7349TIP3    H243463   6.101   2.957  15.559  1.0645 -0.7662 -1.4339
 7350TIP3   OH243464   5.368   5.438  15.058  0.1208  0.4306 -0.2596
 7350TIP3    H143465   5.438   5.445  15.123 -0.3913  1.1571  0.2266
 7350TIP3    H243466   5.322   5.522  15.063 -4.1755 -1.7027  3.2698
 7351TIP3   OH243467   4.445   3.176   3.021  0.4859  0.0571  0.2641
 7351TIP3    H143468   4.433   3.228   3.101 -1.0092  0.4135 -0.1617
 7351TIP3    H243469   4.446   3.240   2.950  0.4236 -0.3618 -0.1199
 7352TIP3   OH243470   4.058   5.947  15.599  0.4416 -0.2554 -0.0563
 7352TIP3    H143471   4.057   6.040  15.578  1.4247 -0.5329 -1.5391
 7352TIP3    H243472   4.091   5.942  15.689 -0.1358  0.8485  0.2195
 7353TIP3   OH243473   2.891   3.613  13.639 -0.2292 -0.2031  0.4863
 7353TIP3    H143474   2.823   3.680  13.648  0.4490  0.4709  0.6824
 7353TIP3    H243475   2.854   3.536  13.681 -0.2667  0.6002  1.9873
 7354TIP3   OH243476   6.507   5.121  10.450  0.2300  0.1324 -0.2682
 7354TIP3    H143477   6.448   5.060  10.405 -0.3431  0.5306 -0.0657
 7354TIP3    H243478   6.572   5.145  10.384  0.0487 -0.1508 -0.5529
 7355TIP3   OH243479   6.104   5.580  12.419  0.4416  0.3572  0.5488
 7355TIP3    H143480   6.131   5.610  12.332 -1.8392 -1.3903 -0.8918
 7355TIP3    H243481   6.072   5.658  12.463 -1.0526  0.8762 -1.3294
 7356TIP3   OH243482   3.276   0.899   3.964  0.2227  0.4657 -0.1277
 7356TIP3    H143483   3.191   0.939   3.946  0.7032  0.9670 -1.4376
 7356TIP3    H243484   3.259   0.805   3.964 -0.7185  0.5843  1.8833
 7357TIP3   OH243485   0.050   0.595   6.468  0.0896 -0.0723  0.7141
 7357TIP3    H143486   0.109   0.538   6.518  1.5184  2.3682  1.9520
 7357TIP3    H243487   0.092   0.681   6.469 -1.2833  0.7631 -2.2953
 7358TIP3   OH243488   4.135   3.446  15.072 -0.4672 -0.1014  0.0980
 7358TIP3    H143489   4.106   3.375  15.015 -1.0582 -1.0781  1.5670
 7358TIP3    H243490   4.146   3.405  15.158  3.7192  0.5220  0.0843
 7359TIP3   OH243491   2.394   5.350  16.307  0.0301  0.1410 -0.6619
 7359TIP3    H143492   2.413   5.337  16.215  0.0482 -1.0262 -0.5181
 7359TIP3    H243493   2.306   5.389  16.309 -0.8567 -1.6935 -1.1577
 7360TIP3   OH243494   1.072   5.950   5.254 -0.4928 -0.5929  0.0719
 7360TIP3    H143495   1.087   5.856   5.262 -1.0402 -0.5905  1.4932
 7360TIP3    H243496   1.034   5.975   5.338 -2.3540  0.5206 -1.0474
 7361TIP3   OH243497   1.958   6.025   4.936 -0.0366  0.0313 -0.2888
 7361TIP3    H143498   1.988   6.089   5.000 -1.0586 -0.8616  1.1630
 7361TIP3    H243499   1.931   6.076   4.860  0.3171  1.2076  0.3627
 7362TIP3   OH243500   1.875   3.979   2.854 -0.4782  0.4484 -0.3897
 7362TIP3    H143501   1.843   4.069   2.860 -0.4307  0.7278 -3.1103
 7362TIP3    H243502   1.926   3.966   2.934 -1.8259  2.2390  0.8553
 7363TIP3   OH243503   3.493   1.300   4.483  0.1783 -0.2386 -0.1318
 7363TIP3    H143504   3.557   1.342   4.541  0.6740  1.2648 -1.7026
 7363TIP3    H243505   3.507   1.340   4.398 -0.4308 -2.4882 -1.3765
 7364TIP3   OH243506   6.256   3.906   3.390  0.2127 -0.4171  0.5346
 7364TIP3    H143507   6.265   3.965   3.316  0.1024 -0.6810  0.3066
 7364TIP3    H243508   6.338   3.856   3.391  0.6875  0.3488  1.2742
 7365TIP3   OH243509   6.422   6.433   0.594 -0.5136 -0.5844 -0.2650
 7365TIP3    H143510   6.330   6.457   0.585 -0.4184 -0.4678 -1.0127
 7365TIP3    H243511   6.443   6.451   0.686 -1.0774 -0.0550 -0.2339
 7366TIP3   OH243512   2.059   5.849   4.255 -0.4626  0.1789 -0.0988
 7366TIP3    H143513   1.987   5.799   4.295 -0.3795 -1.4472 -1.8247
 7366TIP3    H243514   2.135   5.830   4.310 -0.6517 -0.8535 -0.1596
 7367TIP3   OH243515   4.011   4.476   2.844 -0.3565 -0.2989  0.0205
 7367TIP3    H143516   3.920   4.445   2.843 -0.9093  1.2921 -0.5317
 7367TIP3    H243517   4.010   4.554   2.899 -0.1705  2.1127 -3.1425
 7368TIP3   OH243518   5.544   4.390   4.078 -0.5188  0.7077 -0.1224
 7368TIP3    H143519   5.576   4.387   3.987 -2.9296 -0.4449 -1.0198
 7368TIP3    H243520   5.522   4.482   4.092 -0.7179  0.7991 -0.9481
 7369TIP3   OH243521   2.959   4.714  14.362 -0.6503  0.3401 -0.4615
 7369TIP3    H143522   2.955   4.770  14.440 -2.0000  0.8657 -0.8697
 7369TIP3    H243523   2.869   4.684  14.350  0.0644 -2.0731 -0.1918
 7370TIP3   OH243524   1.554   5.485  16.550  0.0025  0.4139 -0.6333
 7370TIP3    H143525   1.468   5.505  16.588  0.9595  0.5691  1.5834
 7370TIP3    H243526   1.596   5.570  16.539  0.6190  0.2270  0.1997
 7371TIP3   OH243527   2.340   6.285   2.838  0.4948 -0.8115  0.1788
 7371TIP3    H143528   2.353   6.353   2.904 -1.7267 -0.7751  0.6448
 7371TIP3    H243529   2.257   6.244   2.861 -0.7485 -0.3601 -2.9505
 7372TIP3   OH243530   0.274   3.943  15.654 -0.4060 -0.1751  0.0770
 7372TIP3    H143531   0.362   3.966  15.684 -0.4771  0.0355  0.1254
 7372TIP3    H243532   0.216   3.981  15.721 -0.4909 -1.1288  0.5589
 7373TIP3   OH243533   2.740   1.428   5.717  0.3931  0.9441  0.5243
 7373TIP3    H143534   2.763   1.517   5.692  0.2583  0.8253 -0.0339
 7373TIP3    H243535   2.749   1.427   5.812 -0.4366  1.7939  0.6276
 7374TIP3   OH243536   3.236   0.447   2.156  0.7756  0.1162 -0.6712
 7374TIP3    H143537   3.144   0.440   2.182  0.7585  2.8253  0.3930
 7374TIP3    H243538   3.270   0.358   2.162 -1.2265 -0.6170  1.1298
 7375TIP3   OH243539   6.568   0.144  15.380  0.3344 -0.1483  0.0607
 7375TIP3    H143540   6.579   0.052  15.404 -0.4754 -0.8000 -1.9226
 7375TIP3    H243541   6.650   0.168  15.337 -0.1181 -0.5062 -1.0386
 7376TIP3   OH243542   1.519   3.536  12.455  0.1443  0.3705  0.3627
 7376TIP3    H143543   1.428   3.527  12.425  0.9386  0.0979 -2.2827
 7376TIP3    H243544   1.517   3.610  12.516 -1.5115  1.9621 -1.4632
 7377TIP3   OH243545   1.040   4.935  10.329  0.8223  0.6593  0.0223
 7377TIP3    H143546   0.974   4.866  10.323  1.0614  0.4205  0.1233
 7377TIP3    H243547   0.991   5.016  10.311  0.4802  0.4999  0.2115
 7378TIP3   OH243548   3.815   1.518   5.075 -0.0069  0.2450 -0.3656
 7378TIP3    H143549   3.877   1.582   5.109  0.7256 -0.2007 -0.8381
 7378TIP3    H243550   3.735   1.568   5.059  0.3233  0.8908 -0.0359
 7379TIP3   OH243551   1.373   4.385  14.776  0.6321  0.5454 -0.8681
 7379TIP3    H143552   1.300   4.446  14.771  0.5943  0.4536 -1.4798
 7379TIP3    H243553   1.407   4.395  14.865  0.2903  1.0661 -0.7960
 7380TIP3   OH243554   1.781   3.775   0.157  0.0054  0.0589  0.3892
 7380TIP3    H143555   1.773   3.844   0.222 -1.3282  0.0431  0.2672
 7380TIP3    H243556   1.731   3.702   0.193 -0.7725  0.0607 -0.6481
 7381TIP3   OH243557   5.010   1.778   2.387 -0.1769 -0.1459  0.2782
 7381TIP3    H143558   5.055   1.751   2.307  0.8657  1.8966  0.0960
 7381TIP3    H243559   4.942   1.713   2.400  0.9968 -1.7284 -1.0745
 7382TIP3   OH243560   2.127   1.954   4.993  0.0226  0.0245  0.6417
 7382TIP3    H143561   2.186   1.954   4.917  0.4878 -0.8138  0.9943
 7382TIP3    H243562   2.045   1.917   4.960  0.6366 -1.6017  0.8341
 7383TIP3   OH243563   6.660   1.645  10.528 -0.5361 -0.4753 -0.4426
 7383TIP3    H143564   6.686   1.593  10.604 -0.6759  0.4353  0.2408
 7383TIP3    H243565   6.579   1.688  10.555  0.0787  0.8404 -0.6430
 7384TIP3   OH243566   2.001   5.443  11.400  0.0624  0.0173 -0.2897
 7384TIP3    H143567   2.025   5.372  11.340 -0.2701 -0.4057  0.0803
 7384TIP3    H243568   1.930   5.489  11.356 -0.3821 -0.4749 -0.0847
 7385TIP3   OH243569   5.696   0.558   0.062 -0.6036 -0.4229  0.1278
 7385TIP3    H143570   5.616   0.510   0.040 -0.6801  0.0917 -0.7549
 7385TIP3    H243571   5.717   0.607  -0.017  1.2084 -1.4112 -0.0288
 7386TIP3   OH243572   2.713   1.569  15.992 -0.1382 -0.2887 -0.0280
 7386TIP3    H143573   2.669   1.624  15.927 -0.8455  0.0365  0.7158
 7386TIP3    H243574   2.664   1.487  15.991 -1.9823  0.6701  2.0606
 7387TIP3   OH243575   4.609   6.471   5.865  0.3054  0.2131 -0.3394
 7387TIP3    H143576   4.515   6.465   5.847  0.6586 -0.8568 -2.0158
 7387TIP3    H243577   4.614   6.517   5.949 -1.6587  1.3877 -0.7944
 7388TIP3   OH243578   2.311   6.088   1.137 -0.1992  0.2385  0.8218
 7388TIP3    H143579   2.388   6.062   1.187  0.7487  1.1762 -0.1090
 7388TIP3    H243580   2.264   6.148   1.195  0.7689  1.1359  0.6989
 7389TIP3   OH243581   4.821   1.088  14.942  0.5613 -0.3700  0.3385
 7389TIP3    H143582   4.898   1.120  14.990 -0.3874 -2.0615  3.2397
 7389TIP3    H243583   4.749   1.140  14.978 -0.1108 -1.3323  0.3889
 7390TIP3   OH243584   2.411   0.968   2.110  0.0899  0.3795  0.1173
 7390TIP3    H143585   2.478   0.925   2.057 -0.7128 -0.1753 -0.4864
 7390TIP3    H243586   2.445   0.966   2.199  0.4309 -0.8202 -0.0155
 7391TIP3   OH243587   2.193   3.466   3.322  0.3015  0.0356  0.1329
 7391TIP3    H143588   2.262   3.468   3.388 -0.3730  0.1359  0.8459
 7391TIP3    H243589   2.137   3.393   3.347 -0.0486  0.1713 -0.2380
 7392TIP3   OH243590   3.250   1.292  15.335  0.3174 -0.5966  0.1964
 7392TIP3    H143591   3.317   1.235  15.297  0.4776 -2.0175  2.4356
 7392TIP3    H243592   3.299   1.354  15.389 -0.0871 -2.0204  2.3328
 7393TIP3   OH243593   5.381   3.282   2.024  0.6814  0.0520 -0.0456
 7393TIP3    H143594   5.468   3.314   2.000  0.7089 -0.1793 -0.2591
 7393TIP3    H243595   5.369   3.204   1.971  0.1564  0.3348 -0.3494
 7394TIP3   OH243596   2.785   2.518   1.785 -0.0063  0.0797  0.2471
 7394TIP3    H143597   2.819   2.483   1.703  3.8493 -0.7965  2.0145
 7394TIP3    H243598   2.763   2.440   1.837 -0.5278  0.5694  0.7734
 7395TIP3   OH243599   6.321   4.149   3.607  0.2954  0.2123 -0.2637
 7395TIP3    H143600   6.319   4.091   3.531 -2.7444 -1.7593  1.1318
 7395TIP3    H243601   6.405   4.130   3.650  0.1596 -1.9057 -0.8244
 7396TIP3   OH243602   1.078   3.581  11.006  0.2503 -0.0856  0.5162
 7396TIP3    H143603   1.054   3.536  10.925  1.3099 -0.3533  0.3389
 7396TIP3    H243604   1.000   3.574  11.061 -1.5479  2.5041 -1.4725
 7397TIP3   OH243605   5.945   2.705  15.353  0.6401  0.1286 -0.7165
 7397TIP3    H143606   5.941   2.756  15.272  2.0458 -0.8726 -1.4489
 7397TIP3    H243607   5.953   2.771  15.422  2.1879  0.9268 -1.6150
 7398TIP3   OH243608   0.472   6.784  14.701 -0.1471  0.6663  0.6815
 7398TIP3    H143609   0.448   6.727  14.774  0.1522  1.5531  1.4894
 7398TIP3    H243610   0.505   6.864  14.742  4.1381 -0.3753 -0.2622
 7399TIP3   OH243611   1.938   6.102  15.523  0.1579  0.1018  0.1733
 7399TIP3    H143612   1.924   6.023  15.575 -0.4651  0.4391  0.5275
 7399TIP3    H243613   1.965   6.168  15.586 -0.9049  0.5973  0.1338
 7400TIP3   OH243614   2.208   1.549   1.908 -0.1418  0.1902  0.0647
 7400TIP3    H143615   2.282   1.608   1.923 -0.2481  0.0403  1.3480
 7400TIP3    H243616   2.213   1.486   1.980 -0.9555 -0.3989 -0.3811
 7401TIP3   OH243617   1.486   1.229   4.975  0.7683 -0.1958  1.1956
 7401TIP3    H143618   1.473   1.220   4.881 -0.3740  0.0653  1.3196
 7401TIP3    H243619   1.537   1.310   4.985  0.8310 -0.1866  0.8142
 7402TIP3   OH243620   3.826   0.324  13.417 -0.2959 -0.1555  0.2804
 7402TIP3    H143621   3.800   0.263  13.487  0.4840  1.9152  2.5238
 7402TIP3    H243622   3.916   0.347  13.438  0.6380 -0.8283 -2.5442
 7403TIP3   OH243623   0.431   1.547   0.970 -0.0886 -0.3609 -0.0019
 7403TIP3    H143624   0.415   1.612   0.902 -1.3046 -1.6263 -0.9818
 7403TIP3    H243625   0.347   1.537   1.014  0.2618 -0.7953  0.5824
 7404TIP3   OH243626   6.542   1.787   5.139 -0.5250  0.1600  0.2965
 7404TIP3    H143627   6.553   1.846   5.065 -2.1053  1.1412  0.7967
 7404TIP3    H243628   6.552   1.699   5.101  0.6839  0.6816 -0.6743
 7405TIP3   OH243629   0.666   0.534  10.813 -0.7514  0.4282 -0.0720
 7405TIP3    H143630   0.683   0.462  10.752  0.1590  0.6694 -0.1176
 7405TIP3    H243631   0.621   0.493  10.886  1.0053 -0.4966  0.5670
 7406TIP3   OH243632   0.927   3.093   6.151 -0.0094  0.4289 -0.2420
 7406TIP3    H143633   0.965   3.084   6.238 -0.5721  3.0607  0.3639
 7406TIP3    H243634   1.000   3.079   6.091  0.5017 -0.8425  0.6444
 7407TIP3   OH243635   0.248   1.358   5.911  0.1692 -0.1824  0.0805
 7407TIP3    H143636   0.286   1.425   5.969 -0.3633 -0.5633  0.8962
 7407TIP3    H243637   0.250   1.398   5.824 -1.3539  1.4516  0.7359
 7408TIP3   OH243638   2.407   0.006  15.358 -0.1503  0.1252  0.6260
 7408TIP3    H143639   2.403   0.022  15.263 -0.4278 -1.3998  0.3532
 7408TIP3    H243640   2.344  -0.064  15.373  0.3416 -0.0809  1.8599
 7409TIP3   OH243641   2.262   0.858   3.039  0.3136 -0.0235  0.4328
 7409TIP3    H143642   2.307   0.774   3.031 -0.3627 -0.6048  2.2253
 7409TIP3    H243643   2.219   0.855   3.125  0.5667  2.2947  0.7249
 7410TIP3   OH243644   3.039   6.115  10.998  0.2484 -0.3809 -0.2204
 7410TIP3    H143645   2.948   6.135  10.976  0.2554  1.1572  0.9604
 7410TIP3    H243646   3.045   6.020  10.993 -0.7189 -0.3682 -2.8810
 7411TIP3   OH243647   4.884   0.612   5.078 -0.2920 -0.3490 -0.2713
 7411TIP3    H143648   4.859   0.561   5.001 -1.3033  0.0052 -0.1871
 7411TIP3    H243649   4.844   0.698   5.065  0.1161 -0.0585  0.3165
 7412TIP3   OH243650   4.143   4.751   5.462 -0.6774  0.2941 -0.0508
 7412TIP3    H143651   4.211   4.812   5.435  0.7833 -0.9935  0.6086
 7412TIP3    H243652   4.125   4.773   5.553 -1.0316  0.5100 -0.1683
 7413TIP3   OH243653   2.382   3.526  12.918 -0.0530  0.1358 -0.2318
 7413TIP3    H143654   2.404   3.438  12.951  1.1706  0.0530 -1.1917
 7413TIP3    H243655   2.290   3.520  12.893  0.4494 -1.4417 -1.9457
 7414TIP3   OH243656   1.053   3.643  12.198 -0.1056 -0.0513 -0.3056
 7414TIP3    H143657   0.960   3.647  12.224 -1.0606 -1.6545 -3.0884
 7414TIP3    H243658   1.051   3.629  12.104  3.0303  0.1694 -0.4995
 7415TIP3   OH243659   4.988   4.743  11.925 -0.2016 -0.2000  0.0538
 7415TIP3    H143660   4.923   4.721  11.992  1.8220 -0.8233  1.9425
 7415TIP3    H243661   5.030   4.660  11.904  0.1920  0.2277 -0.8999
 7416TIP3   OH243662   3.618   6.773   2.129  0.5692 -0.6547 -0.9001
 7416TIP3    H143663   3.589   6.773   2.038  0.2757 -0.8153 -0.8091
 7416TIP3    H243664   3.553   6.720   2.175  0.5148 -0.2834 -0.5350
 7417TIP3   OH243665   5.237   0.387   2.573 -0.6615 -0.2067  0.2298
 7417TIP3    H143666   5.288   0.311   2.601  0.0743  0.3866  0.5517
 7417TIP3    H243667   5.274   0.460   2.623 -2.2397  0.1561  0.9159
 7418TIP3   OH243668   1.065   6.633   3.895 -0.2169 -0.4538 -0.6740
 7418TIP3    H143669   1.056   6.538   3.905  2.2009 -0.6312  0.4395
 7418TIP3    H243670   1.059   6.667   3.985 -0.7715  0.4422 -1.0355
 7419TIP3   OH243671   2.295   2.935  15.327 -0.0460 -0.7711 -0.3277
 7419TIP3    H143672   2.334   2.935  15.239  2.5160  0.4018  0.6845
 7419TIP3    H243673   2.365   2.903  15.384 -0.8963  0.4865  1.5198
 7420TIP3   OH243674   5.127   1.159   0.899 -0.3701 -0.6216 -0.7073
 7420TIP3    H143675   5.103   1.142   0.808 -0.0591  0.7972 -1.0811
 7420TIP3    H243676   5.217   1.128   0.906  0.3677  1.1900 -1.5163
 7421TIP3   OH243677   3.603   1.445  15.181 -0.3351 -0.2021 -0.4840
 7421TIP3    H143678   3.667   1.432  15.110 -0.1382 -0.9561 -0.1713
 7421TIP3    H243679   3.518   1.447  15.137 -0.3104 -1.7370 -0.6440
 7422TIP3   OH243680   1.557   5.358  13.551  0.0984  0.1230  0.8785
 7422TIP3    H143681   1.616   5.284  13.561  0.1123  0.1125  0.7223
 7422TIP3    H243682   1.488   5.343  13.616  1.1041  0.9600  2.1944
 7423TIP3   OH243683   6.090   4.605   2.761  0.2205  0.6150 -0.2835
 7423TIP3    H143684   6.060   4.680   2.709 -0.1085  0.4120 -0.3894
 7423TIP3    H243685   6.096   4.639   2.850  2.5295  1.4794 -0.6859
 7424TIP3   OH243686   3.851   3.247  10.746  1.2405 -0.2448  0.5066
 7424TIP3    H143687   3.933   3.227  10.700  0.9228 -1.9108  0.6000
 7424TIP3    H243688   3.810   3.161  10.759  0.7803  0.2898  2.9054
 7425TIP3   OH243689   3.088   2.118  15.039  0.8225 -0.2474  0.2562
 7425TIP3    H143690   3.152   2.145  15.105 -0.1719 -0.9983  1.5794
 7425TIP3    H243691   3.004   2.143  15.077  0.2531 -0.3464 -0.9209
 7426TIP3   OH243692   6.135   6.213  13.671 -0.0118  0.8013 -0.0023
 7426TIP3    H143693   6.203   6.280  13.673 -0.4021  1.1885  0.9708
 7426TIP3    H243694   6.183   6.131  13.668  0.4851  1.1062 -0.4936
 7427TIP3   OH243695   2.317   2.216   5.584 -0.1282  0.0584 -0.0404
 7427TIP3    H143696   2.251   2.147   5.576 -0.3820  0.2861  0.0941
 7427TIP3    H243697   2.363   2.215   5.499  2.7251 -3.1348  1.3091
 7428TIP3   OH243698   1.289   5.996   3.926 -0.0827  0.1715  0.5795
 7428TIP3    H143699   1.252   6.035   4.005  0.4052  0.4696  0.6595
 7428TIP3    H243700   1.327   6.069   3.879  2.6812 -0.4424  1.6981
 7429TIP3   OH243701   1.847   4.235   4.446 -0.2312 -0.3002 -0.9142
 7429TIP3    H143702   1.800   4.197   4.521  1.2785 -0.3591  0.0507
 7429TIP3    H243703   1.879   4.319   4.479  0.4466 -0.3232 -1.5018
 7430TIP3   OH243704   4.820   0.934   5.018 -0.0801 -0.2405  0.4616
 7430TIP3    H143705   4.906   0.970   5.036  0.4278 -1.7757  1.3033
 7430TIP3    H243706   4.828   0.890   4.934  0.8371 -2.7961  1.7763
 7431TIP3   OH243707   0.539   4.564   4.985  0.1267 -0.1269  0.1912
 7431TIP3    H143708   0.621   4.560   5.036 -0.3897  2.7341  1.4024
 7431TIP3    H243709   0.527   4.656   4.966 -2.9501 -0.4429  0.2202
 7432TIP3   OH243710   1.729   3.109   4.796  0.1488  0.2029 -0.3928
 7432TIP3    H143711   1.787   3.138   4.726 -0.3920  1.1577 -0.4632
 7432TIP3    H243712   1.707   3.019   4.772  0.8035  0.1588 -0.8847
 7433TIP3   OH243713   3.759   2.004  11.086 -0.4415  0.0703  0.2348
 7433TIP3    H143714   3.772   2.009  11.181 -0.1013  0.0324  0.1905
 7433TIP3    H243715   3.679   1.952  11.075 -0.5903  0.2376  0.5048
 7434TIP3   OH243716   1.277   2.989  14.504  0.3242 -0.0815  0.4618
 7434TIP3    H143717   1.190   2.967  14.469 -0.1485  1.5645  0.5143
 7434TIP3    H243718   1.290   2.927  14.575 -0.3727 -0.9949 -0.1770
 7435TIP3   OH243719   5.541   1.447  12.758  0.0583  0.1011 -0.5851
 7435TIP3    H143720   5.478   1.466  12.828 -1.0568  1.0206 -1.7707
 7435TIP3    H243721   5.623   1.429  12.803 -1.1478 -1.6245  1.0526
 7436TIP3   OH243722   0.269   1.963  11.173  0.3050  0.6111  0.8458
 7436TIP3    H143723   0.228   1.942  11.089  0.4023  2.3599  0.3342
 7436TIP3    H243724   0.335   1.894  11.185 -0.3448 -0.1845 -0.0532
 7437TIP3   OH243725   0.802   5.551   2.310  0.2958 -0.3657  0.2281
 7437TIP3    H143726   0.725   5.517   2.264  0.1673  0.0714  0.1185
 7437TIP3    H243727   0.838   5.474   2.355 -1.0454 -0.3001  1.4910
 7438TIP3   OH243728   4.351   4.313   1.665  0.7486 -0.2740  0.1019
 7438TIP3    H143729   4.311   4.231   1.637  0.5944 -0.6936  1.4833
 7438TIP3    H243730   4.435   4.316   1.620  0.2800 -0.6447 -0.8125
 7439TIP3   OH243731   6.405   0.457  13.213 -0.3883  0.6319 -0.4397
 7439TIP3    H143732   6.381   0.378  13.261 -2.7779  1.3876 -0.2896
 7439TIP3    H243733   6.433   0.519  13.280 -0.5028  0.5946 -0.3588
 7440TIP3   OH243734   0.136   1.462   6.497  0.4563 -0.0591  1.2057
 7440TIP3    H143735   0.195   1.527   6.534  0.0068 -0.2700  2.3103
 7440TIP3    H243736   0.049   1.485   6.530 -0.2472  0.6405 -0.9109
 7441TIP3   OH243737   5.360   5.348  13.955  0.3443 -0.2842  0.6056
 7441TIP3    H143738   5.450   5.315  13.951  0.2790 -0.3558 -0.4585
 7441TIP3    H243739   5.339   5.372  13.865 -0.3950  0.5755  0.9873
 7442TIP3   OH243740   2.300   3.118  13.137  0.2007 -0.4671 -0.2937
 7442TIP3    H143741   2.314   3.029  13.171 -2.3105 -0.6776  0.3368
 7442TIP3    H243742   2.347   3.175  13.197  2.8005 -1.3513 -1.3212
 7443TIP3   OH243743   2.242   0.087   4.176  0.5180  0.0241 -0.2902
 7443TIP3    H143744   2.156   0.083   4.218  0.5526  1.5796  0.0048
 7443TIP3    H243745   2.304   0.078   4.248  0.6006 -0.5248 -0.4292
 7444TIP3   OH243746   1.294   1.416  15.982 -0.2691 -0.5004 -0.2031
 7444TIP3    H143747   1.285   1.417  15.887 -1.5388 -0.3523 -0.1067
 7444TIP3    H243748   1.256   1.500  16.010  1.7482  0.2937  0.3305
 7445TIP3   OH243749   0.055   2.869  12.213  0.0560  0.2817  0.1113
 7445TIP3    H143750   0.100   2.849  12.295  1.4304  1.4488 -0.3212
 7445TIP3    H243751   0.002   2.791  12.195  0.5350 -0.4082  1.5571
 7446TIP3   OH243752   2.420   1.309   0.636  0.2536 -0.4779 -0.5386
 7446TIP3    H143753   2.406   1.306   0.541 -0.0599 -0.6649 -0.4856
 7446TIP3    H243754   2.336   1.333   0.672  0.3709 -0.4208 -0.3049
 7447TIP3   OH243755   1.509   3.763   0.485  0.0336 -0.0271 -0.1667
 7447TIP3    H143756   1.467   3.760   0.399 -2.2343 -2.3243  0.8850
 7447TIP3    H243757   1.441   3.797   0.544  1.3030  0.8075  0.8877
 7448TIP3   OH243758   4.132   3.576  12.735  0.6383  0.0033  0.2428
 7448TIP3    H143759   4.092   3.627  12.806  0.8432 -0.9870  1.1046
 7448TIP3    H243760   4.215   3.620  12.718  0.2030  0.7524  0.0112
 7449TIP3   OH243761   0.312   5.703  14.815 -0.1020  0.0466  0.0037
 7449TIP3    H143762   0.298   5.654  14.734 -0.2616 -0.7235  0.4776
 7449TIP3    H243763   0.391   5.754  14.799 -0.2896  0.1189 -0.7312
 7450TIP3   OH243764   4.356   3.340   4.784  0.8485 -0.0201 -0.7476
 7450TIP3    H143765   4.403   3.306   4.708  1.6858 -2.7976  0.8307
 7450TIP3    H243766   4.275   3.288   4.788  1.7229 -1.3877  1.2332
 7451TIP3   OH243767   5.637   0.174   2.478 -0.0175 -0.2893 -0.6654
 7451TIP3    H143768   5.563   0.117   2.499 -0.1443 -0.1980 -0.8635
 7451TIP3    H243769   5.713   0.130   2.516 -0.4535  0.7112  1.4658
 7452TIP3   OH243770   2.601   6.581   4.146 -0.6147 -0.5054 -0.0205
 7452TIP3    H143771   2.642   6.668   4.143 -1.2319 -0.2253 -1.2404
 7452TIP3    H243772   2.576   6.569   4.238 -0.8495  0.7844  0.1050
 7453TIP3   OH243773   1.631   6.490  13.404  0.1850 -0.4052  0.1675
 7453TIP3    H143774   1.551   6.438  13.410  0.1924 -0.4801 -0.3359
 7453TIP3    H243775   1.701   6.425  13.403  0.0912 -0.7295 -4.1485
 7454TIP3   OH243776   6.404   2.143   3.454 -0.0798  0.2322 -0.1633
 7454TIP3    H143777   6.323   2.172   3.412  1.3946  2.8724 -1.4696
 7454TIP3    H243778   6.435   2.070   3.400 -0.3126  0.8768 -1.1791
 7455TIP3   OH243779   4.878   5.189   2.915 -0.3852 -0.5989 -0.4524
 7455TIP3    H143780   4.867   5.284   2.912  1.1619 -0.4246 -2.0553
 7455TIP3    H243781   4.895   5.163   2.825  0.4056 -2.2506  0.1212
 7456TIP3   OH243782   5.036   2.022   0.288  0.4295  0.4996 -0.1327
 7456TIP3    H143783   5.052   1.944   0.340  0.8050 -0.3729 -1.5184
 7456TIP3    H243784   5.124   2.055   0.267  0.2779  1.2544  0.3432
 7457TIP3   OH243785   6.631   4.203  11.740 -0.6670  0.4597 -0.2455
 7457TIP3    H143786   6.666   4.247  11.662  0.0988 -0.4917 -0.4590
 7457TIP3    H243787   6.697   4.137  11.762 -1.2719  0.1581  0.7168
 7458TIP3   OH243788   2.751   2.840  16.638  0.3580  0.4513 -0.4840
 7458TIP3    H143789   2.667   2.835  16.594  0.4095 -0.3856 -0.4968
 7458TIP3    H243790   2.795   2.914  16.597 -0.3164  0.8200 -0.5589
 7459TIP3   OH243791   2.355   4.004   2.504 -0.2180 -0.0587 -0.2631
 7459TIP3    H143792   2.395   3.963   2.580 -0.8890 -1.3944 -0.6046
 7459TIP3    H243793   2.331   3.931   2.447  2.0220  0.9419 -2.6914
 7460TIP3   OH243794   2.953   4.950  15.734  0.4058 -0.0551 -0.3069
 7460TIP3    H143795   2.879   4.890  15.746 -0.5787  1.0235 -0.8201
 7460TIP3    H243796   3.007   4.936  15.812  0.6427 -2.1530 -0.7709
 7461TIP3   OH243797   5.080   2.578  14.318 -0.6704 -0.7675 -0.0151
 7461TIP3    H143798   5.063   2.638  14.390 -0.2145 -0.7294  0.0618
 7461TIP3    H243799   5.167   2.543  14.335 -0.7589 -1.1292 -0.2864
 7462TIP3   OH243800   0.493   0.460  15.402  0.7127 -0.5884 -0.3560
 7462TIP3    H143801   0.539   0.545  15.403  2.6680 -1.5842 -1.1449
 7462TIP3    H243802   0.548   0.403  15.456 -0.4894 -1.4224  0.0221
 7463TIP3   OH243803   6.367   5.084  13.523  0.1009 -0.0377  0.2549
 7463TIP3    H143804   6.282   5.049  13.549 -0.5719  0.8643 -0.6277
 7463TIP3    H243805   6.360   5.095  13.428  1.1257  0.2493  0.1973
 7464TIP3   OH243806   1.494   2.948  15.691  0.5334  0.1056  0.1041
 7464TIP3    H143807   1.574   2.935  15.640  1.1970 -1.3613  1.4346
 7464TIP3    H243808   1.424   2.922  15.632  0.9466  1.8697 -1.2555
 7465TIP3   OH243809   4.441   4.516  16.909 -0.2125 -0.1252 -0.9792
 7465TIP3    H143810   4.369   4.579  16.908  0.1899  0.3746 -2.4308
 7465TIP3    H243811   4.491   4.537  16.829  2.8722  1.1044  1.0767
 7466TIP3   OH243812   1.188   6.306   0.446  0.3172  0.4480 -0.6120
 7466TIP3    H143813   1.131   6.248   0.396  1.2643  0.8412 -2.2376
 7466TIP3    H243814   1.130   6.347   0.510 -0.5369 -1.5874 -0.0062
 7467TIP3   OH243815   2.731   4.469   1.963 -0.2191  0.4113 -0.1444
 7467TIP3    H143816   2.768   4.554   1.940  0.2738  0.7917  1.8847
 7467TIP3    H243817   2.794   4.406   1.926 -0.8486  0.8575 -2.0930
 7468TIP3   OH243818   0.900   1.896   3.543 -0.3488 -0.2994  0.0593
 7468TIP3    H143819   0.924   1.809   3.511 -0.3017 -0.5457  0.7432
 7468TIP3    H243820   0.981   1.930   3.582 -0.1066  0.4578 -1.0671
 7469TIP3   OH243821   1.128   0.974   0.028  0.5452  0.0205  0.2065
 7469TIP3    H143822   1.223   0.986   0.032  0.3535  1.2573  2.4289
 7469TIP3    H243823   1.091   1.061   0.042 -0.9328 -0.6030  0.4157
 7470TIP3   OH243824   3.160   2.177  16.456  0.1800 -0.3334  0.0963
 7470TIP3    H143825   3.232   2.136  16.503 -0.5557  0.0604  1.6232
 7470TIP3    H243826   3.084   2.122  16.474 -0.1389 -0.1288 -0.5702
 7471TIP3   OH243827   5.485   1.987   4.835  0.8174 -0.0826  0.3983
 7471TIP3    H143828   5.444   1.993   4.922  0.3102 -0.5510  0.2032
 7471TIP3    H243829   5.494   1.892   4.820  0.4735 -0.0214 -0.2455
 7472TIP3   OH243830   6.758   3.423   0.595  0.1858  0.3389 -0.2407
 7472TIP3    H143831   6.811   3.463   0.526  0.7915  0.6231  0.3772
 7472TIP3    H243832   6.766   3.329   0.580  0.6979  0.3873 -0.2846
 7473TIP3   OH243833   4.353   4.488  12.422 -0.4297  0.0436  0.0811
 7473TIP3    H143834   4.321   4.480  12.512  1.2923  1.5773  0.9102
 7473TIP3    H243835   4.336   4.580  12.399 -0.6032 -0.2641 -1.0818
 7474TIP3   OH243836   0.209   0.561  11.380  0.5105 -0.8354  0.0479
 7474TIP3    H143837   0.156   0.539  11.303  0.6862 -0.0510 -0.3148
 7474TIP3    H243838   0.297   0.574  11.345  0.2749  1.1647  0.0851
 7475TIP3   OH243839   3.206   2.874   2.318  0.7220 -0.1328  0.2452
 7475TIP3    H143840   3.239   2.952   2.272  1.2764 -0.5266 -0.0372
 7475TIP3    H243841   3.205   2.900   2.410  1.3811  0.0459  0.2085
 7476TIP3   OH243842   2.001   4.281  11.840  0.8282 -0.2481  0.2263
 7476TIP3    H143843   2.083   4.273  11.791  1.3541  0.5976  0.9437
 7476TIP3    H243844   2.026   4.266  11.931 -0.0527 -1.3086  0.3055
 7477TIP3   OH243845   1.264   3.590   5.236 -0.0598  0.8127  0.0739
 7477TIP3    H143846   1.283   3.503   5.200 -1.2455  1.5581 -2.5721
 7477TIP3    H243847   1.349   3.632   5.244  0.3833 -0.0231 -0.1378
 7478TIP3   OH243848   2.950   1.322  16.880  0.3932 -0.2173  0.6073
 7478TIP3    H143849   2.981   1.389  16.820  1.7450 -1.0359  0.3638
 7478TIP3    H243850   2.857   1.343  16.893 -0.0929 -0.2991 -2.1490
 7479TIP3   OH243851   0.184   4.683   4.825  0.0558 -0.3850  0.5899
 7479TIP3    H143852   0.131   4.656   4.750  0.7886 -0.6498  0.1516
 7479TIP3    H243853   0.181   4.607   4.883 -0.1175 -0.3642  0.6103
 7480TIP3   OH243854   5.574   4.976  11.915  0.1144 -0.3473 -0.1854
 7480TIP3    H143855   5.496   4.921  11.925 -1.2808  1.3876 -1.0767
 7480TIP3    H243856   5.607   4.956  11.828  0.3591 -0.6829 -0.0187
 7481TIP3   OH243857   4.268   6.473  17.162 -0.0709 -0.1850 -0.3151
 7481TIP3    H143858   4.252   6.436  17.249 -0.6977  0.3524 -0.1959
 7481TIP3    H243859   4.181   6.480  17.122 -0.2631  3.0073  0.4385
 7482TIP3   OH243860   2.765   4.754  15.806 -0.3749  0.1263  0.5113
 7482TIP3    H143861   2.670   4.756  15.819 -0.8653 -0.0685 -2.3193
 7482TIP3    H243862   2.799   4.713  15.885 -2.6766 -0.0909  1.4854
 7483TIP3   OH243863   4.625   4.612   6.046  0.0233 -0.6274  0.0619
 7483TIP3    H143864   4.615   4.534   6.100 -0.0250  0.4463  1.6873
 7483TIP3    H243865   4.537   4.648   6.038  0.2963  0.3577  1.1132
 7484TIP3   OH243866   6.652   6.123  11.954 -0.0515  0.1504 -0.0875
 7484TIP3    H143867   6.557   6.116  11.957 -0.0289  0.1908  0.9610
 7484TIP3    H243868   6.669   6.216  11.939 -0.1819 -0.0669 -1.7300
 7485TIP3   OH243869   3.214   4.200   2.600 -0.0288 -0.3141 -0.6464
 7485TIP3    H143870   3.244   4.112   2.577  1.0143 -0.0428 -0.3396
 7485TIP3    H243871   3.214   4.202   2.695 -1.9654 -0.6126 -0.5912
 7486TIP3   OH243872   6.531   6.716   1.844 -0.1627  0.4224  0.8969
 7486TIP3    H143873   6.508   6.627   1.872 -1.3773  0.0297 -1.1512
 7486TIP3    H243874   6.457   6.770   1.874  0.7578  0.8708  2.4895
 7487TIP3   OH243875   5.670   4.011  15.265 -0.0096 -0.0381  0.2069
 7487TIP3    H143876   5.763   3.993  15.281  0.2845  1.3491  0.1757
 7487TIP3    H243877   5.668   4.049  15.178 -0.7520 -0.9835 -0.2095
 7488TIP3   OH243878   0.117   5.060  15.233 -0.1299 -0.7331 -0.2705
 7488TIP3    H143879   0.111   5.009  15.314  1.8259  1.6678  1.5648
 7488TIP3    H243880   0.205   5.041  15.200  0.5626  1.1680  0.3434
 7489TIP3   OH243881   3.949   6.471  13.614 -0.1245 -0.1787 -0.1590
 7489TIP3    H143882   3.868   6.511  13.584  0.2375  1.3215  0.7612
 7489TIP3    H243883   3.929   6.377  13.619 -2.8536  0.3570  2.9759
 7490TIP3   OH243884   1.490   3.642  14.474 -0.3864 -0.0886  0.5834
 7490TIP3    H143885   1.427   3.630  14.545 -1.3819 -0.8850 -0.4005
 7490TIP3    H243886   1.569   3.673  14.518 -0.2679 -2.5653  2.3472
 7491TIP3   OH243887   6.086   6.104  14.470 -0.1614 -0.1910  0.1402
 7491TIP3    H143888   5.991   6.094  14.463  0.0096 -0.7249 -2.5856
 7491TIP3    H243889   6.098   6.180  14.527 -2.1721 -0.6417  1.2522
 7492TIP3   OH243890   5.036   4.632   1.462  0.0261 -0.3114 -0.4104
 7492TIP3    H143891   5.026   4.726   1.477  0.5760 -0.3949  0.5785
 7492TIP3    H243892   4.946   4.599   1.455 -0.2054  0.1351  0.2991
 7493TIP3   OH243893   4.784   0.775   4.816 -0.2850 -0.4487 -0.4230
 7493TIP3    H143894   4.789   0.680   4.820  0.2538 -0.4185 -0.4222
 7493TIP3    H243895   4.836   0.800   4.740 -0.8403 -0.1848 -0.7278
 7494TIP3   OH243896   2.489   3.449  10.844  0.1858 -0.1141  0.0284
 7494TIP3    H143897   2.408   3.499  10.849  0.0291 -0.3228 -0.3536
 7494TIP3    H243898   2.500   3.431  10.750  1.0904  0.5860 -0.0118
 7495TIP3   OH243899   0.440   1.601   5.326  0.3546  0.2649  0.2656
 7495TIP3    H143900   0.426   1.653   5.247 -1.7650  0.3865  0.6542
 7495TIP3    H243901   0.382   1.641   5.392 -0.5493 -1.8732  0.8811
 7496TIP3   OH243902   0.194   4.727   0.226  0.2919 -0.4198  0.0592
 7496TIP3    H143903   0.198   4.653   0.286  1.1031 -0.8934 -0.5601
 7496TIP3    H243904   0.107   4.763   0.239  0.0814 -1.1447  0.7675
 7497TIP3   OH243905   2.940   2.196  15.803 -0.0903 -0.7628 -0.1911
 7497TIP3    H143906   2.880   2.186  15.729 -1.2381  0.7373  0.4739
 7497TIP3    H243907   2.918   2.282  15.839  1.4289 -0.8533  1.0224
 7498TIP3   OH243908   1.201   5.806  11.499  0.5486 -0.1184 -0.3523
 7498TIP3    H143909   1.211   5.869  11.428  0.4526 -0.6199 -0.8186
 7498TIP3    H243910   1.146   5.737  11.462 -0.9737  0.4343  0.7508
 7499TIP3   OH243911   1.319   2.489  15.680  0.5664 -0.3640 -0.3984
 7499TIP3    H143912   1.332   2.504  15.587  2.8199 -1.8299 -0.4038
 7499TIP3    H243913   1.289   2.398  15.686 -2.5735  0.5771  0.2118
 7500TIP3   OH243914   6.620   4.724   2.726 -0.3755 -0.5541 -0.4036
 7500TIP3    H143915   6.530   4.719   2.694 -0.7302 -0.5464  0.5726
 7500TIP3    H243916   6.625   4.660   2.797  0.4532 -0.7190 -0.5977
 7501TIP3   OH243917   5.360   3.124  16.181 -0.2808 -0.1110  0.2192
 7501TIP3    H143918   5.340   3.118  16.275 -1.2783  1.9768  0.1910
 7501TIP3    H243919   5.296   3.066  16.139  0.4158 -1.3616  0.7985
 7502TIP3   OH243920   1.863   5.048  16.548  0.8375  0.3676  0.6534
 7502TIP3    H143921   1.795   4.982  16.557  0.2695  0.8399 -0.0437
 7502TIP3    H243922   1.847   5.109  16.621  0.5817  0.4147  0.5602
 7503TIP3   OH243923   3.295   3.247  11.115 -0.2895  0.4309  0.0771
 7503TIP3    H143924   3.360   3.177  11.109 -0.1279  0.5821  0.0373
 7503TIP3    H243925   3.251   3.247  11.029  0.0969  0.7462 -0.1261
 7504TIP3   OH243926   4.314   5.897   5.439  0.5750 -1.0140 -0.1781
 7504TIP3    H143927   4.243   5.835   5.423  0.3482 -0.4015 -1.7514
 7504TIP3    H243928   4.271   5.982   5.444  1.2509 -0.4023 -2.8406
 7505TIP3   OH243929   3.612   1.493  13.941 -0.0462 -0.3329  0.3202
 7505TIP3    H143930   3.542   1.516  14.002 -0.2867  0.3745 -0.2161
 7505TIP3    H243931   3.567   1.462  13.863  0.2597 -0.8840  0.3536
 7506TIP3   OH243932   0.797   2.105  15.522 -0.4229 -0.3591 -0.1523
 7506TIP3    H143933   0.702   2.116  15.518 -0.3448  1.2758  1.1064
 7506TIP3    H243934   0.831   2.168  15.460 -0.1509 -1.7081 -1.4117
 7507TIP3   OH243935   1.530   2.184  12.165  0.1193 -0.0757  0.1393
 7507TIP3    H143936   1.582   2.234  12.229  0.4963  2.7347 -2.1677
 7507TIP3    H243937   1.555   2.093  12.181  3.7242  0.8749  1.0029
 7508TIP3   OH243938   1.412   2.425   4.030 -0.8180  0.3824 -0.0896
 7508TIP3    H143939   1.328   2.444   4.070 -0.2345  1.6574  0.5636
 7508TIP3    H243940   1.404   2.334   4.001 -1.3867 -0.5020  2.5922
 7509TIP3   OH243941   0.221   1.599  16.070  0.2336 -0.5659 -0.5771
 7509TIP3    H143942   0.255   1.685  16.043  0.0545 -0.2528  0.1778
 7509TIP3    H243943   0.142   1.587  16.017  0.4728 -0.4427 -0.9665
 7510TIP3   OH243944   4.128   0.061   0.333  0.0331 -0.0814 -0.7668
 7510TIP3    H143945   4.050   0.117   0.329 -0.4354 -0.7646 -1.4680
 7510TIP3    H243946   4.110  -0.010   0.271  0.2305 -1.5254  0.7661
 7511TIP3   OH243947   6.608   2.572   2.075 -0.2479 -0.9009 -0.0981
 7511TIP3    H143948   6.635   2.645   2.130 -1.5631  0.8792 -1.7153
 7511TIP3    H243949   6.684   2.556   2.018  0.5992 -1.8586  1.2199
 7512TIP3   OH243950   0.572   6.714  11.504  0.6983 -0.4295 -0.2304
 7512TIP3    H143951   0.570   6.673  11.418 -0.4944  2.8307 -1.9135
 7512TIP3    H243952   0.658   6.756  11.508 -0.4012  2.1012 -1.3212
 7513TIP3   OH243953   3.822   1.444   4.111 -0.2498 -0.1521  0.4900
 7513TIP3    H143954   3.836   1.378   4.178 -1.0812 -0.5498  0.2744
 7513TIP3    H243955   3.769   1.401   4.044 -0.7523  0.7065  0.3190
 7514TIP3   OH243956   1.312   1.895  15.924 -0.4362  0.2784  0.2457
 7514TIP3    H143957   1.393   1.857  15.958 -1.4081 -1.7452  0.4607
 7514TIP3    H243958   1.295   1.970  15.981  0.3835 -0.2985  1.2889
 7515TIP3   OH243959   4.743   3.217  11.864 -0.2415  0.2099  0.1043
 7515TIP3    H143960   4.837   3.209  11.845  0.0127  0.3990  1.2101
 7515TIP3    H243961   4.737   3.291  11.924 -1.0836  0.0673  0.2070
 7516TIP3   OH243962   3.977   1.921   4.996 -1.1106  0.4603 -0.1724
 7516TIP3    H143963   3.945   1.883   4.914  0.0783  0.3265 -0.5963
 7516TIP3    H243964   3.959   1.854   5.062 -1.9567  0.5137 -0.3358
 7517TIP3   OH243965   1.756   5.718  16.773 -0.3419  0.7605  0.2578
 7517TIP3    H143966   1.764   5.681  16.685 -1.5324  0.3853  0.2894
 7517TIP3    H243967   1.788   5.808  16.764  0.4255  0.4417 -0.3312
 7518TIP3   OH243968   5.439   3.718   4.567  0.5481 -0.2892 -0.0881
 7518TIP3    H143969   5.533   3.703   4.578  0.7151  0.4138 -0.4827
 7518TIP3    H243970   5.398   3.636   4.594  1.1596 -0.0474  1.7403
 7519TIP3   OH243971   1.651   4.360   2.253  0.5105 -0.3595 -0.1734
 7519TIP3    H143972   1.565   4.389   2.224  0.1977 -0.2753  0.8034
 7519TIP3    H243973   1.647   4.264   2.248 -0.0251 -0.4084  0.8769
 7520TIP3   OH243974   3.174   3.422   2.004 -0.1390  0.0145  0.1427
 7520TIP3    H143975   3.160   3.334   2.039  0.2808  0.2254  0.8655
 7520TIP3    H243976   3.173   3.479   2.081 -0.6070  0.6717 -0.3370
 7521TIP3   OH243977   0.974   3.531   0.830  0.1564  0.6353 -0.3886
 7521TIP3    H143978   0.881   3.531   0.809  0.3398 -0.6607 -1.4006
 7521TIP3    H243979   1.004   3.619   0.807 -0.6715  0.8222 -0.8063
 7522TIP3   OH243980   0.798   6.474  14.465 -0.0980  0.1906 -0.7057
 7522TIP3    H143981   0.861   6.420  14.514  0.7502  1.7092 -0.0462
 7522TIP3    H243982   0.819   6.457  14.373  0.3617 -0.3633 -0.5107
 7523TIP3   OH243983   5.065   4.220   2.440  0.2415  0.5728 -0.1152
 7523TIP3    H143984   5.137   4.204   2.502  0.8658 -0.1629 -0.9967
 7523TIP3    H243985   5.067   4.144   2.381  0.0239  1.5051 -1.3691
 7524TIP3   OH243986   6.342   1.453   0.280 -0.4822 -0.0795 -0.3348
 7524TIP3    H143987   6.251   1.431   0.296 -1.0046  1.0140 -1.5755
 7524TIP3    H243988   6.371   1.497   0.360 -1.1712 -0.0755 -0.0862
 7525TIP3   OH243989   4.696   4.234   4.281 -0.0175  0.2949 -0.3143
 7525TIP3    H143990   4.670   4.164   4.222  2.4785 -0.4203 -0.6791
 7525TIP3    H243991   4.739   4.299   4.225  0.9939  0.3421  0.4816
 7526TIP3   OH243992   3.114   1.349  11.047 -0.5678  0.1970 -0.2376
 7526TIP3    H143993   3.058   1.423  11.025 -1.0100  0.1046  0.5485
 7526TIP3    H243994   3.126   1.303  10.964 -0.4572  1.0240 -0.6941
 7527TIP3   OH243995   4.220   2.452   4.078 -0.1099 -0.1099 -0.5390
 7527TIP3    H143996   4.305   2.494   4.063 -0.0386  0.4365  1.2555
 7527TIP3    H243997   4.241   2.368   4.118 -0.4074  0.0702  0.0063
 7528TIP3   OH243998   3.014   0.264   5.570 -0.2240  0.1033  0.1031
 7528TIP3    H143999   3.021   0.184   5.518 -0.4453  0.6273 -0.7700
 7528TIP3    H244000   2.980   0.329   5.508  0.3281  0.9671  0.6783
 7529TIP3   OH244001   3.354   1.427  14.327  0.0383  0.7071 -0.0731
 7529TIP3    H144002   3.343   1.502  14.268  2.2985  1.4773  0.3878
 7529TIP3    H244003   3.416   1.370  14.282 -1.5369 -0.9101 -0.3518
 7530TIP3   OH244004   3.073   6.147  14.760 -0.5948 -0.2059 -0.6564
 7530TIP3    H144005   3.114   6.164  14.675  2.4237 -1.3107  0.4296
 7530TIP3    H244006   3.035   6.230  14.786  1.3847  1.0632 -1.6172
 7531TIP3   OH244007   5.049   6.472  16.935  0.1190 -0.3439 -0.3759
 7531TIP3    H144008   4.969   6.425  16.912 -0.4381  0.2323  0.3466
 7531TIP3    H244009   5.073   6.437  17.022 -0.7441  1.2327  0.5371
 7532TIP3   OH244010   1.620   5.947   4.796 -0.4438  0.0209  0.0789
 7532TIP3    H144011   1.677   5.937   4.719 -1.2698  0.2134 -0.5754
 7532TIP3    H244012   1.563   5.870   4.793 -1.0936  0.4948 -0.0436
 7533TIP3   OH244013   0.856   2.795   0.425  0.2862 -0.0326  0.3743
 7533TIP3    H144014   0.816   2.877   0.397 -0.3329 -0.2916  0.4983
 7533TIP3    H244015   0.918   2.773   0.355 -2.2790 -1.4582 -1.5900
 7534TIP3   OH244016   3.805   0.729  12.529  0.0328 -0.3452  0.1067
 7534TIP3    H144017   3.812   0.781  12.449 -1.1694 -0.1342  0.1237
 7534TIP3    H244018   3.772   0.790  12.595 -1.5346 -1.1393  0.0938
 7535TIP3   OH244019   2.842   6.012   0.893 -0.2250 -0.5981 -0.8022
 7535TIP3    H144020   2.825   5.961   0.972  0.6200 -1.3419 -1.0809
 7535TIP3    H244021   2.937   6.015   0.886 -0.2514 -1.8046 -2.5336
 7536TIP3   OH244022   0.804   6.649   1.434 -0.5806  0.4244 -0.4201
 7536TIP3    H144023   0.812   6.698   1.516  3.2539 -0.4549 -0.0648
 7536TIP3    H244024   0.774   6.562   1.462 -1.4958  0.7851 -0.2643
 7537TIP3   OH244025   0.665   4.049   3.964  0.1808  0.1548  0.0522
 7537TIP3    H144026   0.592   3.993   3.937  1.5459 -1.1778 -1.0735
 7537TIP3    H244027   0.722   3.992   4.014  1.1698  0.7752 -0.3400
 7538TIP3   OH244028   5.659   5.035   5.666  0.0216  0.4741 -0.2608
 7538TIP3    H144029   5.688   4.945   5.678  0.4837  0.5011 -1.1575
 7538TIP3    H244030   5.607   5.054   5.745 -2.8595 -1.6653 -1.4795
 7539TIP3   OH244031   1.315   6.104  13.820 -0.4874  0.4596 -0.5883
 7539TIP3    H144032   1.371   6.173  13.855  0.5350 -0.4174 -0.4608
 7539TIP3    H244033   1.322   6.113  13.725 -1.7742  1.6381 -0.6085
 7540TIP3   OH244034   3.385   4.780  12.001 -0.0142 -0.1422  0.0128
 7540TIP3    H144035   3.294   4.806  11.986  0.4639  2.1911  0.7005
 7540TIP3    H244036   3.433   4.819  11.928  0.7141  0.8455  0.9734
 7541TIP3   OH244037   1.407   0.253   5.771  0.0672  0.7954 -0.6235
 7541TIP3    H144038   1.319   0.277   5.741 -0.4021  0.0474  0.1139
 7541TIP3    H244039   1.413   0.291   5.859 -0.2722 -0.7831  0.1163
 7542TIP3   OH244040   2.262   6.646   5.701 -0.3353  0.4017 -0.3129
 7542TIP3    H144041   2.282   6.721   5.758  0.5625  0.2748 -0.4505
 7542TIP3    H244042   2.308   6.665   5.619 -0.5252 -0.0538 -0.5272
 7543TIP3   OH244043   2.913   3.814   2.948 -0.3606 -0.0223 -0.2658
 7543TIP3    H144044   2.842   3.750   2.949 -0.2566 -0.1513 -0.7548
 7543TIP3    H244045   2.905   3.861   3.031 -0.3798 -0.7306  0.1333
 7544TIP3   OH244046   2.713   5.342  16.916  0.2350 -0.0326 -0.1338
 7544TIP3    H144047   2.791   5.322  16.968 -0.5660  0.2384  1.2157
 7544TIP3    H244048   2.688   5.430  16.943 -2.2297 -1.1924  1.7172
 7545TIP3   OH244049   0.184   3.587   3.327  1.0069 -0.3111 -0.0471
 7545TIP3    H144050   0.189   3.492   3.341 -0.1754 -0.4547 -0.4695
 7545TIP3    H244051   0.141   3.597   3.242 -0.3556  0.5918  0.6917
 7546TIP3   OH244052   0.095   0.176   1.547 -0.5070  0.3909 -0.4014
 7546TIP3    H144053   0.066   0.264   1.520 -1.9244  0.6009  1.5685
 7546TIP3    H244054   0.053   0.117   1.485  0.3975  1.0703 -1.7054
 7547TIP3   OH244055   4.337   5.291   0.987  0.1101 -0.0992 -0.2848
 7547TIP3    H144056   4.277   5.349   1.033 -1.7217 -2.3056  0.3324
 7547TIP3    H244057   4.310   5.296   0.895  0.3514  0.4270 -0.3318
 7548TIP3   OH244058   2.540   2.581  14.177  0.0288  0.0436 -0.0621
 7548TIP3    H144059   2.480   2.651  14.151  1.0597  0.4837 -1.3895
 7548TIP3    H244060   2.625   2.608  14.143  0.8137 -1.0083  0.9656
 7549TIP3   OH244061   0.553   4.778  14.482 -0.2426 -0.0871 -0.4630
 7549TIP3    H144062   0.617   4.815  14.422 -0.0277  0.9638  0.3680
 7549TIP3    H244063   0.586   4.803  14.569 -0.1195 -2.2246  0.1589
 7550TIP3   OH244064   5.359   1.644   4.537  0.1231  0.1748  0.1381
 7550TIP3    H144065   5.281   1.588   4.529 -0.7148  1.0810  1.5107
 7550TIP3    H244066   5.389   1.630   4.627  1.4938 -0.0594 -0.3377
 7551TIP3   OH244067   5.285   0.576  13.774  0.2748  0.0247 -0.3625
 7551TIP3    H144068   5.205   0.523  13.785 -0.8654  1.9422  1.1624
 7551TIP3    H244069   5.276   0.614  13.687  0.2889 -0.9258 -0.7977
 7552TIP3   OH244070   4.042   3.506   2.808 -0.6580  0.4564  0.0484
 7552TIP3    H144071   4.057   3.504   2.713 -1.4367 -0.3981 -0.0714
 7552TIP3    H244072   4.129   3.499   2.847 -0.4161 -0.3419 -0.6050
 7553TIP3   OH244073   6.775   5.009   6.775 -0.0487  0.7678  0.2690
 7553TIP3    H144074   6.755   4.953   6.850 -0.5417 -0.6209 -0.8466
 7553TIP3    H244075   6.870   5.013   6.773  0.2420 -2.7661 -1.4214
 7554TIP3   OH244076   4.385   4.909   2.029 -0.0757 -0.2179  0.0206
 7554TIP3    H144077   4.319   4.869   1.973 -1.5834  0.5271  1.2105
 7554TIP3    H244078   4.350   4.900   2.118  1.5385 -0.0128  0.7214
 7555TIP3   OH244079   2.170   3.836  16.880  0.1465  0.6740 -0.0213
 7555TIP3    H144080   2.133   3.750  16.901 -2.8970  1.7098 -0.6145
 7555TIP3    H244081   2.151   3.889  16.957  0.8562  1.1645 -0.1761
 7556TIP3   OH244082   4.682   6.368  16.466 -0.3959 -0.0472 -0.3369
 7556TIP3    H144083   4.721   6.444  16.508  1.3973 -0.6055 -0.8800
 7556TIP3    H244084   4.701   6.379  16.373 -1.1002 -0.6115 -0.5616
 7557TIP3   OH244085   6.612   0.120  16.251 -0.2014  0.6771  0.1850
 7557TIP3    H144086   6.527   0.087  16.281  0.3825 -2.2384 -0.9865
 7557TIP3    H244087   6.617   0.093  16.160  1.7609  1.2458  0.0818
 7558TIP3   OH244088   2.869   4.008   2.751  0.7802 -0.7321  0.3653
 7558TIP3    H144089   2.886   4.068   2.824 -1.8502 -0.6564  1.0056
 7558TIP3    H244090   2.830   3.931   2.792 -0.0882 -0.9868 -0.8979
 7559TIP3   OH244091   0.599   3.009  16.170  0.0011  0.4510 -0.0370
 7559TIP3    H144092   0.688   3.038  16.150  0.9106  0.4699  3.4265
 7559TIP3    H244093   0.594   2.921  16.134  0.0589  1.6429 -3.3829
 7560TIP3   OH244094   1.831   3.769   2.339 -0.0861 -0.2547 -0.1746
 7560TIP3    H144095   1.822   3.792   2.432 -2.2599 -1.5092 -0.0141
 7560TIP3    H244096   1.863   3.849   2.298  0.7611  0.3903  1.5992
 7561TIP3   OH244097   3.853   2.889   2.595 -0.2356 -0.0461 -0.0659
 7561TIP3    H144098   3.799   2.966   2.609  1.4387  0.9708  1.1182
 7561TIP3    H244099   3.877   2.892   2.502 -0.3285  0.7403 -0.0659
 7562TIP3   OH244100   2.470   3.930  16.017  0.1621  0.0710 -0.1851
 7562TIP3    H144101   2.541   3.891  16.068  1.4418  1.9118 -0.4334
 7562TIP3    H244102   2.423   3.856  15.979  0.5470 -1.2628  1.8196
 7563TIP3   OH244103   5.290   1.324   5.268 -0.4610  0.4158  0.0162
 7563TIP3    H144104   5.212   1.363   5.228 -0.6703 -0.5946 -0.5759
 7563TIP3    H244105   5.354   1.396   5.269 -1.1160  1.0134 -0.2693
 7564TIP3   OH244106   6.233   2.609   4.049 -0.1264 -0.0653 -0.0518
 7564TIP3    H144107   6.200   2.537   4.102  0.4081  0.4932  1.0581
 7564TIP3    H244108   6.218   2.687   4.101 -0.8869  0.6798 -1.3318
 7565TIP3   OH244109   2.864   2.206   5.034  0.0773  0.2131 -0.6326
 7565TIP3    H144110   2.829   2.129   4.988 -1.7278  1.7450 -1.9752
 7565TIP3    H244111   2.936   2.171   5.087 -0.7083 -2.4039 -1.1241
 7566TIP3   OH244112   1.532   1.759  15.683 -0.0929  0.5542 -0.5579
 7566TIP3    H144113   1.525   1.701  15.758 -1.3918  0.3835 -0.7785
 7566TIP3    H244114   1.546   1.846  15.720  1.3727  0.1838 -0.2079
 7567TIP3   OH244115   4.131   0.793   5.693  0.1702  0.5526  0.0347
 7567TIP3    H144116   4.226   0.793   5.684  0.3407  0.2007  1.5437
 7567TIP3    H244117   4.114   0.848   5.769 -0.7237 -0.4484  0.5879
 7568TIP3   OH244118   6.280   1.054  10.713 -0.1931  0.0614 -0.2422
 7568TIP3    H144119   6.239   1.132  10.751  0.2714  0.9609 -1.5049
 7568TIP3    H244120   6.370   1.055  10.746 -0.0421  0.3602 -0.6458
 7569TIP3   OH244121   3.076   2.073  14.387  0.4702 -0.4526  0.3595
 7569TIP3    H144122   3.134   2.063  14.462  0.3124 -1.4477  0.3636
 7569TIP3    H244123   3.130   2.115  14.320  0.8112 -0.1870  0.7968
 7570TIP3   OH244124   5.051   4.720  16.149  0.3932  0.3436  0.6354
 7570TIP3    H144125   5.081   4.732  16.059 -2.3089 -0.2385 -0.4430
 7570TIP3    H244126   4.997   4.797  16.167  0.1407 -0.0118  1.4311
 7571TIP3   OH244127   2.190   2.506  15.865 -0.1323 -0.1857  0.1661
 7571TIP3    H144128   2.265   2.473  15.913 -0.8690 -0.2061  1.3290
 7571TIP3    H244129   2.222   2.588  15.825  0.8688 -0.8505 -0.4412
 7572TIP3   OH244130   0.703   2.033  13.957  0.3171  0.3344 -0.1101
 7572TIP3    H144131   0.679   2.080  14.037 -2.0465  0.1856 -0.6591
 7572TIP3    H244132   0.798   2.044  13.950  0.3935  1.4629  1.9953
 7573TIP3   OH244133   0.115   2.156   0.576 -0.1659 -0.5921 -0.1577
 7573TIP3    H144134   0.065   2.238   0.567  1.0627  0.2336  0.3550
 7573TIP3    H244135   0.167   2.151   0.496 -0.3860 -0.9873 -0.2795
 7574TIP3   OH244136   6.369   5.724  15.743  0.0962 -0.3459  0.3601
 7574TIP3    H144137   6.287   5.675  15.747 -0.1496  0.0899  0.8959
 7574TIP3    H244138   6.348   5.810  15.782  0.0045  0.9452 -2.3363
 7575TIP3   OH244139   0.613   3.307   4.065 -0.2944 -0.0798  0.5836
 7575TIP3    H144140   0.582   3.334   4.151  2.0350 -1.8680  2.1146
 7575TIP3    H244141   0.564   3.227   4.045 -0.7106  0.2404  0.2942
 7576TIP3   OH244142   3.214   4.373   1.336  0.1832 -0.2628  0.5358
 7576TIP3    H144143   3.286   4.413   1.385  0.8031  0.0435 -0.5799
 7576TIP3    H244144   3.244   4.375   1.245 -1.7597  1.0542 -0.1358
 7577TIP3   OH244145   0.213   6.774   2.411 -0.0436 -0.8066 -0.4383
 7577TIP3    H144146   0.184   6.705   2.350  0.1105 -1.6674  0.4468
 7577TIP3    H244147   0.176   6.749   2.495  2.3986 -1.4104  0.5425
 7578TIP3   OH244148   1.323   0.518   2.476 -0.0167  0.0541 -0.4818
 7578TIP3    H144149   1.314   0.577   2.401  0.4540 -2.6758 -2.8757
 7578TIP3    H244150   1.416   0.526   2.500 -0.2211  1.1183  0.0356
 7579TIP3   OH244151   3.143   2.169   0.603  0.2080  0.2031 -0.0187
 7579TIP3    H144152   3.116   2.237   0.540 -2.6955 -1.2274 -0.4827
 7579TIP3    H244153   3.172   2.096   0.548  0.0818 -0.1305  0.3552
 7580TIP3   OH244154   2.102   2.548  12.624 -0.1638 -0.8607 -0.7510
 7580TIP3    H144155   2.125   2.478  12.685  1.7073 -0.0419 -0.4713
 7580TIP3    H244156   2.069   2.618  12.680 -0.7930 -1.0182 -0.9176
 7581TIP3   OH244157   2.544   2.712  14.857  0.2990 -0.0947  0.1111
 7581TIP3    H144158   2.457   2.744  14.882 -0.7102 -0.0508 -2.9637
 7581TIP3    H244159   2.605   2.767  14.905 -1.3788  0.7120  1.4144
 7582TIP3   OH244160   5.694   5.435   6.090  0.6107 -0.3814 -0.5812
 7582TIP3    H144161   5.687   5.443   5.995 -0.2983  0.1554 -0.4770
 7582TIP3    H244162   5.733   5.518   6.118  1.1346 -0.6472 -0.4993
 7583TIP3   OH244163   1.551   4.749  13.642 -0.2239 -0.3444  0.5565
 7583TIP3    H144164   1.490   4.675  13.637  1.1872 -1.5785  0.9820
 7583TIP3    H244165   1.529   4.804  13.567 -2.5299 -0.1963  1.2525
 7584TIP3   OH244166   4.645   3.123   3.754  0.0812 -0.1300  0.0719
 7584TIP3    H144167   4.603   3.176   3.822  1.2969  0.4389  0.4034
 7584TIP3    H244168   4.580   3.118   3.684 -0.7484  0.2521  0.7966
 7585TIP3   OH244169   2.005   0.714  16.314 -0.1296  0.2246  0.3065
 7585TIP3    H144170   1.913   0.723  16.292  0.1629  0.8022 -0.7512
 7585TIP3    H244171   2.025   0.621  16.300 -0.6576 -0.0153  1.0575
 7586TIP3   OH244172   3.437   4.913   3.928  0.5988  0.1655 -0.1293
 7586TIP3    H144173   3.481   4.949   4.005  0.4530 -0.6268  0.3340
 7586TIP3    H244174   3.428   4.988   3.868  0.7083  0.7861  0.6184
 7587TIP3   OH244175   1.066   5.696  13.081 -0.3534  0.6686  0.2306
 7587TIP3    H144176   1.026   5.783  13.086 -1.8636  0.0258 -0.0258
 7587TIP3    H244177   0.996   5.637  13.109  0.3914 -0.5322 -0.3912
 7588TIP3   OH244178   5.206   6.374  14.955  0.4416  0.0933  0.1635
 7588TIP3    H144179   5.190   6.401  14.865 -1.8713  0.0125  0.4935
 7588TIP3    H244180   5.267   6.301  14.948 -0.5457 -0.6303 -1.4536
 7589TIP3   OH244181   3.218   4.974   2.054 -0.1340  1.2380  0.5610
 7589TIP3    H144182   3.236   4.886   2.020 -0.7714  1.9290 -1.7900
 7589TIP3    H244183   3.138   4.964   2.106 -0.4639  0.4997 -0.0676
 7590TIP3   OH244184   5.130   5.071  16.977 -0.2861 -0.1935 -0.0089
 7590TIP3    H144185   5.084   5.107  16.901  1.6280 -3.3972 -3.0140
 7590TIP3    H244186   5.062   5.028  17.028 -1.5700  1.6689 -0.0351
 7591TIP3   OH244187   5.091   0.813   1.748  0.0509  0.0376 -0.2341
 7591TIP3    H144188   5.101   0.733   1.696  1.2637  0.7214 -1.1025
 7591TIP3    H244189   5.045   0.873   1.689  2.0958  1.0698 -0.8555
 7592TIP3   OH244190   5.563   2.671  14.439 -0.5640  0.6804  0.5896
 7592TIP3    H144191   5.648   2.636  14.466 -1.2324 -0.5409  1.2419
 7592TIP3    H244192   5.570   2.765  14.452  0.9087  0.6751 -0.0279
 7593TIP3   OH244193   5.457   5.329  15.674 -0.6173  0.5831 -0.2490
 7593TIP3    H144194   5.502   5.255  15.715  0.2116  2.4894  2.5215
 7593TIP3    H244195   5.372   5.331  15.718  0.3272  2.7327  1.6567
 7594TIP3   OH244196   4.038   5.286   2.528  0.0356 -0.7470  0.7305
 7594TIP3    H144197   4.014   5.195   2.513  0.1934 -0.7351  0.3866
 7594TIP3    H244198   4.012   5.304   2.618  1.4386 -1.6131  1.3488
 7595TIP3   OH244199   6.201   1.838   3.379 -0.0676  0.1253 -0.1921
 7595TIP3    H144200   6.286   1.804   3.406 -0.2521  0.9531  1.5590
 7595TIP3    H244201   6.173   1.893   3.452 -1.6698  0.6499 -1.1546
 7596TIP3   OH244202   3.394   1.490  14.981 -0.3130  0.5743 -0.2708
 7596TIP3    H144203   3.375   1.537  14.900  0.9126 -0.0581 -0.9542
 7596TIP3    H244204   3.363   1.401  14.965  2.6728 -0.3921 -1.2839
 7597TIP3   OH244205   2.681   1.425  11.015 -0.7926  0.4194  0.3162
 7597TIP3    H144206   2.736   1.501  11.035 -1.2668  0.9637 -0.4159
 7597TIP3    H244207   2.615   1.458  10.955  0.3018 -1.0561 -1.8296
 7598TIP3   OH244208   4.836   4.463  11.578  0.4887  0.1955  0.3423
 7598TIP3    H144209   4.755   4.434  11.619  0.4019 -0.0239  0.0191
 7598TIP3    H244210   4.902   4.453  11.646 -0.1713  2.8453  1.4917
 7599TIP3   OH244211   2.732   0.103  14.116  0.6074  0.1452 -0.3272
 7599TIP3    H144212   2.681   0.042  14.062  0.2718  2.1291 -2.3863
 7599TIP3    H244213   2.668   0.139  14.179  0.0825  0.6014 -1.1059
 7600TIP3   OH244214   6.252   3.164  15.277 -0.4327  0.0491  0.0732
 7600TIP3    H144215   6.283   3.227  15.343  0.1055  0.2920 -0.4056
 7600TIP3    H244216   6.159   3.185  15.267 -0.2719  0.7497 -0.0488
 7601TIP3   OH244217   0.293   3.273   6.242  0.1717  0.1731 -0.4964
 7601TIP3    H144218   0.216   3.216   6.242  0.3430 -0.0667 -0.0861
 7601TIP3    H244219   0.311   3.289   6.335  0.1402  0.8784 -0.6046
 7602TIP3   OH244220   4.688   1.044  12.662  0.1912 -0.4199  0.4524
 7602TIP3    H144221   4.745   1.059  12.586  1.2787  0.6288  1.4464
 7602TIP3    H244222   4.599   1.047  12.626  0.6342  1.1529 -0.6245
 7603TIP3   OH244223   0.931   1.872  10.646 -0.0897 -0.2038 -0.3392
 7603TIP3    H144224   0.998   1.931  10.679  0.3470 -0.3170 -1.0071
 7603TIP3    H244225   0.938   1.794  10.701 -0.4702  0.2378  0.3523
 7604TIP3   OH244226   3.791   6.518  13.319 -0.0586 -0.1871  0.2575
 7604TIP3    H144227   3.746   6.536  13.236 -0.0164 -0.0588  0.2609
 7604TIP3    H244228   3.862   6.458  13.295  0.3798  0.3801  0.0723
 7605TIP3   OH244229   4.243   1.162  14.164 -0.1284 -0.1219 -0.0568
 7605TIP3    H144230   4.227   1.183  14.255  1.6321 -1.9132  0.7636
 7605TIP3    H244231   4.301   1.231  14.132 -0.5882  0.3968  0.2305
 7606TIP3   OH244232   5.684   5.766  12.009 -0.1081  0.1074 -0.7844
 7606TIP3    H144233   5.599   5.778  11.966 -0.4527  1.8629  0.2973
 7606TIP3    H244234   5.730   5.849  11.995  1.2449 -0.6329 -0.9115
 7607TIP3   OH244235   3.187   1.917   1.666 -0.2246 -0.4819  0.4806
 7607TIP3    H144236   3.190   2.006   1.631  0.9751 -0.6317  0.1565
 7607TIP3    H244237   3.163   1.862   1.591  2.1048 -0.7735 -0.1271
 7608TIP3   OH244238   4.806   3.076  13.106  0.1249 -0.3880  0.1057
 7608TIP3    H144239   4.867   3.090  13.034  0.3644  3.9287  0.8605
 7608TIP3    H244240   4.861   3.055  13.181  0.1111 -2.0717 -0.3230
 7609TIP3   OH244241   6.245   3.642  14.898  0.1161  0.0913 -0.2848
 7609TIP3    H144242   6.283   3.630  14.811 -0.2165  0.2869 -0.4559
 7609TIP3    H244243   6.151   3.651  14.883 -0.3393 -2.7198  0.3087
 7610TIP3   OH244244   2.452   1.528   3.565 -0.3049  0.7729  0.3856
 7610TIP3    H144245   2.538   1.490   3.580 -0.9454 -0.3133  1.5420
 7610TIP3    H244246   2.406   1.462   3.513 -0.5843  1.1497  0.1492
 7611TIP3   OH244247   2.044   4.106  15.253  0.2916  0.0150 -0.3711
 7611TIP3    H144248   2.045   4.183  15.310 -0.3076 -0.0525 -0.2664
 7611TIP3    H244249   1.972   4.053  15.285 -0.4438  0.2525 -1.5685
 7612TIP3   OH244250   6.452   5.037   5.429 -0.1462  0.3503  0.1018
 7612TIP3    H144251   6.484   4.982   5.358 -0.8616 -0.3936  0.3393
 7612TIP3    H244252   6.532   5.069   5.472  0.3215 -1.3262  0.5867
 7613TIP3   OH244253   5.339   5.033  15.748  0.4468  0.2289 -0.4644
 7613TIP3    H144254   5.306   5.114  15.786 -0.3158  0.1360 -0.9006
 7613TIP3    H244255   5.385   4.990  15.820  0.8927  1.0558 -0.2366
 7614TIP3   OH244256   5.609   6.300  16.811 -0.8287  0.3418 -0.1348
 7614TIP3    H144257   5.689   6.303  16.759  0.6171  1.4750  2.0223
 7614TIP3    H244258   5.546   6.256  16.754  1.3269 -0.7267 -1.8823
 7615TIP3   OH244259   6.168   0.347  11.114 -0.6127  0.9885  0.1061
 7615TIP3    H144260   6.147   0.385  11.199 -0.0891  1.2367  0.1291
 7615TIP3    H244261   6.085   0.314  11.080 -1.1355  2.4367 -0.0634
 7616TIP3   OH244262   6.310   1.505  13.584  0.1342  0.8521 -0.3171
 7616TIP3    H144263   6.351   1.424  13.554 -2.2120 -0.5055 -0.1720
 7616TIP3    H244264   6.266   1.480  13.666  1.3541  2.9374  1.0647
 7617TIP3   OH244265   6.330   1.715   1.292  0.2335 -0.5259 -0.5451
 7617TIP3    H144266   6.252   1.689   1.342 -0.4099  0.5284 -0.9706
 7617TIP3    H244267   6.372   1.632   1.270  0.1566 -1.0619  1.1149
 7618TIP3   OH244268   5.667   4.621  14.135  0.3991 -0.6873  0.4979
 7618TIP3    H144269   5.625   4.707  14.127 -3.9237 -2.4555  1.1118
 7618TIP3    H244270   5.754   4.633  14.098  0.3368  4.0921  1.2775
 7619TIP3   OH244271   0.276   5.158   6.591 -0.1755  0.6225  0.5342
 7619TIP3    H144272   0.324   5.240   6.607  0.6743  0.4949 -1.0942
 7619TIP3    H244273   0.328   5.091   6.635 -1.1672  0.9733  2.3467
 7620TIP3   OH244274   1.976   3.536   6.188  0.3284  0.1229  0.0088
 7620TIP3    H144275   1.986   3.621   6.144  0.9764  0.1535  0.1978
 7620TIP3    H244276   1.948   3.476   6.119  0.5585  0.3422 -0.2774
 7621TIP3   OH244277   5.822   4.007  13.252 -0.0534  0.7360 -0.0607
 7621TIP3    H144278   5.814   3.996  13.347  2.7614  0.8554  0.2684
 7621TIP3    H244279   5.811   4.100  13.237 -0.2605  0.7502  0.1893
 7622TIP3   OH244280   0.130   3.186  14.124  0.0989 -0.2567 -0.7741
 7622TIP3    H144281   0.116   3.252  14.191 -0.0435 -1.1937  0.1479
 7622TIP3    H244282   0.203   3.133  14.157 -1.0610 -1.7625 -0.5090
 7623TIP3   OH244283   2.750   2.894   1.694  0.4518 -0.1653 -0.0748
 7623TIP3    H144284   2.675   2.855   1.739 -0.9170  0.2638 -1.8666
 7623TIP3    H244285   2.741   2.988   1.709  0.3909 -0.0812 -0.6082
 7624TIP3   OH244286   2.168   3.697   3.176 -0.1731 -0.0760 -0.1204
 7624TIP3    H144287   2.108   3.753   3.224 -1.7336 -0.2732 -1.7223
 7624TIP3    H244288   2.165   3.613   3.222 -0.1039  0.2908  0.5636
 7625TIP3   OH244289   3.451   0.722  10.889 -0.0845  0.0791 -0.2232
 7625TIP3    H144290   3.530   0.717  10.835  0.7363  1.5583  0.7651
 7625TIP3    H244291   3.463   0.655  10.956 -0.0273 -0.2227 -0.5358
 7626TIP3   OH244292   1.998   0.303   2.269 -0.1441  0.3443 -0.2442
 7626TIP3    H144293   1.968   0.286   2.180  0.8754  0.0723 -0.5471
 7626TIP3    H244294   2.083   0.346   2.259  0.1814 -0.0686  0.5965
 7627TIP3   OH244295   6.636   0.768  16.826 -0.1074 -0.1112  0.1867
 7627TIP3    H144296   6.578   0.788  16.752 -0.2408 -1.7547 -0.1877
 7627TIP3    H244297   6.705   0.834  16.821 -0.1199 -0.1948 -1.4031
 7628TIP3   OH244298   0.566   5.240   4.218 -0.3855  0.0289  0.3695
 7628TIP3    H144299   0.491   5.217   4.273 -0.0549 -0.7277  0.5247
 7628TIP3    H244300   0.558   5.182   4.142  1.3663 -1.8742  1.5312
 7629TIP3   OH244301   5.181   4.249   4.964 -0.2237  0.1294  0.2759
 7629TIP3    H144302   5.231   4.330   4.959  0.3612 -0.1275  1.5007
 7629TIP3    H244303   5.247   4.180   4.958 -0.3802 -0.2094  1.9409
 7630TIP3   OH244304   0.192   1.921  14.114 -0.3337  0.1237  0.6717
 7630TIP3    H144305   0.177   1.981  14.042 -0.1827 -0.6350 -0.0113
 7630TIP3    H244306   0.178   1.834  14.076  1.7787 -0.4262  0.9962
 7631TIP3   OH244307   0.835   2.320  15.824 -0.6699 -0.0570 -0.1313
 7631TIP3    H144308   0.892   2.253  15.787  1.3177  0.9696  0.9051
 7631TIP3    H244309   0.770   2.336  15.756  1.0155 -0.4001 -1.9142
 7632TIP3   OH244310   4.673   5.835   4.290  0.0763  0.0089 -0.1218
 7632TIP3    H144311   4.760   5.796   4.278 -0.1681 -0.8487  0.7079
 7632TIP3    H244312   4.628   5.774   4.349 -2.5570 -1.8473 -3.7003
 7633TIP3   OH244313   0.982   0.187   5.454  0.4087  0.3932  0.5685
 7633TIP3    H144314   0.936   0.266   5.426  0.4661  0.1664 -0.1753
 7633TIP3    H244315   0.936   0.160   5.534  0.3920  1.1738  0.8316
 7634TIP3   OH244316   5.164   3.892   1.299 -0.1700  0.4714 -0.4579
 7634TIP3    H144317   5.231   3.903   1.232  0.9251  0.3985  0.6036
 7634TIP3    H244318   5.181   3.806   1.337  0.0770  1.0550  0.8204
 7635TIP3   OH244319   2.607   2.466  16.173 -0.5118 -0.2948  0.0875
 7635TIP3    H144320   2.628   2.491  16.263 -0.4353 -0.0300 -0.0045
 7635TIP3    H244321   2.681   2.413  16.145 -0.3672 -0.0753  0.0560
 7636TIP3   OH244322   3.720   1.872   1.803 -0.4420 -0.3687 -0.4511
 7636TIP3    H144323   3.740   1.917   1.721 -0.6073  1.0046  0.2343
 7636TIP3    H244324   3.635   1.831   1.788  0.0101 -1.0447 -1.3067
 7637TIP3   OH244325   6.154   4.402  15.533  0.0153  0.0578  0.8238
 7637TIP3    H144326   6.223   4.454  15.574  0.4171  0.9230 -0.8529
 7637TIP3    H244327   6.200   4.337  15.480 -0.4580  0.0607  0.4003
 7638TIP3   OH244328   4.814   1.032   6.109  0.5110  0.7919  0.1237
 7638TIP3    H144329   4.840   1.031   6.201 -0.9624 -2.3539  0.6582
 7638TIP3    H244330   4.721   1.055   6.110  0.2676 -0.0974 -0.4658
 7639TIP3   OH244331   3.739   0.275  14.407  0.3470 -0.3585 -0.2241
 7639TIP3    H144332   3.821   0.286  14.455  0.2214 -0.8521  0.1212
 7639TIP3    H244333   3.692   0.206  14.456  0.3954 -1.1729 -1.2870
 7640TIP3   OH244334   0.006   2.841   1.588 -0.3107  0.6994  0.0148
 7640TIP3    H144335  -0.063   2.853   1.653 -1.8824  2.1462 -1.7791
 7640TIP3    H244336   0.060   2.920   1.596  0.7983 -0.1157  0.9522
 7641TIP3   OH244337   4.132   3.549  10.953 -0.2620 -0.5397 -0.2554
 7641TIP3    H144338   4.097   3.616  11.011 -2.1149  0.2416 -2.1227
 7641TIP3    H244339   4.073   3.474  10.965 -0.0119 -0.7566 -0.3614
 7642TIP3   OH244340   6.683   2.945  14.392  0.2365  0.3327 -0.0626
 7642TIP3    H144341   6.681   2.977  14.482  1.4449 -1.6817  0.7428
 7642TIP3    H244342   6.769   2.904  14.383 -1.0611 -2.3919 -1.0452
 7643TIP3   OH244343   1.439   4.551  16.450  0.1099  0.1496 -0.1471
 7643TIP3    H144344   1.480   4.473  16.412  0.9410  1.4565 -2.1249
 7643TIP3    H244345   1.427   4.530  16.542  1.5989 -1.7970 -0.3392
 7644TIP3   OH244346   6.115   0.818   3.952  0.8483 -0.0928 -0.1897
 7644TIP3    H144347   6.030   0.776   3.945  1.1110 -0.5124 -0.8843
 7644TIP3    H244348   6.178   0.747   3.942  1.2981  0.4775 -1.5535
 7645TIP3   OH244349   0.114   3.626  16.545 -0.0653  0.3181  0.3408
 7645TIP3    H144350   0.072   3.564  16.486 -0.7332 -1.2878  2.3608
 7645TIP3    H244351   0.101   3.711  16.504 -4.1089 -0.2268  0.1097
 7646TIP3   OH244352   2.351   4.944   4.805 -0.5449 -0.2348 -0.0169
 7646TIP3    H144353   2.352   4.902   4.891  0.5702  0.2116  0.2029
 7646TIP3    H244354   2.267   4.991   4.802 -0.8876 -0.7970  0.5504
 7647TIP3   OH244355   5.711   2.146  15.548  0.1472 -0.1702 -0.8764
 7647TIP3    H144356   5.629   2.132  15.596  0.3198 -0.3117 -0.6144
 7647TIP3    H244357   5.754   2.217  15.595 -0.6062  1.1085 -2.0519
 7648TIP3   OH244358   4.791   6.636  13.284 -0.2236 -0.2870  0.0807
 7648TIP3    H144359   4.747   6.685  13.214 -0.1114  0.2275  0.3702
 7648TIP3    H244360   4.873   6.682  13.297 -0.1529 -0.5077  0.4160
 7649TIP3   OH244361   0.345   1.416  12.499 -0.4112  0.8979  0.3433
 7649TIP3    H144362   0.339   1.498  12.451 -0.2221  0.3521 -0.6449
 7649TIP3    H244363   0.302   1.434  12.583 -1.3370  1.6983 -0.2723
 7650TIP3   OH244364   1.692   5.746  13.714  0.2070  0.3418  0.5030
 7650TIP3    H144365   1.674   5.684  13.644  1.4420  0.5974 -0.0711
 7650TIP3    H244366   1.632   5.819  13.699  1.1527  0.8633 -0.9392
 7651TIP3   OH244367   5.902   0.311  15.445  0.2591  0.1724 -0.5106
 7651TIP3    H144368   5.919   0.233  15.394 -0.9177  0.0873 -0.8167
 7651TIP3    H244369   5.840   0.361  15.392  0.4846  0.9922 -0.0228
 7652TIP3   OH244370   0.084   3.522  15.952 -0.0983  0.4509 -0.5290
 7652TIP3    H144371   0.027   3.457  15.912  1.1221 -0.4840 -0.8043
 7652TIP3    H244372   0.166   3.476  15.968  0.2664  1.4907  0.7724
 7653TIP3   OH244373   6.705   0.737   2.397  0.3255 -0.0503 -0.4663
 7653TIP3    H144374   6.765   0.678   2.351  0.4606 -0.3863  0.1421
 7653TIP3    H244375   6.649   0.680   2.449 -1.3790  0.1524 -1.9657
 7654TIP3   OH244376   2.527   1.832   1.670 -1.2174  0.1450 -0.1352
 7654TIP3    H144377   2.584   1.884   1.613  1.3407 -0.5779  1.5530
 7654TIP3    H244378   2.587   1.795   1.736 -3.5103 -1.7002  1.0700
 7655TIP3   OH244379   3.695   2.970  15.871 -0.2310  0.0232  0.2700
 7655TIP3    H144380   3.624   3.022  15.833 -0.1227 -1.0798 -1.5883
 7655TIP3    H244381   3.773   2.998  15.824 -0.3355 -2.4734 -1.5944
 7656TIP3   OH244382   2.615   4.586   4.159 -0.3535  0.0741 -0.1915
 7656TIP3    H144383   2.588   4.639   4.234 -0.5199  0.2761 -0.3902
 7656TIP3    H244384   2.571   4.627   4.084 -1.6537 -1.1765 -0.1766
 7657TIP3   OH244385   1.364   2.952   1.554  0.1662  0.3748 -0.3493
 7657TIP3    H144386   1.425   2.961   1.627 -0.0095  1.3104 -0.3045
 7657TIP3    H244387   1.335   2.861   1.558 -1.0400  0.7902  1.7161
 7658TIP3   OH244388   4.671   1.623  14.969  0.2582 -0.4618 -0.3103
 7658TIP3    H144389   4.615   1.659  14.900  1.6410  0.4300 -1.0163
 7658TIP3    H244390   4.724   1.697  14.998 -0.3445 -0.7876  1.8111
 7659TIP3   OH244391   0.229   2.450   5.674 -0.0902 -0.0405 -0.8829
 7659TIP3    H144392   0.133   2.460   5.673  0.0144  1.5453  0.5003
 7659TIP3    H244393   0.244   2.380   5.737 -0.2986  0.9000  0.2452
 7660TIP3   OH244394   3.113   0.530   4.616  0.7224 -0.0854  0.5204
 7660TIP3    H144395   3.193   0.525   4.563  1.3543 -0.1045  1.4592
 7660TIP3    H244396   3.043   0.508   4.555  1.3782  0.4276 -0.4503
 7661TIP3   OH244397   5.697   1.582   1.227  0.1624  0.3277  0.1886
 7661TIP3    H144398   5.624   1.532   1.264 -0.6206  1.7155  0.5798
 7661TIP3    H244399   5.659   1.627   1.151  0.6703  0.8485  0.2378
 7662TIP3   OH244400   1.323   1.402   4.589 -0.2673 -0.2373  0.0114
 7662TIP3    H144401   1.380   1.471   4.558 -0.2744 -0.6694 -0.9890
 7662TIP3    H244402   1.243   1.411   4.536 -1.0442  0.1993  1.2083
 7663TIP3   OH244403   6.124   4.561  15.865 -0.3750 -0.0607 -0.4695
 7663TIP3    H144404   6.117   4.484  15.922 -1.8280 -0.1192 -0.7009
 7663TIP3    H244405   6.100   4.529  15.778  0.7174  0.2866 -0.9177
 7664TIP3   OH244406   4.470   4.048  11.926  0.4923 -0.2807  0.6378
 7664TIP3    H144407   4.513   3.977  11.879  0.1278 -0.5531  0.7157
 7664TIP3    H244408   4.526   4.064  12.002  1.1739  0.2738  0.0318
 7665TIP3   OH244409   1.598   1.682   2.100  0.3009 -0.1799  0.3585
 7665TIP3    H144410   1.519   1.735   2.107 -1.6992 -2.6792 -1.3345
 7665TIP3    H244411   1.613   1.675   2.005  1.0735 -1.7398  0.5630
 7666TIP3   OH244412   6.665   2.257   1.676 -0.0003  0.3220  0.2102
 7666TIP3    H144413   6.710   2.335   1.708 -1.0667  0.2880  1.8916
 7666TIP3    H244414   6.674   2.261   1.581  2.5763  0.8857  0.4100
 7667TIP3   OH244415   6.744   0.519  12.454  0.4861 -0.3865 -0.2119
 7667TIP3    H144416   6.774   0.602  12.419  1.9148  0.1471  2.0566
 7667TIP3    H244417   6.649   0.531  12.466  0.9070  1.6417  1.7182
 7668TIP3   OH244418   2.911   3.945   1.875 -0.0365 -0.2449  0.0552
 7668TIP3    H144419   2.956   3.999   1.809 -2.0741  0.8267 -0.5572
 7668TIP3    H244420   2.885   4.008   1.942  0.7797 -1.1168  1.2243
 7669TIP3   OH244421   3.773   0.377   0.819  0.6162 -0.0387  0.2364
 7669TIP3    H144422   3.798   0.295   0.776 -1.4679  0.0269 -1.2073
 7669TIP3    H244423   3.731   0.429   0.751  0.5832  1.6582  1.4736
 7670TIP3   OH244424   0.496   5.164  13.182 -0.2758 -0.3422  0.0487
 7670TIP3    H144425   0.494   5.204  13.095 -0.6318 -0.6276 -0.0754
 7670TIP3    H244426   0.506   5.071  13.165  0.3097 -0.3353  0.3333
 7671TIP3   OH244427   4.770   1.877  15.362 -0.1319  0.2728 -0.3878
 7671TIP3    H144428   4.804   1.861  15.450  0.7426  0.5875 -0.6620
 7671TIP3    H244429   4.680   1.845  15.365 -0.0808  0.1989  0.5961
 7672TIP3   OH244430   1.788   3.430  11.867 -0.7410 -0.4687 -0.2006
 7672TIP3    H144431   1.804   3.345  11.827  1.4127 -0.1674 -0.1071
 7672TIP3    H244432   1.748   3.482  11.797  0.7388 -0.6689 -1.2396
 7673TIP3   OH244433   2.099   0.230  11.562  0.5807  0.4316  1.1909
 7673TIP3    H144434   2.194   0.241  11.575  0.4622  1.4374  1.2583
 7673TIP3    H244435   2.090   0.212  11.469  0.5920  3.9252  0.3680
 7674TIP3   OH244436   1.009   2.176   1.752 -0.5304  0.1110  0.1862
 7674TIP3    H144437   1.046   2.223   1.678  1.5484  0.8580  1.6129
 7674TIP3    H244438   1.081   2.169   1.815 -2.1125 -0.7666  2.0101
 7675TIP3   OH244439   5.065   1.193  13.695 -0.0964  0.3223  0.4555
 7675TIP3    H144440   5.028   1.188  13.607 -2.1467 -1.0600  1.3330
 7675TIP3    H244441   5.147   1.240  13.683 -0.1696 -0.0661 -2.2305
 7676TIP3   OH244442   6.039   2.992   1.432 -0.9231 -0.1441  0.4668
 7676TIP3    H144443   5.962   3.029   1.476 -0.9236  0.7271 -0.2277
 7676TIP3    H244444   6.067   3.061   1.372  0.1096 -0.6436  0.3568
 7677TIP3   OH244445   6.718   5.889  16.393  0.0753  0.3559  0.9227
 7677TIP3    H144446   6.737   5.918  16.304  3.5063  2.6966  2.2116
 7677TIP3    H244447   6.698   5.796  16.384  1.7206  0.1678 -2.1536
 7678TIP3   OH244448   6.388   6.675  13.693 -0.0111 -0.3639 -0.0692
 7678TIP3    H144449   6.470   6.716  13.663  0.5810 -1.1705  0.4133
 7678TIP3    H244450   6.414   6.622  13.768 -1.1854  0.2911  0.8339
 7679TIP3   OH244451   5.208   2.614  13.750 -0.1127 -0.9685 -0.4774
 7679TIP3    H144452   5.247   2.639  13.666 -0.0359  0.3352 -0.0786
 7679TIP3    H244453   5.268   2.549  13.787  0.4274 -0.7356 -0.9426
 7680TIP3   OH244454   3.797   0.133  12.052 -0.3365 -0.1553  0.1648
 7680TIP3    H144455   3.867   0.182  12.094 -1.8391  0.2378  2.3423
 7680TIP3    H244456   3.830   0.043  12.046  0.5521  0.1372  0.6236
 7681TIP3   OH244457   2.944   1.140   0.991 -0.1591  0.2508 -0.7439
 7681TIP3    H144458   2.851   1.132   0.967 -0.0347 -1.7664 -0.6815
 7681TIP3    H244459   2.972   1.051   1.009  2.2232  0.5948 -2.2563
 7682TIP3   OH244460   3.186   0.481  13.667  0.1527 -0.8834  0.6163
 7682TIP3    H144461   3.223   0.486  13.755  0.0803 -2.6365  0.7647
 7682TIP3    H244462   3.148   0.394  13.662 -2.2454  0.1414 -0.2197
 7683TIP3   OH244463   2.141   6.428   2.635  0.5068 -0.0528 -0.5965
 7683TIP3    H144464   2.096   6.354   2.594  1.1768 -1.6783  1.4030
 7683TIP3    H244465   2.208   6.387   2.690  0.5564  2.0269  1.0156
 7684TIP3   OH244466   3.100   5.457   5.034 -0.4020 -0.0280  0.2557
 7684TIP3    H144467   3.018   5.502   5.011 -0.4023  0.2326  0.7498
 7684TIP3    H244468   3.153   5.525   5.075  0.4861  0.0712 -1.0029
 7685TIP3   OH244469   1.253   0.780   5.246  0.5429  0.6961  0.1640
 7685TIP3    H144470   1.232   0.871   5.269  0.2530  0.7831 -0.4405
 7685TIP3    H244471   1.345   0.770   5.270  0.2271  0.7469  1.4773
 7686TIP3   OH244472   5.729   2.904   4.674 -0.6260 -0.1173 -0.1994
 7686TIP3    H144473   5.712   2.893   4.581 -0.3730  0.0654 -0.2665
 7686TIP3    H244474   5.676   2.836   4.716 -2.5271  1.2084 -0.3129
 7687TIP3   OH244475   0.298   5.323  11.234  0.3633  0.1458 -0.1242
 7687TIP3    H144476   0.382   5.364  11.212 -1.3768  2.6518 -2.7014
 7687TIP3    H244477   0.237   5.396  11.241 -2.3463 -1.7634 -2.0229
 7688TIP3   OH244478   1.480   4.220   3.758  0.2743 -0.1371  0.0692
 7688TIP3    H144479   1.566   4.244   3.792  0.4009 -0.2757 -0.1506
 7688TIP3    H244480   1.459   4.137   3.802  0.4838 -0.3692 -0.2646
 7689TIP3   OH244481   1.522   1.181  15.390  0.7435  0.3124  0.3859
 7689TIP3    H144482   1.533   1.119  15.462  0.9746 -0.2892 -0.1610
 7689TIP3    H244483   1.428   1.201  15.389  0.0019 -2.5821 -1.4662
 7690TIP3   OH244484   5.691   2.732   6.226  0.0529  0.6403 -0.0941
 7690TIP3    H144485   5.670   2.661   6.286 -1.4567  2.7079  2.0457
 7690TIP3    H244486   5.721   2.803   6.283 -1.3096  2.6816 -1.7590
 7691TIP3   OH244487   1.873   4.520   4.488  0.0851 -0.5298 -0.5502
 7691TIP3    H144488   1.926   4.598   4.476 -2.5869  1.5218  0.1489
 7691TIP3    H244489   1.855   4.517   4.582 -0.9690 -1.1826 -0.7554
 7692TIP3   OH244490   4.180   4.877   4.737  0.1700 -0.0810 -0.0138
 7692TIP3    H144491   4.120   4.840   4.672  0.1320 -1.4029  0.7251
 7692TIP3    H244492   4.244   4.807   4.751  1.5595  1.0944 -0.3693
 7693TIP3   OH244493   0.701   6.134   4.689  0.1562 -0.2100  0.1273
 7693TIP3    H144494   0.622   6.135   4.636  0.5755 -0.6514 -0.5236
 7693TIP3    H244495   0.711   6.042   4.715  0.3187 -0.1120  0.4180
 7694TIP3   OH244496   5.194   6.336  16.046 -0.3567  0.2762  0.0268
 7694TIP3    H144497   5.100   6.351  16.060 -0.7005  0.0983 -1.9245
 7694TIP3    H244498   5.217   6.395  15.975  0.8898 -0.1547  0.0517
 7695TIP3   OH244499   5.007   2.643   1.312 -0.4244 -0.0577  0.7710
 7695TIP3    H144500   5.048   2.685   1.236 -0.8020  0.7484  0.9970
 7695TIP3    H244501   5.069   2.576   1.340  0.4453  0.7108  0.7163
 7696TIP3   OH244502   6.470   4.548  15.000  0.0138 -0.6615 -0.0106
 7696TIP3    H144503   6.430   4.602  14.932  0.1651  0.2093  0.5755
 7696TIP3    H244504   6.507   4.611  15.062  0.2714 -1.4405  0.6450
 7697TIP3   OH244505   2.675   3.960   5.871 -0.9045 -0.5120  0.0761
 7697TIP3    H144506   2.741   4.027   5.854 -1.9281  0.9990  1.8188
 7697TIP3    H244507   2.722   3.892   5.919  0.1712 -1.1795 -1.8174
 7698TIP3   OH244508   4.133   0.442   3.804 -0.6070 -0.1979  0.1592
 7698TIP3    H144509   4.063   0.389   3.766  0.9515 -3.0917  0.9860
 7698TIP3    H244510   4.116   0.440   3.898  0.1606 -0.3343  0.3044
 7699TIP3   OH244511   5.168   0.850  13.025 -0.0541  0.5890 -0.7892
 7699TIP3    H144512   5.146   0.764  13.060  1.2957  0.4628 -0.2248
 7699TIP3    H244513   5.083   0.896  13.021 -0.4596  0.1350  1.3569
 7700TIP3   OH244514   0.647   0.390  16.690 -0.1910  0.1665 -0.4184
 7700TIP3    H144515   0.588   0.345  16.751 -1.8729  1.1014 -1.2595
 7700TIP3    H244516   0.677   0.467  16.739  0.7740 -0.5932  0.1982
 7701TIP3   OH244517   1.246   4.622   2.859  0.3800  0.0081  0.3072
 7701TIP3    H144518   1.335   4.651   2.839  0.2753  1.6856  1.8853
 7701TIP3    H244519   1.256   4.533   2.892  0.9459 -1.3535 -3.1370
 7702TIP3   OH244520   2.402   5.591   4.060 -0.6643  0.0818 -0.2149
 7702TIP3    H144521   2.389   5.667   4.117 -1.9591 -0.2423 -0.0664
 7702TIP3    H244522   2.410   5.629   3.972 -0.4748  0.4396 -0.0483
 7703TIP3   OH244523   0.262   5.628  16.093  0.0571  0.2508 -0.0772
 7703TIP3    H144524   0.268   5.653  16.185  0.9918 -2.3352  0.6585
 7703TIP3    H244525   0.184   5.573  16.088  0.3334 -0.0920 -0.7076
 7704TIP3   OH244526   6.439   0.908   3.842 -0.2720 -0.1014 -0.1645
 7704TIP3    H144527   6.464   0.898   3.934  0.6659  0.7614 -0.2992
 7704TIP3    H244528   6.398   0.994   3.838 -0.6523 -0.2966 -0.4865
 7705TIP3   OH244529   6.249   6.782  12.042  0.4590  0.0627 -0.3925
 7705TIP3    H144530   6.288   6.834  11.972  0.8843 -0.4199 -0.5143
 7705TIP3    H244531   6.323   6.744  12.088  0.2167  0.8796  0.7246
 7706TIP3   OH244532   3.461   4.809   2.974  0.0129  0.0948 -0.4018
 7706TIP3    H144533   3.552   4.840   2.973  0.2211 -0.4978 -0.4391
 7706TIP3    H244534   3.409   4.888   2.990  0.6600  0.1081  2.1003
 7707TIP3   OH244535   3.291   4.539  12.558 -0.3571  0.4988 -0.8737
 7707TIP3    H144536   3.267   4.631  12.553  0.4507  0.8874  1.5429
 7707TIP3    H244537   3.383   4.538  12.582 -0.4106 -0.9332 -0.5988
 7708TIP3   OH244538   3.595   5.259  14.634  0.4460  0.1199  0.4619
 7708TIP3    H144539   3.600   5.306  14.551 -1.4774 -0.6331 -0.1360
 7708TIP3    H244540   3.503   5.266  14.661  0.9183 -0.0988  2.2714
 7709TIP3   OH244541   1.923   3.748   6.035  0.0716 -0.0673 -0.1025
 7709TIP3    H144542   1.890   3.731   5.947  1.9786  0.0945 -0.8912
 7709TIP3    H244543   1.939   3.842   6.037 -0.1851 -0.0333  0.5224
 7710TIP3   OH244544   1.988   2.613   1.226  0.6232 -0.1444  0.1997
 7710TIP3    H144545   2.073   2.650   1.251  1.6727 -1.8584 -0.5910
 7710TIP3    H244546   1.938   2.688   1.193  1.6125  0.9976  1.1962
 7711TIP3   OH244547   4.117   2.241   1.623 -0.0344 -0.1441  0.1970
 7711TIP3    H144548   4.094   2.157   1.663  2.2500 -0.3225  1.2673
 7711TIP3    H244549   4.189   2.221   1.564 -1.3307  0.6474 -1.7483
 7712TIP3   OH244550   2.505   4.857  11.547 -0.0136  0.3785 -0.1363
 7712TIP3    H144551   2.493   4.872  11.453 -0.6860 -1.3739 -0.3680
 7712TIP3    H244552   2.513   4.762  11.555  0.1397  0.5117  1.5741
 7713TIP3   OH244553   4.990   3.742   3.994 -0.5666  0.1998  0.3689
 7713TIP3    H144554   5.015   3.692   4.072 -0.0448 -0.1449 -0.0107
 7713TIP3    H244555   5.056   3.718   3.928 -3.0099 -2.4542 -1.3798
 7714TIP3   OH244556   5.752   2.887   3.767 -0.4568 -0.2171  0.1404
 7714TIP3    H144557   5.707   2.967   3.793  0.0803  0.6307 -1.3945
 7714TIP3    H244558   5.708   2.818   3.816 -0.4958  1.0641  2.0278
 7715TIP3   OH244559   6.691   1.304  12.634 -0.6067 -0.0568  0.3098
 7715TIP3    H144560   6.596   1.315  12.634 -0.5657  0.2977  0.8186
 7715TIP3    H244561   6.725   1.391  12.653 -0.1418  0.1156 -1.2031
 7716TIP3   OH244562   0.038   2.855   2.489  0.1300  0.5212 -1.1735
 7716TIP3    H144563   0.073   2.791   2.551  0.4170  1.3467 -0.4779
 7716TIP3    H244564  -0.032   2.900   2.536 -0.7809  0.0234 -2.0065
 7717TIP3   OH244565   3.851   6.237   2.332 -0.0795  0.0289  0.4601
 7717TIP3    H144566   3.878   6.329   2.337 -0.6950  0.1599  2.1754
 7717TIP3    H244567   3.909   6.192   2.394 -0.5669 -0.5217  0.5290
 7718TIP3   OH244568   0.288   1.061   0.059  0.0746 -0.1956  0.2201
 7718TIP3    H144569   0.237   1.069   0.140  0.5314  0.2711  0.4700
 7718TIP3    H244570   0.222   1.048  -0.009 -0.2366 -2.0272  0.8288
 7719TIP3   OH244571   3.204   1.116  15.767 -0.1002 -0.0727 -0.6519
 7719TIP3    H144572   3.284   1.167  15.782 -0.4884  0.4656 -0.3675
 7719TIP3    H244573   3.152   1.171  15.709 -0.1141 -0.5857 -1.1317
 7720TIP3   OH244574   3.534   4.260   5.214  0.3664  0.9042 -0.3092
 7720TIP3    H144575   3.482   4.180   5.203  2.2788 -0.5421  0.5590
 7720TIP3    H244576   3.535   4.276   5.308 -0.7570  2.5258 -0.5436
 7721TIP3   OH244577   1.706   0.286  13.404  0.5287 -0.4020  0.4948
 7721TIP3    H144578   1.697   0.304  13.498  0.4956 -0.1627  0.4461
 7721TIP3    H244579   1.781   0.227  13.398  1.8404  1.1802  0.5087
 7722TIP3   OH244580   2.557   5.561  16.388  0.6494 -0.3224  0.0243
 7722TIP3    H144581   2.479   5.506  16.396 -0.5641  1.3537  0.5542
 7722TIP3    H244582   2.597   5.560  16.475  1.2366 -1.1973 -0.2523
 7723TIP3   OH244583   3.977   0.070  12.357  0.6047  0.1414  0.4589
 7723TIP3    H144584   4.010   0.137  12.296  1.3608 -0.9115 -0.3280
 7723TIP3    H244585   3.941   0.120  12.430  2.7226  1.4133  0.7264
 7724TIP3   OH244586   2.714   4.143  15.375  0.1698 -0.1097  0.9760
 7724TIP3    H144587   2.698   4.165  15.283 -1.0507 -0.9883  0.9564
 7724TIP3    H244588   2.802   4.178  15.393 -0.9795  3.3949  0.5557
 7725TIP3   OH244589   1.523   4.143   5.273 -0.4638  0.2488  0.0237
 7725TIP3    H144590   1.500   4.205   5.342  0.0091  0.1592  0.2653
 7725TIP3    H244591   1.458   4.158   5.205  0.9451  2.6427 -0.9550
 7726TIP3   OH244592   5.622   3.142   3.871 -0.0114  0.3771 -0.7916
 7726TIP3    H144593   5.562   3.167   3.942 -0.7112 -0.5310 -1.0500
 7726TIP3    H244594   5.685   3.214   3.867  1.4321 -0.5073  2.2670
 7727TIP3   OH244595   4.075   0.012   2.051 -0.5422  0.2998  0.5830
 7727TIP3    H144596   3.991   0.007   2.006 -0.6459 -0.5933  0.8560
 7727TIP3    H244597   4.087  -0.075   2.090  0.7235  0.2640  0.1669
 7728TIP3   OH244598   5.062   0.710  17.085  0.4175 -0.2372 -0.3743
 7728TIP3    H144599   4.971   0.686  17.099 -0.1705  2.9388  2.6089
 7728TIP3    H244600   5.108   0.677  17.163  0.9223  1.6424  0.1908
 7729TIP3   OH244601   1.236   2.741  15.349 -0.8595 -0.3964  0.5559
 7729TIP3    H144602   1.312   2.745  15.409  0.2331  1.1363 -0.8580
 7729TIP3    H244603   1.210   2.832  15.338 -0.0505 -0.4426 -2.4552
 7730TIP3   OH244604   1.197   6.754  15.108  0.4942  0.1730  0.0383
 7730TIP3    H144605   1.199   6.849  15.101  2.9446  0.1228 -0.7928
 7730TIP3    H244606   1.273   6.724  15.057 -0.0102 -2.2085  0.5540
 7731TIP3   OH244607   5.303   3.575  17.160 -0.5210  0.2488 -0.9921
 7731TIP3    H144608   5.288   3.616  17.075  0.8637  2.7085 -0.1674
 7731TIP3    H244609   5.305   3.649  17.222  0.3026 -1.2654  0.8979
 7732TIP3   OH244610   0.768   1.734  13.731 -0.3763  0.3097  0.0450
 7732TIP3    H144611   0.684   1.755  13.772 -1.0754  0.5498 -1.4423
 7732TIP3    H244612   0.828   1.802  13.760 -0.4246 -0.3804  1.8652
 7733TIP3   OH244613   1.334   5.674  13.045  0.2582 -0.2613 -0.1653
 7733TIP3    H144614   1.257   5.668  13.102 -0.7792  0.0162 -1.4931
 7733TIP3    H244615   1.311   5.622  12.968  1.5179 -0.3953 -0.4737
 7734TIP3   OH244616   4.379   0.552   0.625  0.1181  0.0285 -0.3053
 7734TIP3    H144617   4.287   0.561   0.601  0.0274  1.6476  0.5029
 7734TIP3    H244618   4.427   0.578   0.546 -0.0676 -2.1383 -1.1770
 7735TIP3   OH244619   3.273   4.847  16.983 -0.0252 -0.5595 -0.5318
 7735TIP3    H144620   3.332   4.844  17.058 -1.8814  1.0507  1.1115
 7735TIP3    H244621   3.188   4.823  17.018 -1.0327  0.5942 -2.0518
 7736TIP3   OH244622   0.586   3.694  16.804  0.0044  0.2827 -0.3880
 7736TIP3    H144623   0.623   3.606  16.808 -0.8824 -0.0751  0.1147
 7736TIP3    H244624   0.511   3.687  16.745 -0.8965  0.3798  0.7149
 7737TIP3   OH244625   6.182   5.002   3.582 -0.2687 -0.4042 -0.3778
 7737TIP3    H144626   6.254   4.943   3.563  1.1822  0.6282  1.6056
 7737TIP3    H244627   6.221   5.090   3.579 -0.6981  0.0719  3.2019
 7738TIP3   OH244628   4.727   0.337  14.582  0.0012 -0.4673 -0.0583
 7738TIP3    H144629   4.815   0.346  14.547  0.2978 -1.5746  0.3671
 7738TIP3    H244630   4.696   0.427  14.592  0.7250 -0.0942 -1.0794
 7739TIP3   OH244631   5.133   3.665   5.674  0.0956 -0.7536 -0.4931
 7739TIP3    H144632   5.139   3.706   5.588 -2.6718  0.3441 -0.2443
 7739TIP3    H244633   5.115   3.737   5.734  1.0365 -1.6243  0.9156
 7740TIP3   OH244634   4.621   1.990   0.825 -0.4209 -0.1025 -0.3516
 7740TIP3    H144635   4.660   1.953   0.746 -2.3038 -2.2911 -0.3575
 7740TIP3    H244636   4.534   2.020   0.796 -0.7667 -0.0733  0.6936
 7741TIP3   OH244637   1.108   1.363   0.533 -0.1525  0.2434 -0.2393
 7741TIP3    H144638   1.019   1.395   0.516 -0.3960  0.2604  0.9712
 7741TIP3    H244639   1.096   1.289   0.593  0.5788 -0.5498 -1.0432
 7742TIP3   OH244640   6.798   6.682   0.429 -0.5074  0.6998 -0.0415
 7742TIP3    H144641   6.767   6.667   0.339  0.6140  2.1073 -0.7145
 7742TIP3    H244642   6.851   6.605   0.449  0.1282  0.8420 -1.0434
 7743TIP3   OH244643   0.270   0.333  12.265 -0.2303  0.4336  0.0954
 7743TIP3    H144644   0.326   0.339  12.343  0.9565  1.2706 -0.7781
 7743TIP3    H244645   0.331   0.316  12.193 -1.2113  0.5112 -0.7758
 7744TIP3   OH244646   1.311   0.810  16.936 -1.0929  0.3968 -0.2076
 7744TIP3    H144647   1.391   0.862  16.941 -1.8892  1.7150 -0.4428
 7744TIP3    H244648   1.315   0.751  17.011 -0.3426  1.1015  0.3277
 7745TIP3   OH244649   5.828   3.854   5.780 -1.0213 -0.3096  0.3395
 7745TIP3    H144650   5.829   3.926   5.844 -0.5425 -0.7710  0.8666
 7745TIP3    H244651   5.742   3.813   5.790 -2.1291  1.3907 -1.3744
 7746TIP3   OH244652   6.114   5.834  12.089 -0.1669  0.2213 -0.5888
 7746TIP3    H144653   6.187   5.790  12.044 -0.1413 -2.2871  1.6537
 7746TIP3    H244654   6.043   5.770  12.084 -1.2875  1.4220 -0.1972
 7747TIP3   OH244655   5.169   1.902   2.614  0.1282  0.0084  0.7848
 7747TIP3    H144656   5.105   1.944   2.672 -1.6584 -0.6801 -0.5819
 7747TIP3    H244657   5.118   1.837   2.565  1.9110 -0.6442 -0.3097
 7748TIP3   OH244658   0.131   4.956  16.573 -0.3512  0.6280  0.4952
 7748TIP3    H144659   0.146   4.862  16.574 -2.8172  0.1464 -0.6839
 7748TIP3    H244660   0.191   4.989  16.505  0.8295  0.0150  1.2018
 7749TIP3   OH244661   5.728   1.136  10.892 -0.6416  0.3847  0.0634
 7749TIP3    H144662   5.821   1.159  10.883 -0.6509  0.1002 -0.8733
 7749TIP3    H244663   5.707   1.091  10.811 -0.7253 -2.6008  1.6054
 7750TIP3   OH244664   5.482   2.848   2.598  0.0360  0.2199 -0.1574
 7750TIP3    H144665   5.390   2.837   2.622 -0.5936  1.5129 -1.7912
 7750TIP3    H244666   5.523   2.765   2.623 -1.8005 -0.8206 -0.3965
 7751TIP3   OH244667   2.236   5.633   2.758 -0.0174  0.3361 -0.2199
 7751TIP3    H144668   2.208   5.545   2.732  0.4567  0.2003 -0.2879
 7751TIP3    H244669   2.330   5.624   2.777 -0.5698  0.1548  2.8140
 7752TIP3   OH244670   2.668   5.564   5.995  0.7511 -0.1349 -0.0147
 7752TIP3    H144671   2.696   5.654   5.978 -1.1328  0.6829  0.9039
 7752TIP3    H244672   2.750   5.518   6.016  1.8577  1.1455 -1.2659
 7753TIP3   OH244673   4.367   2.271  15.313 -0.7285  0.2070  0.1365
 7753TIP3    H144674   4.301   2.270  15.244  1.2818 -1.2238 -1.8814
 7753TIP3    H244675   4.405   2.359  15.308 -0.8354  0.2286 -0.3034
 7754TIP3   OH244676   3.082   3.635   3.134 -0.2177  0.3826  0.0042
 7754TIP3    H144677   3.032   3.638   3.052 -0.2873 -2.2030 -0.1047
 7754TIP3    H244678   3.022   3.596   3.197  0.5162  0.4772  0.7741
 7755TIP3   OH244679   5.952   2.461   3.612  0.2655 -0.2703  0.9404
 7755TIP3    H144680   5.926   2.457   3.704 -1.9047 -0.2351  0.3921
 7755TIP3    H244681   5.875   2.429   3.564  0.2817  2.3127 -1.0071
 7756TIP3   OH244682   5.378   6.760   1.273 -0.6912  0.0987  0.2081
 7756TIP3    H144683   5.334   6.747   1.358 -0.3136  2.1252  0.7677
 7756TIP3    H244684   5.380   6.855   1.262  0.5061 -0.0856 -1.4445
 7757TIP3   OH244685   4.515   4.506  13.380  0.7212  0.2934  0.5918
 7757TIP3    H144686   4.459   4.583  13.386  0.6684  0.1841  1.6959
 7757TIP3    H244687   4.604   4.542  13.377  0.6960  0.4117  1.0936
 7758TIP3   OH244688   4.934   4.095   4.629 -0.0624 -0.6394 -0.7556
 7758TIP3    H144689   4.999   4.034   4.665 -0.1222 -0.7900 -0.8990
 7758TIP3    H244690   4.858   4.084   4.685  0.2803  0.0850 -0.1248
 7759TIP3   OH244691   2.003   3.183   2.241 -0.0449 -0.5362  0.3114
 7759TIP3    H144692   2.009   3.195   2.146  1.1410 -0.3613  0.3863
 7759TIP3    H244693   1.912   3.160   2.257 -0.3963  0.0008 -0.8058
 7760TIP3   OH244694   1.844   0.282  15.861  0.3174  0.1709  0.2831
 7760TIP3    H144695   1.899   0.274  15.940  0.7411 -0.5931 -0.0721
 7760TIP3    H244696   1.798   0.365  15.872 -0.2400 -0.2876  1.7338
 7761TIP3   OH244697   5.570   0.048  16.652  0.2307 -0.4872 -0.2564
 7761TIP3    H144698   5.614  -0.020  16.703  0.2608 -0.6488 -0.4965
 7761TIP3    H244699   5.484   0.056  16.693  0.4700 -0.1958  0.1870
 7762TIP3   OH244700   3.957   5.186  15.802 -0.6639  0.9568  0.3331
 7762TIP3    H144701   3.906   5.220  15.728 -0.0734  0.6992 -0.1977
 7762TIP3    H244702   3.974   5.263  15.857 -1.6922  1.0329  0.5662
 7763TIP3   OH244703   3.406   0.666  14.629  0.4581  0.0408 -0.0731
 7763TIP3    H144704   3.357   0.662  14.547  1.0139 -0.2916 -0.3949
 7763TIP3    H244705   3.478   0.604  14.618  1.2099  0.8273  0.2122
 7764TIP3   OH244706   3.046   0.429  13.394  0.0055  0.2625  0.1806
 7764TIP3    H144707   2.995   0.471  13.464  1.7440  2.2752  0.3549
 7764TIP3    H244708   3.134   0.418  13.432  0.0921 -1.9002 -0.5354
 7765TIP3   OH244709   1.632   5.880   5.979  0.3605  0.2405 -0.5023
 7765TIP3    H144710   1.588   5.964   5.989 -0.8304 -0.3634 -0.4806
 7765TIP3    H244711   1.724   5.899   5.994  0.3303  1.8351 -2.0902
 7766TIP3   OH244712   2.431   2.987   1.986  0.0816 -0.1972 -0.4486
 7766TIP3    H144713   2.403   3.001   2.076  0.4662 -0.1827 -0.3264
 7766TIP3    H244714   2.521   2.956   1.994 -0.3885 -1.6877 -0.7615
 7767TIP3   OH244715   3.008   4.930   3.801 -0.6027  0.0534 -0.0689
 7767TIP3    H144716   3.094   4.906   3.836 -0.1740 -0.7695 -1.6050
 7767TIP3    H244717   2.953   4.854   3.820 -0.2184 -0.6450 -1.6166
 7768TIP3   OH244718   3.476   5.988   3.960  0.3046  0.3687 -0.0744
 7768TIP3    H144719   3.460   5.968   4.053 -0.9069  1.9890  0.1043
 7768TIP3    H244720   3.561   5.947   3.942  0.6785  0.1908  1.8160
 7769TIP3   OH244721   5.954   6.360  11.364 -0.4142 -0.1982  0.1935
 7769TIP3    H144722   6.031   6.316  11.400  0.8416 -0.2374 -2.3621
 7769TIP3    H244723   5.880   6.303  11.389  0.7868 -2.0533 -0.2728
 7770TIP3   OH244724   4.411   6.209  14.798 -0.1121  0.4270 -0.1443
 7770TIP3    H144725   4.406   6.183  14.890  0.8848  3.1330  0.7921
 7770TIP3    H244726   4.329   6.256  14.783 -0.4293 -0.3098 -0.7769
 7771TIP3   OH244727   1.134   0.650  11.228 -0.0878 -0.0697  0.3669
 7771TIP3    H144728   1.165   0.740  11.224 -2.7367  0.9118  0.4536
 7771TIP3    H244729   1.180   0.605  11.157  1.4501  1.2419  0.4852
 7772TIP3   OH244730   5.345   3.144   6.450 -0.0553 -0.1379 -0.1326
 7772TIP3    H144731   5.334   3.057   6.413  0.0169  0.1945 -0.9558
 7772TIP3    H244732   5.307   3.138   6.538 -2.8933 -0.2032 -1.2469
 7773TIP3   OH244733   6.425   5.123   1.295 -0.0592  0.3898 -0.7343
 7773TIP3    H144734   6.338   5.119   1.336  0.0942 -0.1322 -0.4559
 7773TIP3    H244735   6.424   5.206   1.246 -0.5873  0.5557 -0.4541
 7774TIP3   OH244736   1.506   2.824  11.538  0.0495 -0.5333  0.5267
 7774TIP3    H144737   1.437   2.796  11.478 -0.0094 -0.6997  0.6712
 7774TIP3    H244738   1.578   2.762  11.523 -0.0140 -0.6564  0.7186
 7775TIP3   OH244739   2.853   0.355  12.790 -0.3835  0.0833 -0.7292
 7775TIP3    H144740   2.780   0.315  12.743 -0.7403  0.8295 -0.8150
 7775TIP3    H244741   2.885   0.285  12.848 -1.6310 -0.0300 -0.1545
 7776TIP3   OH244742   4.014   1.030  14.820  0.1355  0.1253 -0.2374
 7776TIP3    H144743   3.954   1.101  14.797 -1.6698 -1.0752  0.5679
 7776TIP3    H244744   4.022   1.035  14.915  1.3238  0.2370 -0.3274
 7777TIP3   OH244745   6.024   5.108   2.718  0.6028 -0.7091 -0.0458
 7777TIP3    H144746   5.957   5.146   2.661  0.7158  0.9068  0.8299
 7777TIP3    H244747   6.086   5.179   2.734  0.4502 -1.0036  2.2481
 7778TIP3   OH244748   6.771   0.383  16.879  0.3952 -0.5210 -0.5859
 7778TIP3    H144749   6.708   0.335  16.932 -0.4935  0.2785 -0.8788
 7778TIP3    H244750   6.778   0.333  16.798 -0.2723 -0.3406 -0.7601
 7779TIP3   OH244751   3.793   2.915  13.958 -0.9087 -0.3437 -0.0164
 7779TIP3    H144752   3.839   2.994  13.930 -1.4583 -0.2522 -0.6998
 7779TIP3    H244753   3.762   2.934  14.046 -0.5584 -0.0106  0.0357
 7780TIP3   OH244754   3.098   5.420  13.313  0.1090  0.2675 -0.3691
 7780TIP3    H144755   3.175   5.452  13.268  0.5426  0.2983  0.3685
 7780TIP3    H244756   3.086   5.481  13.386  0.0436 -0.3622  0.1587
 7781TIP3   OH244757   2.792   0.446   4.748  0.4592 -0.0904  0.1865
 7781TIP3    H144758   2.761   0.376   4.805  2.1080 -1.6893 -0.7962
 7781TIP3    H244759   2.837   0.507   4.807 -0.4768 -0.1175  0.9666
 7782TIP3   OH244760   1.147   3.955  14.337  0.0609 -0.1509 -0.0889
 7782TIP3    H144761   1.100   4.030  14.375  1.0237 -0.0751  0.9956
 7782TIP3    H244762   1.236   3.987  14.324 -0.4089  0.1212 -3.3268
 7783TIP3   OH244763   5.629   0.530  12.554  0.1985  0.1806 -0.9564
 7783TIP3    H144764   5.638   0.618  12.518 -0.8129  0.5588 -0.3476
 7783TIP3    H244765   5.615   0.545  12.648 -0.5596 -0.5858 -0.9334
 7784TIP3   OH244766   6.129   4.171   3.067 -0.3754 -0.1212  0.0958
 7784TIP3    H144767   6.168   4.227   3.000 -0.8247  0.4573  0.3072
 7784TIP3    H244768   6.202   4.146   3.123 -0.2486  0.7255  0.3308
 7785TIP3   OH244769   5.530   2.569  14.140  0.0607 -0.2662  0.4718
 7785TIP3    H144770   5.572   2.529  14.216 -2.7632 -0.7142  1.9247
 7785TIP3    H244771   5.547   2.508  14.068  0.6326 -1.1255  1.3219
 7786TIP3   OH244772   0.246   5.932   0.040 -0.2778  0.1931  0.2022
 7786TIP3    H144773   0.265   6.026   0.038  1.9088 -0.2040  0.2131
 7786TIP3    H244774   0.280   5.903   0.125 -1.5829 -0.5101  0.5113
 7787TIP3   OH244775   0.655   0.606  12.773 -0.0275  0.2308  0.0934
 7787TIP3    H144776   0.582   0.545  12.780 -0.2605  0.6698  2.4011
 7787TIP3    H244777   0.694   0.588  12.687 -1.8371 -1.1269 -0.4969
 7788TIP3   OH244778   4.059   1.652   1.780  0.0916 -0.0460  0.2000
 7788TIP3    H144779   4.072   1.558   1.795 -2.2177 -0.4310  0.1302
 7788TIP3    H244780   4.018   1.658   1.694  0.3693  1.0640  0.1215
 7789TIP3   OH244781   4.998   0.323   2.646  0.1076  0.3103 -0.2719
 7789TIP3    H144782   5.090   0.345   2.630  0.5043 -0.9110  0.2341
 7789TIP3    H244783   4.979   0.254   2.583 -0.7415  1.1475 -0.9643
 7790TIP3   OH244784   3.747   1.201   6.119  0.3870 -0.2830  0.0886
 7790TIP3    H144785   3.691   1.156   6.182  0.3157  0.3008  0.4398
 7790TIP3    H244786   3.692   1.270   6.083  0.0264 -1.3168 -1.4855
 7791TIP3   OH244787   2.896   5.733   1.846  0.0713 -0.9799 -0.7300
 7791TIP3    H144788   2.874   5.763   1.757  0.6575  2.3295  0.0939
 7791TIP3    H244789   2.985   5.764   1.860 -0.4325 -0.3122  1.4116
 7792TIP3   OH244790   4.478   1.236  17.056  0.1110  0.0533 -0.0076
 7792TIP3    H144791   4.382   1.226  17.054  0.0544  0.4227  0.4758
 7792TIP3    H244792   4.512   1.148  17.039 -0.3118  0.0093 -0.6342
 7793TIP3   OH244793   3.969   5.699   1.498  0.9882 -0.2529 -0.3636
 7793TIP3    H144794   3.927   5.781   1.525  1.4582  0.1068 -0.7176
 7793TIP3    H244795   3.925   5.675   1.417  0.7071 -0.4675 -0.1516
 7794TIP3   OH244796   5.212   2.367   3.034 -0.2605 -0.0827  0.1007
 7794TIP3    H144797   5.150   2.412   2.976  0.1526  1.5475  0.8592
 7794TIP3    H244798   5.158   2.337   3.107 -0.1761  1.4259  0.8114
 7795TIP3   OH244799   0.654   3.766  15.709  0.2357 -0.2136  0.2167
 7795TIP3    H144800   0.608   3.848  15.690  0.9401 -0.0365 -0.7474
 7795TIP3    H244801   0.745   3.783  15.686  0.1709 -1.6779 -1.3025
 7796TIP3   OH244802   2.854   1.501   5.022 -0.1654 -0.0192 -0.1663
 7796TIP3    H144803   2.814   1.484   5.107  1.1327  0.8965  0.6537
 7796TIP3    H244804   2.799   1.570   4.983  0.1970  0.7599  0.6665
 7797TIP3   OH244805   1.716   4.547  15.040 -0.3923  0.2918  0.1311
 7797TIP3    H144806   1.676   4.555  15.126 -0.9454 -2.3852  0.2103
 7797TIP3    H244807   1.683   4.464  15.005  0.7248  0.7188 -2.1842
 7798TIP3   OH244808   0.960   5.413   4.576 -0.1728  0.0281 -0.4166
 7798TIP3    H144809   0.964   5.408   4.481  0.3017 -0.7038 -0.3721
 7798TIP3    H244810   0.980   5.323   4.605 -1.9955 -0.1733  0.3386
 7799TIP3   OH244811   5.900   4.435   4.893 -0.2657  0.1023  0.6216
 7799TIP3    H144812   5.822   4.400   4.935  0.2720 -2.0194 -0.0416
 7799TIP3    H244813   5.973   4.389   4.935  0.4963  0.5350 -0.1867
 7800TIP3   OH244814   5.478   6.329  11.894  0.0097  0.0383  0.1484
 7800TIP3    H144815   5.397   6.355  11.938 -0.4626  0.8661 -1.1855
 7800TIP3    H244816   5.531   6.290  11.964 -1.8235 -1.2258  0.9043
 7801TIP3   OH244817   0.454   1.572  15.748  0.2550  0.0798  0.0715
 7801TIP3    H144818   0.510   1.565  15.671 -0.3894  0.1410 -0.4095
 7801TIP3    H244819   0.489   1.507  15.809  0.9639  0.2471 -0.1432
 7802TIP3   OH244820   5.219   4.960  11.178  0.2149 -0.0277 -0.0250
 7802TIP3    H144821   5.179   5.041  11.211  0.5625 -0.5079  1.6982
 7802TIP3    H244822   5.153   4.922  11.120  0.1819  1.6303 -1.1452
 7803TIP3   OH244823   4.945   4.203   4.380 -0.7216  0.6477  0.1411
 7803TIP3    H144824   4.956   4.165   4.466  0.8057 -1.4016 -0.8789
 7803TIP3    H244825   4.851   4.206   4.366 -0.9255 -0.8426  1.1043
 7804TIP3   OH244826   0.911   4.374   4.687  0.0281 -0.1393 -0.1801
 7804TIP3    H144827   0.908   4.393   4.781 -0.8043 -0.0716 -0.2081
 7804TIP3    H244828   0.824   4.339   4.668 -0.7521  2.2127 -1.4064
 7805TIP3   OH244829   5.463   6.557   6.406 -0.3368 -0.1022  0.0943
 7805TIP3    H144830   5.503   6.524   6.486 -1.2268 -0.5478  0.3624
 7805TIP3    H244831   5.441   6.478   6.356 -2.0876  0.0805  0.5456
 7806TIP3   OH244832   1.861   0.916  14.044 -0.3225  0.2218  0.8126
 7806TIP3    H144833   1.942   0.866  14.052 -0.1481  0.1580 -0.9714
 7806TIP3    H244834   1.791   0.850  14.051 -0.1850  0.1174  1.2111
 7807TIP3   OH244835   2.172   3.721   4.803  0.0750 -0.2687  0.2456
 7807TIP3    H144836   2.140   3.809   4.782 -1.0649 -0.9875 -1.1635
 7807TIP3    H244837   2.102   3.681   4.854  0.9200 -0.1218  1.5641
 7808TIP3   OH244838   5.475   6.515   3.900 -0.8879 -0.4599 -0.4964
 7808TIP3    H144839   5.548   6.456   3.883 -1.7594 -2.2898  1.5486
 7808TIP3    H244840   5.492   6.550   3.988 -1.3258  0.9198 -0.9353
 7809TIP3   OH244841   3.195   6.694  16.434 -0.0739 -0.2385 -0.7089
 7809TIP3    H144842   3.228   6.630  16.371 -0.2011  0.1796 -1.2064
 7809TIP3    H244843   3.242   6.775  16.414 -0.4685  0.0274 -0.5852
 7810TIP3   OH244844   6.040   5.393   3.812  0.4707 -0.0483 -0.1224
 7810TIP3    H144845   5.981   5.321   3.790 -1.1390  1.5459 -1.2974
 7810TIP3    H244846   6.056   5.438   3.729  1.8911  0.6532  0.4884
 7811TIP3   OH244847   5.373   2.865   6.415 -0.3240 -0.1596 -0.5234
 7811TIP3    H144848   5.403   2.806   6.346  0.8845  0.1356 -0.2739
 7811TIP3    H244849   5.379   2.813   6.495 -4.1799 -1.3899 -0.8318
 7812TIP3   OH244850   3.240   6.225   3.460  0.8097 -0.2648 -0.1483
 7812TIP3    H144851   3.236   6.320   3.455 -0.6531 -0.1941  1.2771
 7812TIP3    H244852   3.148   6.198   3.470  1.2418 -1.7677  0.0165
 7813TIP3   OH244853   1.662   4.015  12.879  0.1928  0.0058  0.0937
 7813TIP3    H144854   1.728   3.979  12.821  0.2369 -0.4856  0.4427
 7813TIP3    H244855   1.594   3.948  12.883  0.0501  0.1638  0.3648
 7814TIP3   OH244856   4.060   5.609   4.460 -0.2288 -0.5533  0.0531
 7814TIP3    H144857   4.113   5.553   4.403  1.4297  0.5489  0.4556
 7814TIP3    H244858   3.969   5.592   4.433  0.3887 -1.6342 -1.4429
 7815TIP3   OH244859   1.356   6.207  13.355  0.7185 -0.8011 -0.2479
 7815TIP3    H144860   1.311   6.148  13.294 -0.5978 -1.8674  1.6656
 7815TIP3    H244861   1.312   6.291  13.343 -0.2638 -1.2692 -0.0231
 7816TIP3   OH244862   6.576   0.044   0.297  0.0343  0.2132  0.4186
 7816TIP3    H144863   6.577  -0.051   0.310 -1.2582 -0.1806 -1.8329
 7816TIP3    H244864   6.586   0.081   0.385  1.7506 -1.9634  1.2247
 7817TIP3   OH244865   1.677   1.492   5.402 -0.0104 -0.2476  0.1385
 7817TIP3    H144866   1.698   1.541   5.482 -1.3884  1.5391 -0.5065
 7817TIP3    H244867   1.581   1.485   5.404 -0.0272 -0.5784 -1.1123
 7818TIP3   OH244868   5.923   1.231   5.383 -0.0417 -0.2188  0.3795
 7818TIP3    H144869   5.830   1.223   5.363 -0.0291  1.1572 -0.3235
 7818TIP3    H244870   5.963   1.256   5.299  0.6122  1.5606  1.1721
 7819TIP3   OH244871   4.670   3.090  17.111  0.0830  0.5629  0.1033
 7819TIP3    H144872   4.721   3.115  17.034  1.0563  0.6258  0.7523
 7819TIP3    H244873   4.633   3.172  17.144 -1.4992  0.3832 -1.0581
 7820TIP3   OH244874   5.693   4.752  11.743 -0.5757 -0.2072 -0.3229
 7820TIP3    H144875   5.622   4.689  11.748 -1.0608  0.2596 -1.1470
 7820TIP3    H244876   5.675   4.804  11.665 -0.1610  0.9116  0.2913
 7821TIP3   OH244877   4.807   2.485   6.443  0.3425 -1.1429 -0.4085
 7821TIP3    H144878   4.734   2.540   6.472  0.9253 -0.9336  0.7153
 7821TIP3    H244879   4.766   2.401   6.421 -0.6169 -0.1943 -2.5756
 7822TIP3   OH244880   5.606   5.852   1.700 -0.4236 -0.3918  0.2539
 7822TIP3    H144881   5.545   5.911   1.744  0.8907  0.1918  1.3225
 7822TIP3    H244882   5.599   5.769   1.748  0.2246 -0.0741  0.9087
 7823TIP3   OH244883   5.938   3.179  16.975 -0.5454  0.4471 -0.3833
 7823TIP3    H144884   5.880   3.242  16.932 -1.4555  1.5605  2.3132
 7823TIP3    H244885   6.010   3.232  17.008 -0.0946 -0.3125 -0.1357
 7824TIP3   OH244886   6.674   5.338   4.589  0.2764 -0.0129  0.2693
 7824TIP3    H144887   6.597   5.342   4.533  0.3434 -1.2546  0.0560
 7824TIP3    H244888   6.726   5.414   4.564  1.5288 -1.8057 -3.2275
 7825TIP3   OH244889   0.998   3.919   1.123  0.5827  0.0017 -0.7378
 7825TIP3    H144890   0.908   3.890   1.111  0.2904  1.0372 -1.1261
 7825TIP3    H244891   1.017   3.901   1.216  0.0524 -0.4062 -0.7057
 7826TIP3   OH244892   3.475   3.939  16.509  0.2370 -0.1568  0.3646
 7826TIP3    H144893   3.435   4.015  16.551 -1.0107 -1.2696  1.2764
 7826TIP3    H244894   3.568   3.948  16.529  0.1424  1.2026  0.3140
 7827TIP3   OH244895   6.546   2.115   0.748  0.2516  0.2134  0.4273
 7827TIP3    H144896   6.497   2.066   0.683  4.4580 -2.1572 -1.3487
 7827TIP3    H244897   6.550   2.058   0.825  2.3752 -0.9038 -0.4452
 7828TIP3   OH244898   4.539   5.893   1.912  0.3221 -0.1117 -0.0546
 7828TIP3    H144899   4.563   5.856   1.997  1.0512 -0.7588 -0.5312
 7828TIP3    H244900   4.465   5.951   1.932  0.2329 -0.5414  0.9603
 7829TIP3   OH244901   5.262   1.238  14.935 -0.1198 -0.2701 -0.1551
 7829TIP3    H144902   5.239   1.205  14.849 -2.1555  0.6437 -0.0144
 7829TIP3    H244903   5.333   1.180  14.965 -2.3571 -3.4587 -0.5773
 7830TIP3   OH244904   1.021   2.347  14.936 -0.3821 -0.4489  0.4147
 7830TIP3    H144905   1.010   2.265  14.983 -0.7982  0.0671  1.2495
 7830TIP3    H244906   0.999   2.415  15.000 -3.2356  0.2258 -1.0972
 7831TIP3   OH244907   6.050   5.530   4.650  0.2944 -0.0351 -0.4482
 7831TIP3    H144908   6.024   5.449   4.693 -1.3402 -0.2083 -1.6577
 7831TIP3    H244909   6.022   5.599   4.710 -1.0980 -0.3072 -0.7388
 7832TIP3   OH244910   5.178   4.676  13.903 -0.7006  0.6159 -0.3280
 7832TIP3    H144911   5.134   4.757  13.927 -0.2747  1.1421 -1.2652
 7832TIP3    H244912   5.223   4.697  13.821  1.1530  0.0471  0.5070
 7833TIP3   OH244913   1.369   1.510  11.000  0.0900 -0.2210  0.7113
 7833TIP3    H144914   1.340   1.419  11.002  0.4713 -0.3537  2.9304
 7833TIP3    H244915   1.435   1.512  10.931 -0.1914 -1.5321  0.3652
 7834TIP3   OH244916   4.618   0.775  14.415 -0.7186 -0.1607 -0.0729
 7834TIP3    H144917   4.558   0.849  14.408  0.0643  1.0368  3.6339
 7834TIP3    H244918   4.562   0.701  14.438 -1.1573  0.0248 -0.5171
 7835TIP3   OH244919   4.394   1.981  13.327  0.5590 -0.0368  0.3577
 7835TIP3    H144920   4.306   1.962  13.295  1.1453 -2.0082 -0.1677
 7835TIP3    H244921   4.388   1.966  13.422  0.3247 -0.0751  0.3384
 7836TIP3   OH244922   3.289   1.288   2.103 -0.1530 -0.2194 -0.3144
 7836TIP3    H144923   3.378   1.320   2.088  0.0047 -0.4482  0.0903
 7836TIP3    H244924   3.258   1.261   2.017  0.4735 -0.9005 -0.3360
 7837TIP3   OH244925   3.711   4.212  11.366  0.1918  0.1843  0.3739
 7837TIP3    H144926   3.649   4.260  11.421  2.5135  2.0821  1.5193
 7837TIP3    H244927   3.698   4.247  11.278 -0.3156  0.6078  0.6103
 7838TIP3   OH244928   5.728   1.080   0.475 -0.3376 -0.2184 -0.1173
 7838TIP3    H144929   5.736   1.117   0.562 -0.6545 -0.2828 -0.0595
 7838TIP3    H244930   5.745   1.154   0.416 -0.5747 -0.0702 -0.0022
 7839TIP3   OH244931   1.261   2.569   6.427 -0.5581  0.3417 -0.2215
 7839TIP3    H144932   1.209   2.633   6.477 -0.3360  0.3422  0.0132
 7839TIP3    H244933   1.279   2.499   6.490 -1.0661 -0.1062 -0.5651
 7840TIP3   OH244934   3.126   4.177   1.864 -0.0430  0.4574  0.3168
 7840TIP3    H144935   3.167   4.230   1.797 -1.1400  1.4407  0.3903
 7840TIP3    H244936   3.192   4.111   1.887  0.5227  0.3960 -1.3662
 7841TIP3   OH244937   2.699   3.844  15.126 -0.1020 -0.4339 -0.3915
 7841TIP3    H144938   2.724   3.759  15.164  0.9901 -0.0042 -0.1215
 7841TIP3    H244939   2.782   3.887  15.108 -0.6542  1.0715  0.5491
 7842TIP3   OH244940   3.766   0.220  11.775 -0.2210 -0.0953 -0.9528
 7842TIP3    H144941   3.851   0.262  11.759 -1.0856  1.4217 -1.7765
 7842TIP3    H244942   3.760   0.212  11.870  0.0905  1.4181 -0.7887
 7843TIP3   OH244943   5.560   2.422   6.196  0.4061  0.1210 -0.0028
 7843TIP3    H144944   5.541   2.332   6.221 -1.9976  0.4054 -0.5556
 7843TIP3    H244945   5.507   2.475   6.256  0.9186  1.1114 -0.4013
 7844TIP3   OH244946   6.774   0.922   3.419  0.2646 -0.5953  0.7421
 7844TIP3    H144947   6.791   0.892   3.509  0.3891  0.2777  1.0179
 7844TIP3    H244948   6.844   0.985   3.402  0.9095 -1.5746 -0.3839
 7845TIP3   OH244949   4.703   4.218   0.858  0.1941 -0.3543  0.0003
 7845TIP3    H144950   4.746   4.163   0.924 -0.5219  0.3323  1.0708
 7845TIP3    H244951   4.680   4.298   0.905  1.2803  0.9312 -1.5307
 7846TIP3   OH244952   1.223   5.724   0.376 -0.3055  0.6431  0.2027
 7846TIP3    H144953   1.240   5.652   0.437  2.5564  0.8063 -0.2544
 7846TIP3    H244954   1.170   5.786   0.427 -1.3795 -0.9898  1.1626
 7847TIP3   OH244955   2.819   0.962   5.021 -0.3430  0.5983 -0.5581
 7847TIP3    H144956   2.881   0.955   5.094 -0.8832  0.4668 -0.1054
 7847TIP3    H244957   2.734   0.971   5.063 -0.8528 -1.0955 -1.1460
 7848TIP3   OH244958   0.791   5.905   1.152 -0.5101 -0.3534  0.4635
 7848TIP3    H144959   0.849   5.832   1.172 -2.2926 -1.8767  0.3251
 7848TIP3    H244960   0.786   5.955   1.234 -0.9602 -1.6246  1.2321
 7849TIP3   OH244961   5.044   6.261  12.361 -0.3182  0.6917 -0.5013
 7849TIP3    H144962   5.103   6.193  12.327 -0.0172  0.7378 -0.0883
 7849TIP3    H244963   5.099   6.339  12.368 -0.1257  0.4714  0.8803
 7850TIP3   OH244964   3.125   3.612  16.053 -0.0194 -0.2285 -0.4125
 7850TIP3    H144965   3.173   3.606  16.136 -0.4198 -1.1155 -0.2330
 7850TIP3    H244966   3.192   3.638  15.989  0.3396  0.2472  0.1423
 7851TIP3   OH244967   1.461   3.060   3.897  0.3111 -0.0651  0.1076
 7851TIP3    H144968   1.445   2.979   3.946  0.4266  0.7776  1.6185
 7851TIP3    H244969   1.557   3.069   3.898  0.5202 -1.2027 -2.3334
 7852TIP3   OH244970   0.113   6.287   5.054  0.1367 -0.1299  0.0654
 7852TIP3    H144971   0.029   6.307   5.012 -0.3967 -0.6651  0.8349
 7852TIP3    H244972   0.132   6.197   5.028  0.0827 -0.2700  0.4958
 7853TIP3   OH244973   0.886   4.580   4.276 -0.0862  0.6454  0.8961
 7853TIP3    H144974   0.844   4.641   4.337 -1.5253  0.4309  0.1553
 7853TIP3    H244975   0.942   4.526   4.331 -1.7374  0.1211  2.1379
 7854TIP3   OH244976   3.543   0.737  11.637 -0.3370 -0.1057  0.3253
 7854TIP3    H144977   3.605   0.707  11.702  0.8625 -0.6544 -1.0143
 7854TIP3    H244978   3.523   0.659  11.585  0.2336  0.6732 -1.1361
 7855TIP3   OH244979   5.427   3.555   1.116  0.3336 -0.0848 -0.4160
 7855TIP3    H144980   5.333   3.563   1.096 -0.3982  3.3729  3.1398
 7855TIP3    H244981   5.468   3.626   1.066  0.8810 -0.7917 -0.9806
 7856TIP3   OH244982   2.222   0.390   6.078  0.1474 -0.2135 -0.2572
 7856TIP3    H144983   2.316   0.405   6.081  0.1010 -0.0181  1.8820
 7856TIP3    H244984   2.212   0.295   6.075  0.4238 -0.2421 -0.2458
 7857TIP3   OH244985   5.936   0.887   2.936  0.3711 -0.3201  0.4052
 7857TIP3    H144986   5.859   0.877   2.992 -0.5674  0.5036 -0.7100
 7857TIP3    H244987   5.928   0.975   2.900  1.6646 -0.3492  0.0009
 7858TIP3   OH244988   2.377   0.446   3.881 -0.1338 -0.1321  0.1265
 7858TIP3    H144989   2.389   0.428   3.974 -1.8399  1.0912  0.6253
 7858TIP3    H244990   2.323   0.374   3.849  0.8777 -0.8287 -0.0678
 7859TIP3   OH244991   4.317   4.534  16.052 -0.0722 -0.0289  0.4801
 7859TIP3    H144992   4.261   4.566  15.982  2.4436  1.6875 -0.9182
 7859TIP3    H244993   4.369   4.464  16.011  1.3157  0.8786  0.6064
 7860TIP3   OH244994   2.526   6.165   1.362  0.6341 -0.3878  0.1635
 7860TIP3    H144995   2.550   6.219   1.436 -0.5705  1.5202 -0.7521
 7860TIP3    H244996   2.542   6.220   1.285 -3.5110  0.0476 -0.6738
 7861TIP3   OH244997   4.609   5.208  16.005  0.1676  0.0777  0.6699
 7861TIP3    H144998   4.523   5.198  15.963 -0.1328  1.3435  0.9583
 7861TIP3    H244999   4.590   5.245  16.090  0.8026 -2.2087  1.9027
 7862TIP3   OH245000   6.452   4.923  16.692  0.6034  0.6769  0.0279
 7862TIP3    H145001   6.424   4.957  16.777  0.4462 -0.6619  0.5357
 7862TIP3    H245002   6.536   4.965  16.675  1.4668 -0.3069  1.6548
 7863TIP3   OH245003   4.584   0.382   0.717  0.0349  0.3057  0.3651
 7863TIP3    H145004   4.648   0.359   0.649 -0.3840  1.5914 -0.4975
 7863TIP3    H245005   4.531   0.452   0.678 -1.2515 -0.0190  1.4305
 7864TIP3   OH245006   2.266   4.530   5.324  0.1322 -0.0049  0.0931
 7864TIP3    H145007   2.309   4.481   5.255  2.1873 -0.0546  1.3340
 7864TIP3    H245008   2.300   4.493   5.405 -4.7119 -2.3121  1.4329
 7865TIP3   OH245009   1.244   3.819   2.888  0.0390  0.0319 -0.7845
 7865TIP3    H145010   1.304   3.888   2.859  0.5542 -0.6211 -1.3107
 7865TIP3    H245011   1.178   3.814   2.819  0.6635 -0.7838 -1.3587
 7866TIP3   OH245012   3.440   6.068  17.034 -0.0877  0.4512 -0.1962
 7866TIP3    H145013   3.452   6.147  17.087  0.9437  0.6398 -0.6793
 7866TIP3    H245014   3.378   6.014  17.084 -0.0367  1.1324  0.6228
 7867TIP3   OH245015   0.015   0.566  15.186 -0.9662 -0.6878  0.5237
 7867TIP3    H145016   0.009   0.582  15.091 -1.5400 -0.8831  0.5223
 7867TIP3    H245017   0.107   0.543  15.201 -0.5727  0.6331  0.2188
 7868TIP3   OH245018   0.746   0.616   1.715  0.3692 -0.1304 -0.3887
 7868TIP3    H145019   0.794   0.546   1.759 -0.7291 -0.0767  0.9416
 7868TIP3    H245020   0.801   0.640   1.641  1.4960 -1.3363  0.0316
 7869TIP3   OH245021   5.841   5.848   4.029  0.1520  0.2703 -0.1690
 7869TIP3    H145022   5.917   5.864   4.085 -0.1342  0.3377  0.2058
 7869TIP3    H245023   5.877   5.802   3.953  0.5832  0.3999 -0.0487
 7870TIP3   OH245024   2.088   3.117  14.729  0.3855  0.4829 -0.3056
 7870TIP3    H145025   2.004   3.070  14.729  0.1491  0.9002 -0.4921
 7870TIP3    H245026   2.106   3.132  14.822 -1.3221  3.1431 -0.3056
 7871TIP3   OH245027   4.042   2.547  12.432  0.4723  0.5557 -0.2170
 7871TIP3    H145028   4.013   2.591  12.353 -1.8416  1.5643  1.0991
 7871TIP3    H245029   4.080   2.616  12.486 -0.5871  0.4636  0.6884
 7872TIP3   OH245030   0.209   3.575   4.552 -0.2975 -0.0771  0.8794
 7872TIP3    H145031   0.141   3.538   4.607 -0.6961  1.3109  1.3624
 7872TIP3    H245032   0.289   3.570   4.605 -0.5858  0.8136  1.4183
 7873TIP3   OH245033   1.123   1.917   2.437  0.7623  0.8952  0.3602
 7873TIP3    H145034   1.158   1.902   2.524 -1.6103 -0.0363  1.2450
 7873TIP3    H245035   1.082   2.003   2.442  0.3917  0.7285  0.2700
 7874TIP3   OH245036   4.026   4.296   1.864  0.0439 -0.2249 -0.0120
 7874TIP3    H145037   4.107   4.314   1.912 -1.2789 -0.0208  2.2468
 7874TIP3    H245038   4.040   4.210   1.825  1.9104  0.4631 -1.0112
 7875TIP3   OH245039   4.896   5.117  14.097  0.1473  0.0244  0.2676
 7875TIP3    H145040   4.858   5.106  14.184 -1.8118  1.0004 -0.3991
 7875TIP3    H245041   4.974   5.170  14.112  0.2842 -0.4895  1.5124
 7876TIP3   OH245042   5.197   3.729   5.418 -0.0702 -0.2866  0.2019
 7876TIP3    H145043   5.177   3.686   5.335  0.0059 -0.4398  0.2625
 7876TIP3    H245044   5.219   3.819   5.394  3.3539 -1.1078 -0.3650
 7877TIP3   OH245045   3.778   4.403   3.386  0.1482 -0.3285  0.2722
 7877TIP3    H145046   3.757   4.311   3.370 -1.6796 -0.4837  2.8805
 7877TIP3    H245047   3.788   4.441   3.299 -1.1662 -2.5427 -0.9348
 7878TIP3   OH245048   1.841   1.693   4.556  0.4635  0.4657  0.0426
 7878TIP3    H145049   1.748   1.684   4.537  0.3626 -1.0359  1.0947
 7878TIP3    H245050   1.852   1.786   4.576 -0.9273  0.5674  0.4553
 7879TIP3   OH245051   0.946   4.363   5.126 -0.2021  0.3773 -0.7879
 7879TIP3    H145052   0.935   4.436   5.066 -0.3069  0.3826 -0.7622
 7879TIP3    H245053   0.859   4.349   5.163 -0.0284  0.7215 -0.2358
 7880TIP3   OH245054   1.052   6.007   6.526 -0.0991 -0.1168 -0.4390
 7880TIP3    H145055   0.999   6.003   6.606  0.3895 -2.2747 -0.1665
 7880TIP3    H245056   1.076   6.100   6.519 -1.6182  0.4513  0.9137
 7881TIP3   OH245057   3.505   6.479   1.089 -0.2435  0.0755  0.1817
 7881TIP3    H145058   3.542   6.491   1.002  2.3528 -0.1127  1.1636
 7881TIP3    H245059   3.464   6.393   1.086  0.5726 -0.3085 -0.6342
 7882TIP3   OH245060   5.310   0.819  14.815  0.3813 -0.6113 -0.3803
 7882TIP3    H145061   5.329   0.912  14.799 -1.5961 -0.0831  0.0205
 7882TIP3    H245062   5.389   0.785  14.856  1.1848  0.8733 -0.6389
 7883TIP3   OH245063   4.355   0.718  13.440  0.3915  0.5012 -0.0196
 7883TIP3    H145064   4.359   0.622  13.435  1.4718  0.5610 -0.4382
 7883TIP3    H245065   4.275   0.741  13.392  0.9213 -0.1066 -1.2346
 7884TIP3   OH245066   0.434   2.268   2.507  0.4348 -0.3102 -0.0723
 7884TIP3    H145067   0.460   2.360   2.515  0.1421 -0.1718 -0.6715
 7884TIP3    H245068   0.454   2.246   2.416  3.0747 -1.6333  0.7303
 7885TIP3   OH245069   3.588   1.662   0.386  0.4480 -0.5794 -0.5590
 7885TIP3    H145070   3.547   1.598   0.444  1.6336 -0.5637  0.3358
 7885TIP3    H245071   3.665   1.692   0.434 -0.3778  1.9785 -0.6719
 7886TIP3   OH245072   1.588   3.411   0.826 -0.7563 -0.1905  0.9550
 7886TIP3    H145073   1.538   3.343   0.872  0.8171 -3.2906 -1.5717
 7886TIP3    H245074   1.537   3.428   0.746  0.5267 -1.0217 -0.0814
 7887TIP3   OH245075   3.252   4.397  12.198  0.0520  0.4484 -0.4587
 7887TIP3    H145076   3.226   4.368  12.285  0.2940  1.8277  0.0980
 7887TIP3    H245077   3.325   4.457  12.213 -0.1663  1.0239 -1.5755
 7888TIP3   OH245078   1.468   3.323  13.296 -0.1986 -0.0361  0.1515
 7888TIP3    H145079   1.440   3.240  13.258  0.3578 -0.1400 -0.0377
 7888TIP3    H245080   1.458   3.387  13.225 -0.4007  0.0174  0.2264
 7889TIP3   OH245081   5.017   4.612   3.634  0.0608  0.7329 -0.1472
 7889TIP3    H145082   4.993   4.519   3.631 -0.1222  0.5391  3.4317
 7889TIP3    H245083   5.096   4.618   3.581 -0.1619 -1.3621 -0.8174
 7890TIP3   OH245084   2.115   5.543   1.021 -0.1855  0.3879  0.3915
 7890TIP3    H145085   2.024   5.558   0.995 -0.4446  0.6704  1.4228
 7890TIP3    H245086   2.112   5.538   1.117  1.2504  3.0964  0.6737
 7891TIP3   OH245087   4.604   3.855  13.556 -0.4029  0.0648 -0.7068
 7891TIP3    H145088   4.548   3.933  13.548 -0.8470 -0.1651  0.0259
 7891TIP3    H245089   4.574   3.797  13.486  0.1424  0.6706 -1.4558
 7892TIP3   OH245090   6.368   3.520  12.867  0.3042  0.1913  0.0507
 7892TIP3    H145091   6.438   3.480  12.816 -0.3894 -0.9383 -0.0461
 7892TIP3    H245092   6.288   3.480  12.833 -0.3781  1.2783  0.3239
 7893TIP3   OH245093   4.056   4.080   1.689  0.1656 -0.1451  0.2049
 7893TIP3    H145094   4.104   3.998   1.690  1.2323  0.4577  0.9506
 7893TIP3    H245095   4.079   4.121   1.605  0.8292  0.0637  0.4862
 7894TIP3   OH245096   5.435   3.745  11.555  0.4207  0.4367 -0.2939
 7894TIP3    H145097   5.448   3.700  11.471 -1.6587  1.8047 -1.4143
 7894TIP3    H245098   5.404   3.676  11.614  1.4985 -0.4552 -0.7268
 7895TIP3   OH245099   0.774   1.971   4.732 -0.1391 -0.3029 -0.1543
 7895TIP3    H145100   0.807   1.896   4.683 -1.5678 -1.5412  0.7020
 7895TIP3    H245101   0.710   2.012   4.674 -0.9804 -1.0819  0.2044
 7896TIP3   OH245102   3.287   3.668  14.947 -0.3538 -0.1199  0.6872
 7896TIP3    H145103   3.320   3.579  14.960 -0.8720 -0.3037  0.7783
 7896TIP3    H245104   3.275   3.703  15.036 -2.1666 -0.7289  0.7349
 7897TIP3   OH245105   2.585   6.000  12.758  0.4546 -0.2770 -0.1066
 7897TIP3    H145106   2.620   5.989  12.846  1.0657  0.6103 -0.2183
 7897TIP3    H245107   2.516   6.065  12.767  0.8166  0.1476 -0.3415
 7898TIP3   OH245108   1.873   2.005   3.330  0.2184 -0.2857 -0.2611
 7898TIP3    H145109   1.800   1.945   3.346 -0.0873  0.6399  2.4051
 7898TIP3    H245110   1.951   1.956   3.354  0.1210 -0.1505  0.3431
 7899TIP3   OH245111   0.146   6.416  13.466  0.0690 -0.7354  0.5592
 7899TIP3    H145112   0.188   6.502  13.468  1.2934 -1.2831 -0.4153
 7899TIP3    H245113   0.102   6.412  13.381  1.1900 -1.5946  0.0070
 7900TIP3   OH245114   5.076   5.731  13.771  0.0430 -0.1258  0.0510
 7900TIP3    H145115   5.017   5.664  13.804 -0.2646  0.6179  1.0616
 7900TIP3    H245116   5.095   5.787  13.847  2.5800 -0.7040 -0.0669
 7901TIP3   OH245117   3.411   2.200  15.454  0.3614  0.3303 -0.2465
 7901TIP3    H145118   3.419   2.283  15.502  0.5384  0.3611 -0.3309
 7901TIP3    H245119   3.417   2.133  15.521  0.6675  0.3713 -0.2321
 7902TIP3   OH245120   6.165   1.117  13.420 -0.2025 -0.0896  0.4279
 7902TIP3    H145121   6.131   1.032  13.392  1.0608 -0.2025 -0.8896
 7902TIP3    H245122   6.129   1.179  13.356  1.6265 -0.1509 -0.7253
 7903TIP3   OH245123   4.663   6.659  11.532  0.2811  0.4419 -0.1103
 7903TIP3    H145124   4.625   6.733  11.580  1.3782  0.8656  0.1366
 7903TIP3    H245125   4.756   6.662  11.553  0.3667 -0.9574 -0.1889
 7904TIP3   OH245126   1.328   3.292   3.750  0.2785 -0.0756  0.0757
 7904TIP3    H145127   1.347   3.212   3.798  1.4969  0.4623  0.5315
 7904TIP3    H245128   1.386   3.289   3.674  0.5025  0.4703  0.2183
 7905TIP3   OH245129   1.474   1.102  14.190 -0.0049  0.9458 -0.3698
 7905TIP3    H145130   1.564   1.075  14.172  0.5161  2.1086  0.3792
 7905TIP3    H245131   1.482   1.167  14.260 -1.6648 -1.0258  1.8106
 7906TIP3   OH245132   3.878   5.936  16.545  0.2787 -0.4253 -0.2894
 7906TIP3    H145133   3.814   5.869  16.521  0.1459 -1.0677  1.7080
 7906TIP3    H245134   3.847   6.015  16.500 -0.5988 -1.2538 -1.1984
 7907TIP3   OH245135   5.068   5.097  13.089  0.2613  0.0669  0.0471
 7907TIP3    H145136   5.052   5.016  13.137  1.0333  1.3480  2.6885
 7907TIP3    H245137   4.994   5.154  13.111  0.1574  0.3868 -1.0663
 7908TIP3   OH245138   3.521   5.252   1.709 -0.0794 -0.3284  0.0686
 7908TIP3    H145139   3.505   5.163   1.740 -1.2006 -0.4106 -0.6741
 7908TIP3    H245140   3.456   5.305   1.753  0.5663  0.1352  0.4854
 7909TIP3   OH245141   5.936   1.128   3.530 -0.3519 -0.4423  0.2164
 7909TIP3    H145142   6.015   1.160   3.487 -0.2657  0.8489  1.2652
 7909TIP3    H245143   5.967   1.067   3.597 -0.2721 -0.2990  0.3105
 7910TIP3   OH245144   3.979   5.391   2.782  0.1673  0.8746  0.5089
 7910TIP3    H145145   3.888   5.384   2.812  0.0272  1.0487  0.1357
 7910TIP3    H245146   3.989   5.484   2.759 -0.4381  0.3694 -2.1289
 7911TIP3   OH245147   3.615   6.384  16.582  0.0910  0.1324 -0.1761
 7911TIP3    H145148   3.553   6.401  16.653  0.6045 -0.0104  0.3068
 7911TIP3    H245149   3.567   6.328  16.521 -0.1555 -0.2287  0.3465
 7912TIP3   OH245150   3.877   0.763   4.519 -0.0439 -0.4117  0.2037
 7912TIP3    H145151   3.904   0.744   4.609  1.1217  1.2646  0.2462
 7912TIP3    H245152   3.893   0.856   4.508 -2.1173 -0.1401 -1.1185
 7913TIP3   OH245153   2.990   2.344  16.154 -0.6608 -0.5144 -0.0066
 7913TIP3    H145154   2.960   2.347  16.245 -1.8279  1.5388 -0.3734
 7913TIP3    H245155   3.085   2.344  16.159 -0.7000 -1.8775  1.2011
 7914TIP3   OH245156   4.944   0.610   1.945 -0.0678  0.1891  0.3319
 7914TIP3    H145157   4.861   0.584   1.984 -0.0321 -2.0471 -0.9301
 7914TIP3    H245158   4.965   0.694   1.987 -2.5171  0.4060  1.2755
 7915TIP3   OH245159   5.425   6.243   3.244 -0.1223  0.1833 -0.2721
 7915TIP3    H145160   5.415   6.335   3.221 -1.3525  0.1374  0.0048
 7915TIP3    H245161   5.519   6.231   3.256  0.0232  1.4621 -0.0241
 7916TIP3   OH245162   4.404   3.135  13.175  0.0676 -0.2631 -0.0984
 7916TIP3    H145163   4.433   3.224  13.196 -2.5594  0.7327 -0.3518
 7916TIP3    H245164   4.338   3.116  13.241 -1.1229 -1.0423 -1.4611
 7917TIP3   OH245165   4.871   0.286   1.728 -0.0604 -0.1687  0.2039
 7917TIP3    H145166   4.797   0.242   1.686 -1.3033  0.2281  1.8548
 7917TIP3    H245167   4.842   0.376   1.740  1.5997  0.6026 -1.1423
 7918TIP3   OH245168   0.720   0.852  15.025 -0.3398 -0.2009 -0.4170
 7918TIP3    H145169   0.736   0.785  14.958 -1.9847 -0.5596 -0.5141
 7918TIP3    H245170   0.627   0.842  15.046 -0.1257  0.6913  1.0872
 7919TIP3   OH245171   2.050   3.387  15.925 -0.7070 -0.1516 -0.0896
 7919TIP3    H145172   2.087   3.472  15.949 -1.4002  0.2726 -0.4861
 7919TIP3    H245173   2.098   3.362  15.846  0.0789 -0.5347  0.4951
 7920TIP3   OH245174   5.215   3.944  13.722 -0.0252  0.4326  0.1198
 7920TIP3    H145175   5.145   3.996  13.683  0.2036  0.8811  0.3093
 7920TIP3    H245176   5.177   3.856  13.730 -0.3010  0.4856 -0.4993
 7921TIP3   OH245177   3.168   1.420  17.097 -0.0212  0.2966 -0.4423
 7921TIP3    H145178   3.118   1.388  17.021 -1.2646  2.2593 -0.5079
 7921TIP3    H245179   3.118   1.389  17.173  0.6815 -0.8187 -0.4145
 7922TIP3   OH245180   4.650   5.966   2.203  0.3117  0.0740 -0.8138
 7922TIP3    H145181   4.735   5.999   2.176 -1.0125  2.1652 -2.7970
 7922TIP3    H245182   4.606   6.041   2.242 -0.4883 -1.0776  0.5730
 7923TIP3   OH245183   5.939   4.400   1.977  0.2096 -0.4493 -0.3442
 7923TIP3    H145184   5.898   4.337   1.918 -1.6167  0.3249  0.0442
 7923TIP3    H245185   5.867   4.435   2.029  1.1760  1.8840 -0.4657
 7924TIP3   OH245186   0.127   5.264  15.590  0.6147  0.2077 -0.1148
 7924TIP3    H145187   0.154   5.303  15.507  0.5297 -1.0552 -0.7579
 7924TIP3    H245188   0.181   5.307  15.656  1.7666  0.1454 -1.0020
 7925TIP3   OH245189   3.798   0.653  11.986  0.6162 -0.2557  0.4320
 7925TIP3    H145190   3.731   0.719  12.002  0.6171 -0.2816  0.5454
 7925TIP3    H245191   3.803   0.646  11.890  0.5124 -0.1981  0.4217
 7926TIP3   OH245192   4.614   2.313   4.162 -0.1239  1.0022 -0.0495
 7926TIP3    H145193   4.566   2.330   4.081 -1.0967  2.6149  0.8153
 7926TIP3    H245194   4.680   2.382   4.166  1.1555 -0.1447 -0.3272
 7927TIP3   OH245195   2.428   2.370   3.262 -0.2408  0.0274  0.6216
 7927TIP3    H145196   2.434   2.465   3.269 -1.7715  0.3058 -1.1541
 7927TIP3    H245197   2.419   2.352   3.169  1.5092 -2.0038  0.7599
 7928TIP3   OH245198   3.862   3.444  11.948 -0.4607 -0.0181 -0.3756
 7928TIP3    H145199   3.940   3.409  11.991 -0.1704  0.6683 -0.3261
 7928TIP3    H245200   3.836   3.375  11.887 -0.4221 -0.6812  0.3347
 7929TIP3   OH245201   3.213   2.318   5.741 -0.0844  0.6292 -0.0748
 7929TIP3    H145202   3.204   2.319   5.646 -0.2156  0.3512 -0.0656
 7929TIP3    H245203   3.233   2.409   5.764  4.1252  0.0629 -0.7400
 7930TIP3   OH245204   4.686   4.543  15.003 -0.1267  0.1437 -0.4961
 7930TIP3    H145205   4.699   4.470  15.063 -0.0078  0.1991 -0.4529
 7930TIP3    H245206   4.649   4.504  14.924 -0.4701  0.0985 -0.3138
 7931TIP3   OH245207   0.527   3.393  14.718 -0.7202 -0.2151  0.0945
 7931TIP3    H145208   0.551   3.350  14.800 -1.0240 -0.9420 -0.1895
 7931TIP3    H245209   0.452   3.448  14.742  0.5286  1.2506  0.7523
 7932TIP3   OH245210   3.000   1.744  13.005 -0.3153  0.2134 -0.0593
 7932TIP3    H145211   3.031   1.805  12.939 -0.8705  2.5242  1.6862
 7932TIP3    H245212   2.998   1.795  13.086 -0.7730 -2.1574  1.5276
 7933TIP3   OH245213   1.832   4.673  12.423  0.4180  0.3296 -0.2714
 7933TIP3    H145214   1.833   4.678  12.519  1.4157 -0.3800 -0.2327
 7933TIP3    H245215   1.914   4.713  12.396  0.5022 -0.1781 -0.7800
 7934TIP3   OH245216   3.390   0.556   2.948 -0.0731  0.3296 -0.0864
 7934TIP3    H145217   3.400   0.607   3.029  0.4151 -0.2446  0.2272
 7934TIP3    H245218   3.411   0.617   2.878  0.3888  0.5972  0.2763
 7935TIP3   OH245219   3.905   0.525  13.233 -0.6505 -0.1982 -0.3736
 7935TIP3    H145220   3.870   0.467  13.301 -2.0258  0.3966 -0.5363
 7935TIP3    H245221   3.887   0.479  13.151  2.0927 -1.4910 -0.3707
 7936TIP3   OH245222   1.065   3.389  10.785 -0.0817  0.3133 -0.1061
 7936TIP3    H145223   1.128   3.327  10.748 -0.3824  0.4241 -0.8161
 7936TIP3    H245224   0.979   3.351  10.765 -0.2543 -0.1300  1.3598
 7937TIP3   OH245225   5.922   0.386   0.077 -0.2286 -0.4201  0.1949
 7937TIP3    H145226   5.852   0.325   0.099  0.6562 -0.7699  2.1884
 7937TIP3    H245227   5.878   0.471   0.070 -1.2131 -0.9950 -1.0945
 7938TIP3   OH245228   3.537   0.973   4.051  0.0750  0.1163  0.3375
 7938TIP3    H145229   3.519   0.899   4.108  0.4304 -0.9089 -0.8457
 7938TIP3    H245230   3.462   0.977   3.991 -0.5066  1.4453  1.0962
 7939TIP3   OH245231   5.419   2.802   6.072 -0.0045 -0.0379 -0.0344
 7939TIP3    H145232   5.491   2.770   6.126 -1.4069  0.8463  2.5296
 7939TIP3    H245233   5.453   2.801   5.983  2.3341 -1.8812  0.7964
 7940TIP3   OH245234   1.247   0.408  16.516 -0.0254 -0.5818 -0.4148
 7940TIP3    H145235   1.218   0.468  16.585 -3.2548 -0.4999 -1.6831
 7940TIP3    H245236   1.300   0.343  16.562  1.9054  2.0196  1.3330
 7941TIP3   OH245237   4.014   6.619  11.842 -0.9235  0.5561 -0.1408
 7941TIP3    H145238   4.048   6.698  11.800  3.2654 -0.9482 -0.0242
 7941TIP3    H245239   4.002   6.644  11.934  2.5337  0.6617  0.3976
 7942TIP3   OH245240   5.167   6.754   0.184 -0.1823  0.4437  0.5162
 7942TIP3    H145241   5.087   6.757   0.131  0.2835 -0.4706 -0.2814
 7942TIP3    H245242   5.155   6.677   0.240  0.7878 -0.6641 -0.7352
 7943TIP3   OH245243   5.649   5.680   2.785  0.1003  0.5879 -0.0850
 7943TIP3    H145244   5.612   5.679   2.873  0.4086  1.4689  0.0656
 7943TIP3    H245245   5.706   5.757   2.784  0.3229  0.4205 -0.9629
 7944TIP3   OH245246   2.117   1.666   4.660  0.1274 -0.0865  0.5417
 7944TIP3    H145247   2.033   1.661   4.615  0.5922  0.2265 -0.3908
 7944TIP3    H245248   2.116   1.591   4.721  0.1363 -1.5497 -1.1731
 7945TIP3   OH245249   1.365   5.534   5.162 -0.5531 -0.1491  0.1798
 7945TIP3    H145250   1.292   5.567   5.215  1.2698 -0.5661  3.1452
 7945TIP3    H245251   1.436   5.596   5.177  0.1772 -0.4856 -1.5847
 7946TIP3   OH245252   0.366   0.773   2.691  0.3002  1.1586  0.3427
 7946TIP3    H145253   0.441   0.812   2.645  0.3608  1.3682  0.6144
 7946TIP3    H245254   0.378   0.800   2.782  0.3277  0.5179  0.5300
 7947TIP3   OH245255   1.096   3.903  11.882 -0.1799 -0.8559  0.1907
 7947TIP3    H145256   1.043   3.924  11.959 -0.6770 -2.7867  0.4195
 7947TIP3    H245257   1.034   3.900  11.810  0.1584  0.1382 -0.1548
 7948TIP3   OH245258   6.419   0.506  15.718 -0.1073  0.1206 -0.4046
 7948TIP3    H145259   6.437   0.564  15.793  2.2086 -1.4747  0.3756
 7948TIP3    H245260   6.333   0.469  15.737  1.0441 -1.4348  2.3807
 7949TIP3   OH245261   6.557   0.959   3.190  0.1550 -0.4464 -0.4949
 7949TIP3    H145262   6.567   1.038   3.136 -0.9257  0.5377  0.7030
 7949TIP3    H245263   6.615   0.973   3.264  0.7328 -1.2696 -0.7691
 7950TIP3   OH245264   1.412   1.736  13.887  0.2568  0.0974  0.2343
 7950TIP3    H145265   1.470   1.671  13.848  0.8382 -1.1112  2.8878
 7950TIP3    H245266   1.331   1.688  13.906 -0.4043  0.9200 -0.4395
 7951TIP3   OH245267   2.046   0.939   0.661  1.3656 -0.3732  0.8498
 7951TIP3    H145268   2.028   0.846   0.677 -1.6517  0.0165  0.2154
 7951TIP3    H245269   2.006   0.984   0.735 -0.3006  0.5879 -0.5692
 7952TIP3   OH245270   4.114   6.051   3.721 -0.3044  0.8679  0.0352
 7952TIP3    H145271   4.181   6.092   3.775 -0.4494 -0.6618  1.4717
 7952TIP3    H245272   4.163   6.004   3.653  0.0477  0.5038  0.5359
 7953TIP3   OH245273   2.380   2.889   6.319 -0.4500  0.0967  0.4940
 7953TIP3    H145274   2.469   2.901   6.353  0.7396 -3.2359 -0.9823
 7953TIP3    H245275   2.348   2.977   6.303  2.5582  1.4362  1.1253
 7954TIP3   OH245276   2.657   5.560   2.420 -0.1605  0.0945 -0.0927
 7954TIP3    H145277   2.728   5.621   2.400 -0.0757  0.2110  0.5448
 7954TIP3    H245278   2.670   5.537   2.512 -0.9282  0.0956  0.0247
 7955TIP3   OH245279   6.591   0.503  16.673  0.1056 -0.1736  0.3204
 7955TIP3    H145280   6.612   0.444  16.745  1.1211 -0.1187  0.0711
 7955TIP3    H245281   6.543   0.575  16.715 -0.4001 -0.7451  0.7476
 7956TIP3   OH245282   3.238   0.158  14.540 -0.0068  0.9291 -0.5357
 7956TIP3    H145283   3.281   0.075  14.521 -2.3122 -0.3378 -0.5487
 7956TIP3    H245284   3.218   0.195  14.454 -1.1148  0.2907 -0.5714
 7957TIP3   OH245285   6.227   1.172   5.408 -0.1711 -0.0193  0.4743
 7957TIP3    H145286   6.297   1.227   5.372 -1.3902  1.1555 -0.1716
 7957TIP3    H245287   6.146   1.216   5.384 -1.2979 -2.6821 -1.1271
 7958TIP3   OH245288   1.510   3.336   0.368 -0.0701 -0.4693  0.3747
 7958TIP3    H145289   1.567   3.306   0.297 -1.2821  0.2846 -0.9696
 7958TIP3    H245290   1.423   3.344   0.328 -0.4528  1.6768  1.4569
 7959TIP3   OH245291   6.086   3.987   5.383 -0.0132  0.3193 -0.3542
 7959TIP3    H145292   6.073   3.923   5.453 -1.8884  1.0589  0.0252
 7959TIP3    H245293   6.137   4.057   5.424  1.3549 -0.5165 -0.5547
 7960TIP3   OH245294   3.542   2.593  13.140 -0.4207 -0.1629 -0.1297
 7960TIP3    H145295   3.537   2.595  13.236 -1.6690  0.0925 -0.1841
 7960TIP3    H245296   3.452   2.578  13.112 -0.6650  2.9207 -1.3604
 7961TIP3   OH245297   0.507   0.463   5.334 -0.5712  0.1875 -0.1081
 7961TIP3    H145298   0.441   0.507   5.388 -0.8723 -0.6745  0.2566
 7961TIP3    H245299   0.456   0.410   5.273 -0.2493  1.7228 -1.7903
 7962TIP3   OH245300   0.653   2.628   0.365 -0.4378  0.1580 -0.1770
 7962TIP3    H145301   0.575   2.680   0.385 -1.5819 -1.4907 -0.1809
 7962TIP3    H245302   0.725   2.679   0.402 -1.3241  2.3705 -1.2907
 7963TIP3   OH245303   4.300   2.890   1.694  0.1210 -0.4193  0.2883
 7963TIP3    H145304   4.208   2.862   1.697  0.1104 -0.3265  1.0414
 7963TIP3    H245305   4.336   2.861   1.777  0.2048  1.4784  0.9574
 7964TIP3   OH245306   0.553   3.458  15.255 -0.0692 -0.4800  0.3721
 7964TIP3    H145307   0.556   3.550  15.281 -1.8312 -0.3802  0.3342
 7964TIP3    H245308   0.641   3.439  15.224 -0.7469  2.7220 -4.7123
 7965TIP3   OH245309   4.381   2.381   3.783 -0.1926 -0.1025 -0.4137
 7965TIP3    H145310   4.399   2.433   3.704  0.0724 -1.1397 -1.0445
 7965TIP3    H245311   4.425   2.430   3.853 -0.3438  0.7786 -0.9113
 7966TIP3   OH245312   4.790   6.707   2.748  0.3715 -0.2385  0.2204
 7966TIP3    H145313   4.801   6.696   2.842 -0.5875  0.6350  0.4471
 7966TIP3    H245314   4.699   6.683   2.731  0.6800 -0.9280 -0.5828
 7967TIP3   OH245315   4.484   3.857   6.047 -0.4830  0.1926 -0.4583
 7967TIP3    H145316   4.392   3.865   6.022 -0.4337  0.8913 -0.4326
 7967TIP3    H245317   4.508   3.768   6.021 -1.1277  0.0503 -0.5838
 7968TIP3   OH245318   2.419   2.433  12.405 -0.0591 -0.2342 -0.1079
 7968TIP3    H145319   2.465   2.380  12.470 -0.3770 -1.3629 -0.7865
 7968TIP3    H245320   2.436   2.390  12.321 -0.3633  0.7148 -0.6746
 7969TIP3   OH245321   0.936   0.431   1.380 -0.2303  0.4716 -0.4041
 7969TIP3    H145322   0.991   0.464   1.308  0.7800  3.3057  1.4735
 7969TIP3    H245323   0.994   0.431   1.456 -1.9775  0.3663  0.9974
 7970TIP3   OH245324   2.182   1.078   3.601  0.2993  0.0744  0.4509
 7970TIP3    H145325   2.274   1.077   3.574  0.2618 -0.4641  0.3480
 7970TIP3    H245326   2.185   1.091   3.696  0.5736 -2.4830  0.8496
 7971TIP3   OH245327   3.527   1.400   4.229  0.2583 -0.0549 -0.6360
 7971TIP3    H145328   3.454   1.403   4.168 -0.9998 -0.6457  0.7685
 7971TIP3    H245329   3.602   1.374   4.176 -0.8980 -1.0626 -1.8433
 7972TIP3   OH245330   4.803   2.416  16.483  0.7318  0.2069  0.1943
 7972TIP3    H145331   4.806   2.396  16.577 -0.1002  1.2885  0.4602
 7972TIP3    H245332   4.764   2.338  16.444  0.9668 -0.2036  0.7586
 7973TIP3   OH245333   4.158   6.006  11.179 -0.3614 -0.5786  0.0053
 7973TIP3    H145334   4.214   6.075  11.217  0.0246 -0.4763 -0.7292
 7973TIP3    H245335   4.190   5.996  11.089 -1.2047 -0.8805 -0.2689
 7974TIP3   OH245336   1.491   2.530  13.474  0.1306  0.6708 -0.2152
 7974TIP3    H145337   1.413   2.484  13.505  0.2262  0.3137 -0.4910
 7974TIP3    H245338   1.555   2.461  13.459  0.7985  1.0481  0.8528
 7975TIP3   OH245339   4.314   0.117   2.520  0.2747 -0.3540 -0.7671
 7975TIP3    H145340   4.274   0.164   2.447  1.2158  2.2427  0.2939
 7975TIP3    H245341   4.392   0.077   2.483 -0.2652 -0.6868 -1.5755
 7976TIP3   OH245342   1.486   0.222   4.296 -0.5040  0.3755  0.0019
 7976TIP3    H145343   1.399   0.231   4.333 -0.1566  0.0728  0.9106
 7976TIP3    H245344   1.471   0.185   4.209 -1.2402 -0.5773  0.5130
 7977TIP3   OH245345   3.312   6.643   2.730  0.2771 -0.3747 -0.2821
 7977TIP3    H145346   3.388   6.596   2.695  0.3459  0.1934 -0.9118
 7977TIP3    H245347   3.320   6.633   2.825  0.7162 -0.9761 -0.3770
 7978TIP3   OH245348   1.872   0.476   4.221 -0.1282  0.6178 -0.6482
 7978TIP3    H145349   1.914   0.393   4.200  0.3946  1.0854 -1.5097
 7978TIP3    H245350   1.836   0.507   4.138 -2.2414  0.2195  0.0701
 7979TIP3   OH245351   6.410   5.301   2.427 -0.7770 -0.2058 -0.3333
 7979TIP3    H145352   6.338   5.356   2.397 -2.0158 -0.5082  1.8368
 7979TIP3    H245353   6.444   5.260   2.348 -2.8846  0.1023 -1.4695
 7980TIP3   OH245354   1.902   3.274   0.292  0.3179 -0.3566 -0.0379
 7980TIP3    H145355   1.971   3.254   0.229  0.9591  0.4804  0.3851
 7980TIP3    H245356   1.920   3.363   0.321 -2.4008  0.9254 -1.7952
 7981TIP3   OH245357   2.061   5.449  13.338 -0.4979  0.5119 -0.4098
 7981TIP3    H145358   2.131   5.475  13.398  0.6701 -2.3340 -0.3990
 7981TIP3    H245359   2.028   5.532  13.303  1.2114  2.0804  1.4099
 7982TIP3   OH245360   4.278   3.318   2.429  0.2345 -0.0726 -0.2781
 7982TIP3    H145361   4.286   3.410   2.406  0.2778  0.1414  0.5600
 7982TIP3    H245362   4.312   3.271   2.353  1.4640  0.6333 -0.1786
 7983TIP3   OH245363   3.561   4.441   4.578  0.1122 -0.0234  0.1406
 7983TIP3    H145364   3.566   4.374   4.646  2.3918 -1.0077 -0.8688
 7983TIP3    H245365   3.652   4.471   4.568 -0.6077  2.0594 -0.5654
 7984TIP3   OH245366   5.849   6.605   0.128 -0.2076 -0.8506  0.5600
 7984TIP3    H145367   5.903   6.531   0.153 -1.2609 -1.9305 -0.2094
 7984TIP3    H245368   5.774   6.565   0.082 -1.1608  0.6355  0.7563
 7985TIP3   OH245369   0.475   5.125  16.319 -0.1103  0.4944  0.5605
 7985TIP3    H145370   0.444   5.201  16.368  1.0097  0.2832  1.6347
 7985TIP3    H245371   0.495   5.059  16.386 -1.4163 -0.9162 -0.3651
 7986TIP3   OH245372   6.121   1.234  15.750 -0.3796  0.4587  0.2708
 7986TIP3    H145373   6.120   1.267  15.841 -0.0404  1.4435 -0.0634
 7986TIP3    H245374   6.169   1.301  15.702  1.5470 -1.1884 -0.2372
 7987TIP3   OH245375   1.890   4.048   5.270 -0.1747 -0.4409 -0.2417
 7987TIP3    H145376   1.968   4.076   5.222  1.3081  0.8900  2.7130
 7987TIP3    H245377   1.835   4.126   5.274  0.3668 -0.1161  1.3408
 7988TIP3   OH245378   3.348   4.927   1.463 -0.4489  1.1493 -0.0702
 7988TIP3    H145379   3.411   4.896   1.398 -1.8485  2.3495 -2.1018
 7988TIP3    H245380   3.301   4.998   1.420 -3.1351  0.4031  1.3768
 7989TIP3   OH245381   3.899   0.313  14.641 -0.0009  0.4110  0.5317
 7989TIP3    H145382   3.853   0.394  14.666 -1.3923 -0.6357  1.5279
 7989TIP3    H245383   3.918   0.271  14.725  2.8794  0.7882  0.1738
 7990TIP3   OH245384   2.189   1.848  14.875 -0.4127  0.3116  0.0152
 7990TIP3    H145385   2.151   1.931  14.846  1.1469  1.1207  0.1705
 7990TIP3    H245386   2.282   1.867  14.886 -0.2851 -1.0265  1.6510
 7991TIP3   OH245387   5.262   4.602   0.773  0.2712  0.1576 -0.2941
 7991TIP3    H145388   5.288   4.668   0.837  2.5850  0.0593 -1.0346
 7991TIP3    H245389   5.246   4.523   0.825  1.9723  0.1126  0.2333
 7992TIP3   OH245390   6.062   2.291   2.861 -0.2025  0.1513  0.2662
 7992TIP3    H145391   6.033   2.304   2.771 -0.3189 -0.4786  0.2100
 7992TIP3    H245392   6.150   2.330   2.864 -0.8129  1.5724  0.2964
 7993TIP3   OH245393   2.346   4.249  12.487  0.0486 -0.5402  0.6137
 7993TIP3    H145394   2.269   4.277  12.438 -0.0814 -0.0646  1.0773
 7993TIP3    H245395   2.338   4.154  12.492  0.4850 -0.6807 -0.9600
 7994TIP3   OH245396   5.573   6.402  13.710 -0.3221  0.2238  0.5539
 7994TIP3    H145397   5.623   6.351  13.647 -3.0084  1.1004 -2.5758
 7994TIP3    H245398   5.530   6.336  13.765 -0.0852 -0.7174 -0.3499
 7995TIP3   OH245399   0.022   2.225  11.526 -0.8913 -0.0742  0.5860
 7995TIP3    H145400   0.088   2.252  11.590 -0.3113  2.0757 -0.8144
 7995TIP3    H245401  -0.049   2.288  11.536 -1.9147 -1.1900  0.7226
 7996TIP3   OH245402   0.442   3.562   2.259  0.0810 -0.5801 -0.8515
 7996TIP3    H145403   0.360   3.610   2.245  1.0441  1.6372  0.5330
 7996TIP3    H245404   0.507   3.612   2.211  1.1142 -0.5336  0.5408
 7997TIP3   OH245405   0.393   3.948   6.113 -0.1834  0.3923  0.0771
 7997TIP3    H145406   0.334   3.889   6.159  1.4050 -0.5759  0.9315
 7997TIP3    H245407   0.418   4.013   6.179  0.1768  0.4525 -0.1182
 7998TIP3   OH245408   5.290   4.029   2.992 -0.1290 -0.3063 -0.1535
 7998TIP3    H145409   5.290   4.114   3.037  1.3318 -0.2125 -0.2828
 7998TIP3    H245410   5.210   4.030   2.940 -1.3151  0.0343  1.5930
 7999TIP3   OH245411   5.467   3.771   0.510  0.3148  0.0857  0.1924
 7999TIP3    H145412   5.402   3.704   0.533  0.1331  0.0161 -0.5102
 7999TIP3    H245413   5.533   3.724   0.459  0.0879  0.4859 -0.4700
 8000TIP3   OH245414   3.381   2.302  14.397  0.4508 -0.0187  0.2377
 8000TIP3    H145415   3.424   2.306  14.312 -2.1557 -0.4966 -1.2052
 8000TIP3    H245416   3.409   2.383  14.442  1.5768  0.4272 -1.1995
 8001TIP3   OH245417   0.783   2.229   2.864  0.3945 -0.4536 -0.1366
 8001TIP3    H145418   0.744   2.313   2.838  0.6518 -0.8127 -1.8279
 8001TIP3    H245419   0.829   2.249   2.945  1.3954  1.3666 -1.0694
 8002TIP3   OH245420   4.873   0.073  12.220 -0.5941  0.4731 -0.0127
 8002TIP3    H145421   4.903  -0.016  12.239 -0.1108  0.4923 -0.6669
 8002TIP3    H245422   4.814   0.094  12.293 -0.0797 -0.0707  0.5769
 8003TIP3   OH245423   2.350   1.643  14.175 -0.1123 -0.1373 -0.3119
 8003TIP3    H145424   2.411   1.573  14.153  0.9102  0.3615  0.8523
 8003TIP3    H245425   2.369   1.713  14.113  0.5377  0.0255  0.0632
 8004TIP3   OH245426   0.178   5.553   1.949  0.3664  0.2279  0.1524
 8004TIP3    H145427   0.118   5.621   1.917 -0.4531 -0.6253 -0.2002
 8004TIP3    H245428   0.247   5.549   1.882 -0.2798 -0.1778 -0.5046
 8005TIP3   OH245429   0.902   1.852  11.006  0.6346 -0.1363 -0.5323
 8005TIP3    H145430   0.945   1.813  10.930 -0.7107 -2.9503  0.0053
 8005TIP3    H245431   0.958   1.831  11.080  0.7555  0.5015 -0.4369
 8006TIP3   OH245432   6.748   3.219   2.123  0.2188  0.1938 -0.3787
 8006TIP3    H145433   6.717   3.292   2.070  2.4409  0.5370 -1.3100
 8006TIP3    H245434   6.740   3.143   2.066 -0.1470  0.0663 -0.1563
 8007TIP3   OH245435   3.524   5.067  15.771  0.8989 -0.0403 -0.0154
 8007TIP3    H145436   3.510   5.120  15.692 -0.9669 -0.0109  0.2940
 8007TIP3    H245437   3.531   4.978  15.738  0.0558 -0.0370 -0.2297
 8008TIP3   OH245438   2.966   3.912  15.408 -0.1656 -0.1176  0.0220
 8008TIP3    H145439   2.891   3.905  15.466  0.2756  0.6795  0.7216
 8008TIP3    H245440   2.934   3.885  15.322 -0.5698 -2.3294  0.8221
 8009TIP3   OH245441   2.842   3.768   5.987  0.4699  0.0519  0.0097
 8009TIP3    H145442   2.913   3.752   6.049  0.1299  0.3181  0.4645
 8009TIP3    H245443   2.885   3.765   5.901  0.8825 -0.6232  0.2348
 8010TIP3   OH245444   3.469   0.220   5.135 -1.0060  0.1141  0.2188
 8010TIP3    H145445   3.559   0.227   5.102 -0.5341 -2.1841  0.8528
 8010TIP3    H245446   3.417   0.271   5.073  0.6825  1.2947 -0.3077
 8011TIP3   OH245447   0.312   2.493  14.083  0.7495 -0.5136  0.2039
 8011TIP3    H145448   0.263   2.551  14.025  0.8079 -1.4702 -0.8311
 8011TIP3    H245449   0.246   2.456  14.141  0.5147 -0.4191  0.0010
 8012TIP3   OH245450   6.280   6.000   1.564  0.0507 -0.3185 -0.0127
 8012TIP3    H145451   6.225   6.073   1.591  0.4255  0.5477 -1.4576
 8012TIP3    H245452   6.297   5.951   1.644 -3.5301 -1.1439  0.3864
 8013TIP3   OH245453   4.307   6.548  16.037  0.4738 -0.1863  0.7308
 8013TIP3    H145454   4.329   6.623  15.981  0.3188  0.8011  1.9338
 8013TIP3    H245455   4.322   6.472  15.982 -3.0780  0.7570 -1.9172
 8014TIP3   OH245456   4.680   6.654  16.228 -0.1174 -0.0461  0.8745
 8014TIP3    H145457   4.650   6.564  16.239  0.6301 -0.1698  2.0072
 8014TIP3    H245458   4.703   6.660  16.135 -0.9100 -0.7867  0.6234
 8015TIP3   OH245459   1.082   3.114   5.194 -0.0254  0.2782  0.5455
 8015TIP3    H145460   1.005   3.057   5.201 -0.9213  1.3373 -0.4379
 8015TIP3    H245461   1.068   3.164   5.114  1.1357  1.3255  0.9691
 8016TIP3   OH245462   3.260   1.421  12.781  0.2914  0.0475 -0.0920
 8016TIP3    H145463   3.278   1.382  12.696  1.4254 -1.4220  0.7580
 8016TIP3    H245464   3.345   1.418  12.827 -0.1406  1.3997  0.8511
 8017TIP3   OH245465   4.589   3.865   0.025 -0.0762  0.1810  0.6399
 8017TIP3    H145466   4.632   3.929  -0.033  1.1422  0.9270  2.2860
 8017TIP3    H245467   4.625   3.781  -0.002  1.3782  0.6412  1.0151
 8018TIP3   OH245468   0.424   1.259  16.288 -0.2885  0.0039  0.6294
 8018TIP3    H145469   0.462   1.217  16.365 -1.3524 -1.0324  0.6289
 8018TIP3    H245470   0.484   1.238  16.217  1.2724  1.8768  1.3254
 8019TIP3   OH245471   1.002   1.612   3.607  0.4644  0.1653 -0.3714
 8019TIP3    H145472   1.041   1.610   3.520  0.4598  1.3790 -0.4143
 8019TIP3    H245473   0.907   1.609   3.591  0.4677  0.2208 -0.4013
 8020TIP3   OH245474   2.793   3.846   4.955  0.1853  0.1762  0.2639
 8020TIP3    H145475   2.841   3.874   4.877  1.4800 -0.6314  0.7484
 8020TIP3    H245476   2.753   3.763   4.930 -0.0928  0.3227  0.2097
 8021TIP3   OH245477   5.724   6.478  12.502 -0.0402  0.0937  0.1854
 8021TIP3    H145478   5.794   6.456  12.563  1.5050 -2.1327 -2.1390
 8021TIP3    H245479   5.744   6.567  12.473 -0.7662  1.1551  2.7431
 8022TIP3   OH245480   0.289   2.842  16.149  0.1266  0.4490  0.5797
 8022TIP3    H145481   0.369   2.859  16.099  0.1835  1.3120  0.9500
 8022TIP3    H245482   0.228   2.808  16.084  0.4500  0.8202  0.0714
 8023TIP3   OH245483   3.139   3.748  14.736 -0.3025  0.1440 -0.1961
 8023TIP3    H145484   3.201   3.738  14.808 -0.1857 -1.9053 -0.5280
 8023TIP3    H245485   3.188   3.723  14.658 -1.1870 -0.2683 -0.6329
 8024TIP3   OH245486   3.961   0.395   1.269 -0.0777 -0.4282 -0.5319
 8024TIP3    H145487   3.978   0.329   1.336  1.8230 -0.1236 -0.6618
 8024TIP3    H245488   3.962   0.346   1.187  1.0778 -0.2982 -0.6068
 8025TIP3   OH245489   0.995   3.831   5.962  0.0077 -0.0572  0.0848
 8025TIP3    H145490   1.061   3.774   5.925 -0.1774  1.3133 -2.5471
 8025TIP3    H245491   0.923   3.830   5.899 -1.4010  0.5524  1.5792
 8026TIP3   OH245492   5.102   1.382   2.499 -0.4051  0.0896  0.4265
 8026TIP3    H145493   5.119   1.295   2.465  0.8080 -0.0195  1.2519
 8026TIP3    H245494   5.077   1.434   2.422 -0.6646 -0.8603 -0.1400
 8027TIP3   OH245495   6.009   6.522   3.703  0.1487  0.4107 -0.7824
 8027TIP3    H145496   6.059   6.471   3.767 -1.3989  0.2307  0.3360
 8027TIP3    H245497   6.055   6.606   3.699 -0.2165  0.7720  1.3273
 8028TIP3   OH245498   3.966   2.306  14.148  0.7189  0.8488  0.2060
 8028TIP3    H145499   3.881   2.265  14.130  2.0078 -1.3529 -1.3287
 8028TIP3    H245500   3.993   2.344  14.065  3.1946 -2.4859 -0.7153
 8029TIP3   OH245501   4.839   2.711   2.840 -0.3941 -0.6349 -0.0798
 8029TIP3    H145502   4.782   2.729   2.914  0.6557  0.4011  0.5126
 8029TIP3    H245503   4.896   2.640   2.870  0.8458  0.6016  0.5990
 8030TIP3   OH245504   4.410   5.854   0.635  0.4390 -0.1591 -1.0433
 8030TIP3    H145505   4.496   5.835   0.597  0.2819 -0.2375 -1.3640
 8030TIP3    H245506   4.427   5.919   0.703  1.4476 -3.3370  2.0544
 8031TIP3   OH245507   2.037   4.610   0.575  0.2863 -0.3933 -0.0798
 8031TIP3    H145508   1.955   4.602   0.527  0.8030 -2.0249 -0.7547
 8031TIP3    H245509   2.044   4.528   0.624  1.1561  0.0392  0.5460
 8032TIP3   OH245510   1.226   5.295  15.285  0.1226 -0.1132  0.0867
 8032TIP3    H145511   1.281   5.217  15.280  0.4245  0.1661 -1.3700
 8032TIP3    H245512   1.140   5.266  15.256 -0.4568 -0.4625  2.0062
 8033TIP3   OH245513   5.447   1.593   0.244  0.8567 -0.5836  0.6158
 8033TIP3    H145514   5.522   1.538   0.263  2.0515  0.5167 -0.7247
 8033TIP3    H245515   5.445   1.600   0.149  0.4573  1.2732  0.7167
 8034TIP3   OH245516   5.619   0.793  15.051  0.2264  0.5548  0.0916
 8034TIP3    H145517   5.627   0.698  15.058 -0.6916  0.2143 -2.2616
 8034TIP3    H245518   5.533   0.813  15.089 -0.2081  0.2021 -0.6631
 8035TIP3   OH245519   4.671   3.760  14.319 -0.2130  0.5414  0.3275
 8035TIP3    H145520   4.592   3.814  14.322 -0.8192 -0.2582 -0.4945
 8035TIP3    H245521   4.720   3.795  14.245 -1.8370 -1.5771 -1.9046
 8036TIP3   OH245522   3.988   0.345  12.475  0.3018 -0.2132 -0.3574
 8036TIP3    H145523   4.080   0.326  12.494  0.3713  0.2578 -0.2179
 8036TIP3    H245524   3.991   0.417  12.413  0.0153  0.2472  0.1591
 8037TIP3   OH245525   6.797   4.891  12.196  0.2040 -0.2322  1.0480
 8037TIP3    H145526   6.819   4.973  12.240  0.0960  0.1288  0.4361
 8037TIP3    H245527   6.773   4.916  12.107 -2.1808 -0.6406  1.5070
 8038TIP3   OH245528   4.947   0.358   5.822  0.1413  0.0148  0.2291
 8038TIP3    H145529   5.039   0.333   5.810 -0.5524 -2.3359 -1.1086
 8038TIP3    H245530   4.921   0.316   5.904  0.3089  0.8646  0.7208
 8039TIP3   OH245531   3.735   1.468   1.035 -0.1282 -0.0691  0.1957
 8039TIP3    H145532   3.793   1.452   1.109  1.7203  1.5557 -0.8120
 8039TIP3    H245533   3.770   1.414   0.965  0.6078  1.3792 -0.5938
 8040TIP3   OH245534   5.061   1.551   2.984  0.1898 -0.0943 -0.2305
 8040TIP3    H145535   5.007   1.627   3.010  0.1702  0.2656 -1.2724
 8040TIP3    H245536   5.059   1.552   2.888 -0.3236 -1.7910 -0.2693
 8041TIP3   OH245537   2.235   2.626   2.083  0.5972  0.0681  0.4008
 8041TIP3    H145538   2.291   2.640   2.159  1.8610  1.4148 -0.7031
 8041TIP3    H245539   2.180   2.703   2.079  1.2895  0.5388 -0.6165
 8042TIP3   OH245540   1.654   3.956   2.028  0.6840  0.0551  0.1893
 8042TIP3    H145541   1.711   3.978   1.955 -0.5275  0.9983 -0.5111
 8042TIP3    H245542   1.566   3.960   1.992  0.0992 -0.2540  1.5144
 8043TIP3   OH245543   1.395   4.380  15.051  0.2681  0.3957  0.2544
 8043TIP3    H145544   1.443   4.383  15.134  1.9459 -0.0473 -0.6464
 8043TIP3    H245545   1.369   4.288  15.042 -0.4345  0.5568  0.5441
 8044TIP3   OH245546   2.902   5.730  11.746 -0.3226 -0.7373 -0.2816
 8044TIP3    H145547   2.948   5.724  11.662  0.6494  0.1519  0.1736
 8044TIP3    H245548   2.821   5.778  11.725 -0.0269 -0.4115 -0.6881
 8045TIP3   OH245549   5.174   2.375  11.462  0.1362 -0.2631  0.1134
 8045TIP3    H145550   5.096   2.376  11.406 -0.1721  2.1620  0.4945
 8045TIP3    H245551   5.164   2.295  11.515 -0.8171 -1.2834 -1.5086
 8046TIP3   OH245552   5.158   3.305  14.105  0.5947  0.4331  0.2411
 8046TIP3    H145553   5.120   3.360  14.174  1.3860 -1.0661  1.9666
 8046TIP3    H245554   5.116   3.220  14.117  0.4267  0.2477 -1.4605
 8047TIP3   OH245555   4.881   2.850  14.049 -0.8885  0.8482 -0.4439
 8047TIP3    H145556   4.791   2.846  14.016 -0.7612 -0.8307 -0.6763
 8047TIP3    H245557   4.892   2.770  14.100  0.7526  0.5394 -1.2045
 8048TIP3   OH245558   6.047   0.826   5.617 -0.1306  0.2554  0.3689
 8048TIP3    H145559   5.992   0.757   5.654  1.4552 -1.6130 -0.6350
 8048TIP3    H245560   6.109   0.848   5.687  0.2482 -0.3448  0.2260
 8049TIP3   OH245561   2.466   1.207  11.610 -0.1616  0.0063 -0.2731
 8049TIP3    H145562   2.373   1.207  11.586 -0.6115 -0.5780  1.3414
 8049TIP3    H245563   2.471   1.146  11.684  1.3571  0.7099  0.2288
 8050TIP3   OH245564   1.923   1.141   0.309  0.0807 -0.2638 -0.0943
 8050TIP3    H145565   1.846   1.131   0.253  0.8906 -0.8843 -1.1432
 8050TIP3    H245566   1.936   1.235   0.315 -0.3141 -0.1748 -0.5541
 8051TIP3   OH245567   3.409   3.645  15.346 -0.4156 -0.1542  0.0155
 8051TIP3    H145568   3.451   3.626  15.430  1.2623 -0.1035 -0.7601
 8051TIP3    H245569   3.434   3.571  15.290 -0.8199  0.2146 -0.6657
 8052TIP3   OH245570   1.682   0.529  13.280 -0.3985 -0.0684 -0.1462
 8052TIP3    H145571   1.748   0.578  13.330  1.6590 -1.1397 -1.6401
 8052TIP3    H245572   1.684   0.441  13.319  0.2904 -0.5535 -1.2229
 8053TIP3   OH245573   2.978   2.778   3.530  0.2256 -0.4813  0.5543
 8053TIP3    H145574   3.010   2.734   3.451 -0.5875 -0.9341  0.4704
 8053TIP3    H245575   3.015   2.867   3.524  3.7008 -1.6613  1.7950
 8054TIP3   OH245576   0.701   6.348   4.376  0.3047 -0.5113 -0.5563
 8054TIP3    H145577   0.712   6.404   4.299 -0.0784 -1.3987 -1.2713
 8054TIP3    H245578   0.607   6.331   4.380  0.3715 -0.8099 -0.1237
 8055TIP3   OH245579   6.332   2.741  14.086 -0.2106 -0.0092  0.4001
 8055TIP3    H145580   6.241   2.750  14.113  0.4378  1.1263  2.4873
 8055TIP3    H245581   6.382   2.747  14.168  1.9213  2.8245 -0.9150
 8056TIP3   OH245582   1.383   3.390  11.637  0.6354 -0.1451  0.1782
 8056TIP3    H145583   1.339   3.337  11.704 -0.4296 -0.7970 -0.9809
 8056TIP3    H245584   1.426   3.325  11.580  0.3377  0.2964 -0.5630
 8057TIP3   OH245585   2.921   5.066   0.560 -0.6912  0.4856  0.5686
 8057TIP3    H145586   2.955   5.095   0.475 -0.6822 -1.2218 -0.0395
 8057TIP3    H245587   2.996   5.026   0.604 -0.9851  0.2671  0.8744
 8058TIP3   OH245588   5.990   5.724   4.829 -0.0332 -0.0846  0.5399
 8058TIP3    H145589   5.927   5.774   4.880  0.6612  0.9234  0.4311
 8058TIP3    H245590   6.075   5.752   4.861  0.3822 -1.6162  0.8647
 8059TIP3   OH245591   1.540   3.417   5.337  0.2892  0.5617  0.5821
 8059TIP3    H145592   1.632   3.441   5.349  1.1049 -1.2847 -1.4038
 8059TIP3    H245593   1.541   3.321   5.332 -1.7256  0.5209  0.3654
 8060TIP3   OH245594   3.382   2.934   6.769  0.4585 -0.0423  0.0880
 8060TIP3    H145595   3.470   2.971   6.782  1.5388 -2.3807  0.0007
 8060TIP3    H245596   3.391   2.881   6.689 -0.4659 -1.8276  1.1149
 8061TIP3   OH245597   3.295   0.472   5.730 -0.3430  0.1149  0.5898
 8061TIP3    H145598   3.315   0.378   5.740  1.2375  0.6154  2.9884
 8061TIP3    H245599   3.255   0.497   5.813  0.2672  1.8081  0.4117
 8062TIP3   OH245600   0.063   5.573  14.857 -0.3565 -0.2407 -0.5313
 8062TIP3    H145601   0.131   5.633  14.826 -0.6046 -0.4050 -1.4229
 8062TIP3    H245602   0.082   5.562  14.950 -0.0322  0.8470 -0.4522
 8063TIP3   OH245603   5.509   2.305  10.993 -0.6714  0.1806 -0.2737
 8063TIP3    H145604   5.504   2.374  11.060 -1.8898  0.2879 -0.4515
 8063TIP3    H245605   5.593   2.320  10.950  1.3558 -1.4310  2.8189
 8064TIP3   OH245606   6.408   2.725   2.470  0.0666  0.5460 -0.6023
 8064TIP3    H145607   6.442   2.774   2.395  1.8363  1.5197  0.7359
 8064TIP3    H245608   6.480   2.667   2.495 -0.7018 -0.1745 -0.0080
 8065TIP3   OH245609   5.128   6.460   3.673 -0.5209  0.1174  0.8720
 8065TIP3    H145610   5.221   6.441   3.691 -0.0084  1.5225 -0.1538
 8065TIP3    H245611   5.096   6.497   3.755  0.2178  0.9617  0.7918
 8066TIP3   OH245612   6.162   5.074   3.288 -0.0190 -0.7628 -0.2790
 8066TIP3    H145613   6.129   5.114   3.207  0.4102  0.5741  0.1769
 8066TIP3    H245614   6.090   5.086   3.351  0.5431  0.3957  0.1781
 8067TIP3   OH245615   2.462   0.574  13.763 -1.0813 -0.1413 -0.2231
 8067TIP3    H145616   2.526   0.629  13.718 -1.9873  0.5327 -0.7402
 8067TIP3    H245617   2.498   0.486  13.758 -0.7076  0.0552 -1.4604
 8068TIP3   OH245618   1.273   2.877  15.020 -0.6351 -1.3916 -0.2138
 8068TIP3    H145619   1.347   2.912  15.069 -1.7372  0.4037  0.2308
 8068TIP3    H245620   1.302   2.879  14.929 -0.4252  0.0702 -0.1265
 8069TIP3   OH245621   4.822   2.996  15.611  0.0012 -0.3129  0.2963
 8069TIP3    H145622   4.797   2.912  15.648  1.7132  0.1613  2.8535
 8069TIP3    H245623   4.762   3.010  15.538 -0.8527 -3.3343  0.3063
 8070TIP3   OH245624   5.169   2.192   4.410 -0.7010 -0.2366  0.0627
 8070TIP3    H145625   5.237   2.135   4.375  0.5116  0.1372  1.6682
 8070TIP3    H245626   5.122   2.225   4.333  0.6914 -0.8105 -1.0623
 8071TIP3   OH245627   3.064   3.034  15.726 -0.1294  0.2384  0.2916
 8071TIP3    H145628   3.075   3.084  15.646 -0.5550  1.2313  0.8434
 8071TIP3    H245629   3.143   2.980  15.732  0.6835  1.3754  0.0658
 8072TIP3   OH245630   2.706   0.614  13.942 -0.7931  0.0494 -0.3085
 8072TIP3    H145631   2.714   0.536  13.887 -0.3471 -0.6857  0.7669
 8072TIP3    H245632   2.760   0.679  13.898 -0.8690 -0.3566 -1.0235
 8073TIP3   OH245633   4.923   4.894   2.532  0.5005  0.0579  0.8849
 8073TIP3    H145634   4.993   4.957   2.516  0.1837  0.2912  0.4111
 8073TIP3    H245635   4.967   4.809   2.529  0.7735  0.2055  0.6377
 8074TIP3   OH245636   3.628   3.952  16.087 -0.3231 -0.5494  0.0286
 8074TIP3    H145637   3.643   3.973  15.995 -1.9201  2.1080  0.2603
 8074TIP3    H245638   3.702   3.991  16.134 -0.2323 -0.6708 -0.0130
 8075TIP3   OH245639   3.899   1.837   3.713  0.1474  0.1808  0.0532
 8075TIP3    H145640   3.972   1.892   3.740  1.2020 -1.6155  1.0793
 8075TIP3    H245641   3.861   1.805   3.795  0.8581 -2.1937 -0.4866
 8076TIP3   OH245642   4.391   0.187  15.584  0.1250 -0.0802  0.4723
 8076TIP3    H145643   4.384   0.260  15.522  0.7333 -1.5040 -1.3644
 8076TIP3    H245644   4.302   0.175  15.617 -0.2168  0.7290 -0.1196
 8077TIP3   OH245645   4.233   2.536   3.031  0.0252 -0.0320  0.1121
 8077TIP3    H145646   4.189   2.573   3.108  0.2694  0.7919 -0.1313
 8077TIP3    H245647   4.323   2.570   3.037 -0.0925  0.4817 -0.8080
 8078TIP3   OH245648   1.220   6.230  15.047 -0.0447 -0.2376  1.2501
 8078TIP3    H145649   1.155   6.215  15.116 -1.1239  0.7278  0.4778
 8078TIP3    H245650   1.295   6.177  15.074 -1.9464 -3.3509  0.9661
 8079TIP3   OH245651   3.941   6.567  15.894 -0.5878  0.0514  0.1431
 8079TIP3    H145652   3.874   6.501  15.873 -1.7154  0.8838  1.0476
 8079TIP3    H245653   3.906   6.615  15.969  0.3401  1.4965 -0.3017
 8080TIP3   OH245654   5.022   6.728  13.457 -0.2816 -0.1105  0.7113
 8080TIP3    H145655   4.994   6.814  13.488 -2.8222 -0.7827  0.5367
 8080TIP3    H245656   5.062   6.687  13.534 -0.8638  0.5168  1.3685
 8081TIP3   OH245657   1.317   4.539  11.133  0.3993 -0.5619 -0.1524
 8081TIP3    H145658   1.235   4.496  11.159 -0.7844  1.6181 -0.0501
 8081TIP3    H245659   1.321   4.527  11.038  0.1407 -0.9606 -0.1186
 8082TIP3   OH245660   1.808   5.045   3.315  0.3276 -0.4516  0.4805
 8082TIP3    H145661   1.887   5.080   3.354 -0.4224  0.4449  1.2438
 8082TIP3    H245662   1.763   5.000   3.387  1.3092 -3.2177 -0.4743
 8083TIP3   OH245663   1.769   5.522   1.639  0.1719  0.4878 -0.2339
 8083TIP3    H145664   1.758   5.569   1.556 -0.6412  0.1238 -0.3435
 8083TIP3    H245665   1.696   5.552   1.694 -0.5419 -0.8293 -0.4069
 8084TIP3   OH245666   5.790   4.575   2.148 -0.3900  0.1365  0.7821
 8084TIP3    H145667   5.696   4.592   2.145 -0.3529  0.5799  1.7174
 8084TIP3    H245668   5.802   4.525   2.229  0.4293  1.8248  1.7534
 8085TIP3   OH245669   0.319   4.242   4.880 -0.1139 -0.7638  0.1616
 8085TIP3    H145670   0.271   4.323   4.869  0.1041 -0.6814 -0.2055
 8085TIP3    H245671   0.256   4.173   4.857  0.0071 -0.6455 -0.5306
 8086TIP3   OH245672   0.779   1.832   2.912 -0.0481 -0.1619  0.0872
 8086TIP3    H145673   0.705   1.861   2.966 -1.2216  0.2414 -1.6634
 8086TIP3    H245674   0.751   1.848   2.822  1.2103 -2.2463 -0.7522
 8087TIP3   OH245675   1.785   4.356  15.275 -0.1183  0.0276  0.3160
 8087TIP3    H145676   1.754   4.282  15.223  0.8425  0.9185 -1.6359
 8087TIP3    H245677   1.845   4.317  15.339  0.0416 -0.9194 -0.3871
 8088TIP3   OH245678   4.854   4.507   1.076 -0.3177  0.8896 -0.1012
 8088TIP3    H145679   4.943   4.496   1.111 -0.3365  0.7278 -0.1030
 8088TIP3    H245680   4.799   4.512   1.154 -1.1213 -4.9854  0.1266
 8089TIP3   OH245681   0.132   0.210  16.068 -0.3741 -0.1967  0.1599
 8089TIP3    H145682   0.150   0.210  16.162  0.2936  1.9931  0.0781
 8089TIP3    H245683   0.051   0.160  16.059 -0.6537 -0.1199  1.9396
 8090TIP3   OH245684   2.491   1.745  11.841 -0.4766  0.3911  0.2016
 8090TIP3    H145685   2.538   1.715  11.919  2.4175  0.5929 -1.2969
 8090TIP3    H245686   2.470   1.664  11.794  0.1223  0.3651 -0.0296
 8091TIP3   OH245687   4.866   5.735   1.746 -0.0474  0.1524 -0.1365
 8091TIP3    H145688   4.847   5.717   1.838  0.0447 -0.4617 -0.2349
 8091TIP3    H245689   4.804   5.804   1.722 -1.1166 -0.7542 -0.0401
 8092TIP3   OH245690   5.819   3.361  14.193 -0.3210 -0.2325  0.1422
 8092TIP3    H145691   5.754   3.410  14.143  0.7782  0.9824 -0.1249
 8092TIP3    H245692   5.771   3.285  14.226 -1.1822 -0.9023 -2.4274
 8093TIP3   OH245693   6.012   3.784   5.591  0.3948 -0.0572  0.6705
 8093TIP3    H145694   6.081   3.766   5.656  0.2452 -0.6106  0.6830
 8093TIP3    H245695   5.939   3.818   5.643 -0.6632 -2.8738  1.1941
 8094TIP3   OH245696   6.657   6.556  13.522 -0.0280 -0.4235 -0.0501
 8094TIP3    H145697   6.632   6.552  13.614 -1.2155  1.0422 -0.2573
 8094TIP3    H245698   6.728   6.621  13.519  0.8546 -1.3690 -0.0298
 8095TIP3   OH245699   4.832   3.824  14.578  0.3344  0.6967  0.4896
 8095TIP3    H145700   4.771   3.785  14.515  0.1778  1.0448  0.4262
 8095TIP3    H245701   4.795   3.910  14.597  0.9830  1.0388  0.2090
 8096TIP3   OH245702   0.327   3.247  12.916 -0.2748 -0.0410 -0.5498
 8096TIP3    H145703   0.339   3.152  12.907  0.5573 -0.0372  0.4350
 8096TIP3    H245704   0.349   3.281  12.829  1.4545 -0.5823 -0.3731
 8097TIP3   OH245705   1.925   1.846  16.686  0.2925 -0.3513 -0.0935
 8097TIP3    H145706   1.834   1.851  16.655  0.2006 -1.3663 -0.0251
 8097TIP3    H245707   1.972   1.909  16.632 -0.8103  1.7630  1.2480
 8098TIP3   OH245708   6.548   0.600   0.173  0.2356 -0.1893  0.4015
 8098TIP3    H145709   6.584   0.594   0.084  2.2293 -0.3183  1.1497
 8098TIP3    H245710   6.583   0.523   0.218 -1.6796 -0.7417  1.0170
 8099TIP3   OH245711   6.465   5.628   1.942  0.7083  0.3122  0.5577
 8099TIP3    H145712   6.514   5.627   2.024  1.4154 -2.4514  0.2201
 8099TIP3    H245713   6.454   5.535   1.920 -0.3064  0.9491 -1.9671
 8100TIP3   OH245714   2.819   6.623  12.979 -0.3990  0.3741  1.1199
 8100TIP3    H145715   2.876   6.555  12.942  0.6344  0.9960  1.5130
 8100TIP3    H245716   2.850   6.633  13.069 -1.1485  0.7286  1.3448
 8101TIP3   OH245717   3.599   2.115  15.264 -0.0209 -0.0106 -0.7869
 8101TIP3    H145718   3.543   2.132  15.339 -0.1824  0.4611 -1.0109
 8101TIP3    H245719   3.637   2.029  15.281 -0.6801 -0.2608 -0.5507
 8102TIP3   OH245720   2.330   6.363  13.855  0.0027  0.8906 -0.2510
 8102TIP3    H145721   2.256   6.413  13.820 -0.9360  0.4275  0.9836
 8102TIP3    H245722   2.386   6.347  13.779 -1.6775  0.3737 -1.4584
 8103TIP3   OH245723   5.924   3.555  10.452 -0.6681  0.0609  0.6042
 8103TIP3    H145724   5.850   3.495  10.457 -0.5187 -0.4091 -1.8078
 8103TIP3    H245725   5.992   3.514  10.506 -1.2455 -0.8941  0.6242
 8104TIP3   OH245726   1.260   2.602   1.299 -0.1614  0.2515 -0.5227
 8104TIP3    H145727   1.274   2.525   1.244  1.8783 -0.4699  0.8891
 8104TIP3    H245728   1.319   2.668   1.261  2.3044 -0.6681  1.4571
 8105TIP3   OH245729   1.351   3.314   2.370 -0.9084  0.1958  0.1518
 8105TIP3    H145730   1.415   3.366   2.419  0.8620  1.8570 -3.5799
 8105TIP3    H245731   1.372   3.223   2.392  0.1839  0.8242  1.9211
 8106TIP3   OH245732   3.367   6.718   1.166 -0.5878 -0.7747 -0.1466
 8106TIP3    H145733   3.418   6.641   1.140  2.6029  2.0063 -3.0161
 8106TIP3    H245734   3.309   6.735   1.092 -0.9900 -0.1661  0.2981
 8107TIP3   OH245735   1.109   0.206  12.202 -0.1761 -0.1172  0.5880
 8107TIP3    H145736   1.144   0.287  12.241  0.1515  0.6870 -1.2708
 8107TIP3    H245737   1.181   0.144  12.207 -0.4917 -0.3875  2.2067
 8108TIP3   OH245738   4.664   4.598   5.110  0.2251  0.0439 -0.1302
 8108TIP3    H145739   4.739   4.542   5.092 -0.3492 -0.9544  0.5368
 8108TIP3    H245740   4.641   4.581   5.201  0.2712  1.6588  0.2164
 8109TIP3   OH245741   5.981   6.175   4.606 -0.1993 -0.1515 -0.1332
 8109TIP3    H145742   6.062   6.170   4.555 -0.4922 -0.4781 -0.5731
 8109TIP3    H245743   6.010   6.190   4.696  0.3427 -0.0931 -0.3134
 8110TIP3   OH245744   6.125   2.398  15.014  0.3657  0.1226 -0.4361
 8110TIP3    H145745   6.091   2.374  15.100  1.6413  0.3846  0.1669
 8110TIP3    H245746   6.201   2.342  15.001 -0.4098 -0.6592 -1.8853
 8111TIP3   OH245747   0.590   0.518  16.453  0.0214  0.2451  0.0219
 8111TIP3    H145748   0.610   0.481  16.539  1.3223  1.8965  0.4712
 8111TIP3    H245749   0.500   0.550  16.462 -0.3894 -0.9256  0.2639
 8112TIP3   OH245750   4.744   3.468   2.044 -0.0406 -0.0362 -0.1651
 8112TIP3    H145751   4.776   3.522   2.117 -0.8255 -0.1174  0.2463
 8112TIP3    H245752   4.800   3.493   1.970 -0.8133  1.8655 -0.1772
 8113TIP3   OH245753   5.395   1.460  15.031 -1.0802 -0.4321 -0.7633
 8113TIP3    H145754   5.331   1.389  15.030 -0.6954 -0.7759 -0.7542
 8113TIP3    H245755   5.469   1.426  15.080 -0.9167 -0.0037 -0.7079
 8114TIP3   OH245756   1.073   2.144   0.284  0.2456  0.5070 -0.1261
 8114TIP3    H145757   1.110   2.057   0.299  0.0682  0.6533  1.2731
 8114TIP3    H245758   1.050   2.176   0.371 -1.4785  1.1766 -0.7850
 8115TIP3   OH245759   0.349   4.476   3.006  0.1764  0.0099  0.2262
 8115TIP3    H145760   0.265   4.429   3.005  1.4006 -2.4527 -2.1036
 8115TIP3    H245761   0.407   4.419   3.057  1.0241  0.3794 -0.3062
 8116TIP3   OH245762   2.094   5.238  11.232 -0.0455 -0.0133  0.2411
 8116TIP3    H145763   2.121   5.173  11.298 -1.5635 -1.4887 -0.5226
 8116TIP3    H245764   2.172   5.250  11.178 -0.3711 -3.2525 -1.1872
 8117TIP3   OH245765   2.827   3.481  11.725 -0.3379  0.1415 -0.1460
 8117TIP3    H145766   2.892   3.472  11.656  0.5840 -0.3392  0.7666
 8117TIP3    H245767   2.866   3.439  11.801 -1.9491 -0.6724  0.2804
 8118TIP3   OH245768   1.037   1.562  10.533 -0.2108  0.0286 -0.3609
 8118TIP3    H145769   0.986   1.578  10.613 -0.1389 -2.8640  0.3750
 8118TIP3    H245770   0.973   1.566  10.463 -0.4276  1.8026 -0.0982
 8119TIP3   OH245771   1.327   1.252  10.877 -0.1179 -0.0608 -0.1687
 8119TIP3    H145772   1.300   1.211  10.795 -2.1281 -0.6828  0.7310
 8119TIP3    H245773   1.413   1.289  10.858 -1.0838  1.0645 -2.9943
 8120TIP3   OH245774   0.813   1.665  14.828  0.3885 -0.4632 -0.5033
 8120TIP3    H145775   0.844   1.734  14.887  0.0619  0.0878 -0.9607
 8120TIP3    H245776   0.735   1.630  14.871 -0.2827  0.4464 -0.9435
 8121TIP3   OH245777   0.304   0.054  17.158 -0.8148  0.3084 -0.3040
 8121TIP3    H145778   0.330   0.039  17.249 -0.9702  1.9103  0.0329
 8121TIP3    H245779   0.303  -0.033  17.119  1.2538 -0.2159  0.6765
 8122TIP3   OH245780   2.672   2.046  16.375  0.1225 -0.4220  0.1740
 8122TIP3    H145781   2.673   2.051  16.279  4.6635 -0.3473  0.0053
 8122TIP3    H245782   2.688   2.136  16.403  0.2429 -0.6724  0.9210
 8123TIP3   OH245783   0.174   4.375   1.711 -0.6422  0.0558  0.1595
 8123TIP3    H145784   0.172   4.437   1.638 -1.1817  1.2398  1.1485
 8123TIP3    H245785   0.140   4.424   1.786 -0.5707 -1.2761  1.1089
 8124TIP3   OH245786   1.670   3.978   5.407 -0.5745 -0.2494 -0.1751
 8124TIP3    H145787   1.625   4.041   5.351 -1.2104  1.0645  1.6808
 8124TIP3    H245788   1.761   3.981   5.377  0.5976  5.1685  2.4590
 8125TIP3   OH245789   4.340   6.467   3.865 -0.4668 -0.1657  0.3815
 8125TIP3    H145790   4.381   6.554   3.861  1.1635 -0.8458  1.3248
 8125TIP3    H245791   4.267   6.478   3.926 -0.6628  0.6624  0.0202
 8126TIP3   OH245792   6.244   3.791  12.808  1.0983  0.0757 -0.2386
 8126TIP3    H145793   6.287   3.711  12.837 -0.5825 -0.3753  1.2170
 8126TIP3    H245794   6.272   3.858  12.870  0.5984  0.0246  0.0532
 8127TIP3   OH245795   3.735   2.920   5.015 -0.0292 -0.8134  0.4095
 8127TIP3    H145796   3.712   2.843   4.962  2.9692 -2.0058  0.6804
 8127TIP3    H245797   3.681   2.912   5.093 -3.0232 -0.1310 -1.4155
 8128TIP3   OH245798   4.639   5.908  15.392 -0.2458 -0.2578  0.1810
 8128TIP3    H145799   4.562   5.875  15.438 -1.9231  0.1328 -2.1268
 8128TIP3    H245800   4.656   5.842  15.325 -0.6137  1.1394 -1.3599
 8129TIP3   OH245801   4.146   3.925   1.238 -0.1741 -0.2890  0.3578
 8129TIP3    H145802   4.222   3.877   1.270 -0.5615 -1.0922  0.1125
 8129TIP3    H245803   4.071   3.879   1.277 -0.6747 -1.4279 -1.7680
 8130TIP3   OH245804   3.024   5.566   5.878  0.0712  0.1489  0.3329
 8130TIP3    H145805   2.960   5.522   5.934 -0.0938  0.7121  0.5979
 8130TIP3    H245806   3.066   5.495   5.830 -2.0991 -0.1423 -1.3054
 8131TIP3   OH245807   4.771   6.051  15.580  0.4491 -0.0086  0.2198
 8131TIP3    H145808   4.862   6.033  15.606 -0.0832 -3.1582  0.2900
 8131TIP3    H245809   4.758   5.998  15.502 -0.4004  3.0904 -1.8947
 8132TIP3   OH245810   1.125   1.622  11.057 -0.2307 -0.3742  0.0111
 8132TIP3    H145811   1.074   1.557  11.009 -0.0586 -0.8550  0.4666
 8132TIP3    H245812   1.214   1.587  11.057 -0.2153 -0.3407  0.6065
 8133TIP3   OH245813   4.839   3.537  16.930  0.2607  0.2779  0.5276
 8133TIP3    H145814   4.915   3.550  16.873 -0.2541 -1.7453 -0.7188
 8133TIP3    H245815   4.876   3.527  17.017  1.1506  2.2761  0.4390
 8134TIP3   OH245816   1.526   5.490   4.224 -0.3308 -0.3567 -0.2112
 8134TIP3    H145817   1.458   5.447   4.171 -0.2273 -1.3340  0.4324
 8134TIP3    H245818   1.483   5.509   4.307 -0.4594  1.0853 -0.5773
 8135TIP3   OH245819   0.996   3.333  16.393 -0.0782  0.1784 -0.2926
 8135TIP3    H145820   1.017   3.316  16.485 -0.5375 -0.9671 -0.3868
 8135TIP3    H245821   1.001   3.428  16.384  2.8259  0.1680  0.2289
 8136TIP3   OH245822   5.136   5.380   4.166 -0.0092 -0.2386 -0.0264
 8136TIP3    H145823   5.148   5.430   4.085  0.8730 -0.8245 -0.2599
 8136TIP3    H245824   5.180   5.432   4.233 -2.3157  1.2108  0.4811
 8137TIP3   OH245825   4.205   4.285  12.306  0.2065 -0.2010 -0.1579
 8137TIP3    H145826   4.177   4.239  12.385 -1.0658  0.1011 -0.4211
 8137TIP3    H245827   4.269   4.349  12.336  0.2307 -0.5503  0.5338
 8138TIP3   OH245828   4.833   6.604  12.950  0.2753 -0.0632 -0.0510
 8138TIP3    H145829   4.857   6.674  12.889  0.3584 -0.3379 -0.3320
 8138TIP3    H245830   4.912   6.551  12.959  0.2040 -0.1387  0.1400
 8139TIP3   OH245831   6.527   5.195   4.961  0.0749 -0.0350 -0.3875
 8139TIP3    H145832   6.589   5.254   5.003 -0.3902  1.5327 -1.7966
 8139TIP3    H245833   6.558   5.107   4.984  0.1167  0.6895  2.7264
 8140TIP3   OH245834   3.596   3.063   5.616  0.0390  0.0809 -0.0788
 8140TIP3    H145835   3.662   2.998   5.642  1.0623  1.0419 -0.2041
 8140TIP3    H245836   3.602   3.131   5.683 -3.3806 -1.4116  2.0134
 8141TIP3   OH245837   2.554   3.913  13.187 -0.3996 -0.5852 -0.2969
 8141TIP3    H145838   2.538   3.948  13.100 -1.1499 -0.2512 -0.0331
 8141TIP3    H245839   2.647   3.929  13.203 -0.3199 -0.4102 -0.9311
 8142TIP3   OH245840   6.336   0.704   3.286 -0.0231 -0.0094  0.0263
 8142TIP3    H145841   6.284   0.718   3.365 -0.6168  0.5486 -0.4591
 8142TIP3    H245842   6.311   0.775   3.228 -0.6906 -1.2561 -1.2493
 8143TIP3   OH245843   5.849   4.252  14.502 -0.0124 -0.1076 -0.0654
 8143TIP3    H145844   5.921   4.274  14.561 -0.3108  0.1635  0.2038
 8143TIP3    H245845   5.889   4.249  14.415  0.3654 -0.1784  0.1074
 8144TIP3   OH245846   4.296   6.653   4.951  0.2101  0.1482  0.1400
 8144TIP3    H145847   4.306   6.707   4.873  1.5987  0.7044  0.6556
 8144TIP3    H245848   4.329   6.567   4.926  0.6005  0.3112  0.0815
 8145TIP3   OH245849   3.558   5.263   0.944  0.6107  0.0236  0.2690
 8145TIP3    H145850   3.497   5.207   0.991 -0.0708  0.5395  0.0222
 8145TIP3    H245851   3.596   5.319   1.012  1.2354 -0.6792  0.5031
 8146TIP3   OH245852   0.870   3.292  16.751 -0.4617 -0.0266 -0.1861
 8146TIP3    H145853   0.782   3.280  16.715 -0.6539  1.1969 -0.1731
 8146TIP3    H245854   0.915   3.208  16.735 -1.6017 -0.6428 -0.2469
 8147TIP3   OH245855   0.928   5.030   2.662  0.0541 -0.7314  0.2301
 8147TIP3    H145856   0.990   5.098   2.692  0.3092 -0.9984  0.3168
 8147TIP3    H245857   0.918   5.046   2.568 -1.1277  0.4173  0.5310
 8148TIP3   OH245858   1.863   0.632   3.588 -0.0871 -0.2440 -0.1555
 8148TIP3    H145859   1.949   0.671   3.603  0.4084 -1.0591 -0.7715
 8148TIP3    H245860   1.810   0.662   3.662  0.2878  1.4799 -0.5578
 8149TIP3   OH245861   2.248   0.474   3.509 -0.2569 -0.2811  0.2836
 8149TIP3    H145862   2.256   0.567   3.533  1.8938  0.1053 -1.6411
 8149TIP3    H245863   2.185   0.474   3.437 -0.2221 -0.3086  0.2533
 8150TIP3   OH245864   6.463   4.862   1.717 -0.3044  0.7896 -0.1193
 8150TIP3    H145865   6.488   4.859   1.625 -0.7403 -1.0247 -0.2253
 8150TIP3    H245866   6.380   4.910   1.718 -0.3126  0.7907 -0.6688
 8151TIP3   OH245867   2.247   1.577  11.025 -0.1510  0.5678  0.4582
 8151TIP3    H145868   2.206   1.661  11.045 -0.8090 -0.0394  1.7841
 8151TIP3    H245869   2.340   1.592  11.041 -0.3631  0.8229  1.5173
 8152TIP3   OH245870   5.445   2.031  12.355  0.3431 -0.7375  0.5479
 8152TIP3    H145871   5.405   2.029  12.268  0.6564 -0.1537  0.3826
 8152TIP3    H245872   5.432   1.943  12.390 -0.8334 -0.6497  0.3886
 8153TIP3   OH245873   5.668   3.044  12.285  0.0068  0.0607 -0.0985
 8153TIP3    H145874   5.753   3.025  12.325  0.4425  1.1624 -0.4641
 8153TIP3    H245875   5.689   3.069  12.195 -0.8427 -1.0265 -0.6226
 8154TIP3   OH245876   0.389   0.670  16.762  0.4628 -0.2346  0.1940
 8154TIP3    H145877   0.447   0.620  16.820  1.6086  0.1855 -0.5451
 8154TIP3    H245878   0.366   0.748  16.812  1.3335  0.0614  0.1487
 8155TIP3   OH245879   5.031   6.378  15.387  0.4455 -0.0500  0.1082
 8155TIP3    H145880   5.116   6.385  15.344  0.2537 -0.5342 -0.3484
 8155TIP3    H245881   5.040   6.303  15.446  0.1858 -0.3899 -0.2836
 8156TIP3   OH245882   1.362   1.114  13.053 -0.8290  0.3799 -0.3477
 8156TIP3    H145883   1.288   1.174  13.043  0.1912  1.5500 -1.2263
 8156TIP3    H245884   1.431   1.152  12.999  1.0395  0.3791  1.8613
 8157TIP3   OH245885   4.109   2.353   0.625 -0.5581 -0.7565 -0.1414
 8157TIP3    H145886   4.073   2.271   0.592  0.9504 -1.0584 -1.1349
 8157TIP3    H245887   4.034   2.412   0.629 -1.6131 -2.0759  0.3020
 8158TIP3   OH245888   0.550   5.503  10.480 -0.0294 -0.7668 -0.7150
 8158TIP3    H145889   0.537   5.429  10.421 -1.4146 -2.0928  1.1226
 8158TIP3    H245890   0.473   5.559  10.466  0.0048 -0.7135 -0.6897
 8159TIP3   OH245891   5.100   4.102  10.791  0.3673 -0.6832  0.4799
 8159TIP3    H145892   5.036   4.031  10.780 -1.3570  1.0000 -1.2019
 8159TIP3    H245893   5.167   4.083  10.725 -0.4033 -0.4730 -0.3929
 8160TIP3   OH245894   0.021   0.243   3.555  0.6526  0.1149 -0.1856
 8160TIP3    H145895  -0.053   0.298   3.528  0.3991 -0.8457 -1.5785
 8160TIP3    H245896   0.082   0.304   3.597  0.3938  1.4855 -1.6866
 8161TIP3   OH245897   1.210   6.038  10.805 -0.5959  0.0448  0.0816
 8161TIP3    H145898   1.122   6.020  10.772 -0.1857  1.0425 -1.6144
 8161TIP3    H245899   1.235   6.122  10.767  0.3271  0.7874  2.1554
 8162TIP3   OH245900   6.038   5.512  13.372 -0.2871  0.4315  1.1435
 8162TIP3    H145901   6.034   5.519  13.277 -2.0563 -1.2817  1.0229
 8162TIP3    H245902   6.103   5.577  13.398  1.6808 -0.3514 -1.3650
 8163TIP3   OH245903   2.766   1.158   0.299  0.0093  0.3590  0.3927
 8163TIP3    H145904   2.746   1.138   0.208  1.2168  1.7936 -0.2355
 8163TIP3    H245905   2.706   1.229   0.323 -0.1790  0.1142  0.6533
 8164TIP3   OH245906   0.727   0.446   6.081  0.4024 -0.0578  0.9592
 8164TIP3    H145907   0.638   0.411   6.081  0.4721 -0.2393  0.5755
 8164TIP3    H245908   0.715   0.541   6.080  0.2059 -0.0823  0.2041
 8165TIP3   OH245909   0.857   1.534   4.655 -0.2319  0.1516  0.1600
 8165TIP3    H145910   0.848   1.611   4.599 -0.7393 -2.1458 -3.2181
 8165TIP3    H245911   0.880   1.463   4.595  2.0897 -2.0579  3.3033
 8166TIP3   OH245912   4.354   3.388  12.028  0.6554  0.3202  0.4211
 8166TIP3    H145913   4.317   3.445  12.095  0.3193  0.1530  0.3861
 8166TIP3    H245914   4.415   3.331  12.075 -2.0949 -2.1775  1.3181
 8167TIP3   OH245915   0.747   4.971   2.407  0.2220  0.3528 -0.0257
 8167TIP3    H145916   0.655   4.947   2.394  0.3899  0.3395 -1.3163
 8167TIP3    H245917   0.791   4.887   2.422 -0.1116  0.4467  1.6489
 8168TIP3   OH245918   3.350   6.196   4.171  0.0610 -0.1567 -0.3096
 8168TIP3    H145919   3.439   6.215   4.202 -0.6894  0.1861  1.7517
 8168TIP3    H245920   3.355   6.210   4.076  2.5619 -1.5969 -0.4890
 8169TIP3   OH245921   3.134   1.202  14.290 -0.3418  0.3767  0.4553
 8169TIP3    H145922   3.196   1.273  14.307  0.2189  0.5788 -1.9778
 8169TIP3    H245923   3.188   1.130  14.257 -1.2048 -0.1460  0.1360
 8170TIP3   OH245924   1.436   0.473   4.069  0.0780 -0.4172 -0.0384
 8170TIP3    H145925   1.518   0.479   4.021 -0.2851  1.4939 -0.5153
 8170TIP3    H245926   1.427   0.558   4.111 -2.1215 -0.2067 -0.8032
 8171TIP3   OH245927   2.658   1.537  16.378  0.1839 -0.5697 -0.4453
 8171TIP3    H145928   2.695   1.467  16.430  0.6233 -0.7320 -0.9598
 8171TIP3    H245929   2.583   1.568  16.428 -0.0465 -1.4410 -0.2356
 8172TIP3   OH245930   0.042   2.085  10.431 -0.2503 -0.2787 -0.0175
 8172TIP3    H145931  -0.001   2.034  10.500  1.7803  0.9617  2.3072
 8172TIP3    H245932   0.045   2.026  10.356 -1.7379 -2.0278  1.2101
 8173TIP3   OH245933   3.473   5.514  11.914 -0.0183 -0.0312 -0.1412
 8173TIP3    H145934   3.494   5.540  12.004 -2.2321  1.5747 -0.0118
 8173TIP3    H245935   3.489   5.592  11.862 -0.2614 -0.4809 -0.9036
 8174TIP3   OH245936   0.650   6.349  10.765 -0.5063  0.4196 -0.4224
 8174TIP3    H145937   0.708   6.424  10.756 -0.3625  0.5560  1.2724
 8174TIP3    H245938   0.690   6.280  10.712  0.1469  1.0970 -0.8246
 8175TIP3   OH245939   4.911   3.770  12.929  0.7017  0.0168 -0.4584
 8175TIP3    H145940   4.899   3.790  12.836 -2.0346 -1.2104 -0.4621
 8175TIP3    H245941   4.881   3.679  12.938 -1.1312  0.7609  1.9477
 8176TIP3   OH245942   5.822   6.709   1.949 -0.0875 -0.2851  0.0067
 8176TIP3    H145943   5.819   6.771   2.022 -0.1169 -0.4536  0.1490
 8176TIP3    H245944   5.886   6.746   1.888 -0.1203 -0.1052  0.0824
 8177TIP3   OH245945   0.519   3.696   0.492  0.4532  0.1137 -0.3209
 8177TIP3    H145946   0.484   3.678   0.405 -1.4368  0.0908  0.3879
 8177TIP3    H245947   0.481   3.628   0.548 -0.3737  1.5520  0.9417
 8178TIP3   OH245948   1.329   4.783  16.363  0.3352 -0.2189  0.1165
 8178TIP3    H145949   1.235   4.801  16.368 -0.0227 -0.3077 -3.3965
 8178TIP3    H245950   1.337   4.691  16.386 -0.4883 -0.2784  0.2008
 8179TIP3   OH245951   0.586   0.393  13.137 -0.1448  0.4182 -0.2897
 8179TIP3    H145952   0.531   0.458  13.093  2.7504  2.6437 -0.9438
 8179TIP3    H245953   0.622   0.439  13.212 -0.5127 -1.5575  1.1788
 8180TIP3   OH245954   5.510   0.901   3.337  0.2759  0.1770  0.0531
 8180TIP3    H145955   5.416   0.917   3.334  0.5457  2.3455  1.2044
 8180TIP3    H245956   5.549   0.986   3.359  2.5185 -0.6344 -0.4468
 8181TIP3   OH245957   3.979   0.363   4.334  0.2946 -0.1012 -0.5263
 8181TIP3    H145958   3.965   0.436   4.274  1.8581  0.4638 -0.2705
 8181TIP3    H245959   3.897   0.355   4.382 -1.3709 -1.1875 -3.2958
 8182TIP3   OH245960   2.828   5.552   4.931  0.1104  0.4181 -0.0127
 8182TIP3    H145961   2.740   5.531   4.961  0.1389  0.3233  0.0059
 8182TIP3    H245962   2.815   5.599   4.848  0.0662 -0.6064 -0.6100
 8183TIP3   OH245963   5.992   3.553   6.431  0.5236 -0.2035 -0.3367
 8183TIP3    H145964   6.024   3.485   6.371  0.9694 -0.9821  0.7508
 8183TIP3    H245965   5.934   3.607   6.377  0.9283 -0.8657 -1.4697
 8184TIP3   OH245966   1.155   4.815  16.698  0.3427  0.4526 -0.0738
 8184TIP3    H145967   1.240   4.806  16.742  0.0379 -1.3326  0.2162
 8184TIP3    H245968   1.093   4.831  16.770  0.2609  0.4680 -0.1476
 8185TIP3   OH245969   4.301   0.887   4.842 -0.0068  0.5133 -0.1222
 8185TIP3    H145970   4.211   0.885   4.810 -0.2854  0.7135  0.6079
 8185TIP3    H245971   4.292   0.906   4.936  0.6892 -1.4084  0.3938
 8186TIP3   OH245972   5.843   5.169  15.217  0.3055  0.3615  0.5912
 8186TIP3    H145973   5.764   5.216  15.193 -0.4327 -0.1896  1.8456
 8186TIP3    H245974   5.844   5.170  15.313 -0.0519 -2.6150  0.7297
 8187TIP3   OH245975   6.397   4.410   1.554  0.7077 -0.7413 -0.3988
 8187TIP3    H145976   6.450   4.373   1.483  0.2291  0.8573 -1.6653
 8187TIP3    H245977   6.440   4.493   1.575 -0.7717  0.1941 -0.8861
 8188TIP3   OH245978   5.310   5.696  13.230 -0.7443 -0.2853 -0.6786
 8188TIP3    H145979   5.366   5.773  13.220  0.1919 -0.5705  1.7428
 8188TIP3    H245980   5.228   5.730  13.266 -0.7140 -0.3009 -0.5948
 8189TIP3   OH245981   3.543   2.923   5.230  0.1852  0.4715  0.0881
 8189TIP3    H145982   3.492   2.981   5.288 -1.3407  0.2557 -0.9843
 8189TIP3    H245983   3.502   2.837   5.241 -1.1773  0.7082 -2.4001
 8190TIP3   OH245984   5.738   1.240  17.014 -0.2402  0.4007  0.0975
 8190TIP3    H145985   5.717   1.264  17.105  1.0340  1.7464  0.0668
 8190TIP3    H245986   5.698   1.309  16.961  0.0890  0.3089 -0.2758
 8191TIP3   OH245987   0.542   4.055   1.397 -0.2193  0.0100  0.1091
 8191TIP3    H145988   0.633   4.033   1.377 -0.4700 -1.4550  0.4709
 8191TIP3    H245989   0.549   4.129   1.458  0.6297  1.8487 -2.0753
 8192TIP3   OH245990   3.746   4.162  14.130  0.3306 -0.2132 -0.3238
 8192TIP3    H145991   3.758   4.252  14.102  0.3509 -0.3301 -0.6889
 8192TIP3    H245992   3.825   4.142  14.181 -0.6222  0.6677  1.6019
 8193TIP3   OH245993   0.107   1.570   2.313  0.0670 -0.4549 -0.0739
 8193TIP3    H145994   0.018   1.578   2.280  0.2012 -0.9875 -0.5882
 8193TIP3    H245995   0.162   1.607   2.244  0.0670  4.0094  1.9739
 8194TIP3   OH245996   1.195   5.701  12.716 -0.0124  0.1133  0.3065
 8194TIP3    H145997   1.261   5.632  12.711 -0.3298 -0.1034 -1.3024
 8194TIP3    H245998   1.114   5.655  12.739 -0.4727 -0.2890 -1.8717
 8195TIP3   OH245999   2.769   3.939  11.603 -0.2790  0.0945 -0.2834
 8195TIP3    H146000   2.680   3.952  11.570 -0.4472  0.9174  0.4619
 8195TIP3    H246001   2.781   4.009  11.667  1.3266  0.7445 -1.2153
 8196TIP3   OH246002   2.708   2.102   1.005 -0.4653 -0.6130 -0.1166
 8196TIP3    H146003   2.624   2.057   0.996 -0.4517 -0.4666 -1.0797
 8196TIP3    H246004   2.743   2.104   0.916  0.5546 -0.6647  0.2748
 8197TIP3   OH246005   4.186   6.266  12.127 -0.1504  0.5803  0.6802
 8197TIP3    H146006   4.281   6.252  12.123 -0.0854  0.9162  1.0170
 8197TIP3    H246007   4.156   6.253  12.037  0.4086  1.8070  0.2987
 8198TIP3   OH246008   5.947   6.354   6.094  0.1162 -0.0910 -0.5262
 8198TIP3    H146009   5.967   6.266   6.126  0.1839 -0.2382 -0.9744
 8198TIP3    H246010   6.031   6.388   6.062  0.6328  1.0550  1.8160
 8199TIP3   OH246011   3.124   1.241  14.705  0.3175 -0.5515  0.6879
 8199TIP3    H146012   3.194   1.287  14.660 -0.6284  0.0292 -0.2541
 8199TIP3    H246013   3.091   1.305  14.769  1.2007 -1.1309  1.7528
 8200TIP3   OH246014   1.589   2.778   5.602 -0.5471  0.1413 -0.0677
 8200TIP3    H146015   1.670   2.828   5.593 -0.3452 -0.1934 -0.1132
 8200TIP3    H246016   1.582   2.760   5.696 -1.0163  0.9095  0.0516
 8201TIP3   OH246017   1.213   4.144  17.160 -0.1181 -0.2321 -0.5105
 8201TIP3    H146018   1.161   4.078  17.206 -0.6485  1.0689  0.8303
 8201TIP3    H246019   1.166   4.226  17.174  2.8695  1.2783  1.8840
 8202TIP3   OH246020   5.314   4.551   1.986  0.7008  0.2080  0.5158
 8202TIP3    H146021   5.228   4.592   1.986 -0.4681 -2.1161 -0.2117
 8202TIP3    H246022   5.337   4.541   1.894  1.3921  0.0653  0.6901
 8203TIP3   OH246023   3.228   3.434  12.899  0.1738 -0.2039  0.4745
 8203TIP3    H146024   3.257   3.525  12.887 -1.7736  0.3883 -0.1179
 8203TIP3    H246025   3.298   3.382  12.858  0.2656  1.1524 -1.2402
 8204TIP3   OH246026   4.127   2.396  15.646  0.1197 -0.1856 -0.2607
 8204TIP3    H146027   4.051   2.340  15.660  0.1189  0.0465  0.7393
 8204TIP3    H246028   4.181   2.383  15.724  1.9902 -1.7063 -1.7354
 8205TIP3   OH246029   2.562   6.319   2.338  0.2445 -0.6486  0.5375
 8205TIP3    H146030   2.580   6.227   2.316  2.9250 -0.2224  0.6294
 8205TIP3    H246031   2.586   6.367   2.259  2.1450  0.2191  1.5895
 8206TIP3   OH246032   5.928   6.464  12.709  0.5326 -0.1561  0.2656
 8206TIP3    H146033   5.983   6.524  12.759  1.6040 -0.3429 -0.6439
 8206TIP3    H246034   5.988   6.396  12.678 -0.1191 -0.1562 -1.0855
 8207TIP3   OH246035   0.984   5.854  12.466  0.5106  0.0741 -0.8493
 8207TIP3    H146036   1.076   5.829  12.457  0.4322 -0.2441 -0.7553
 8207TIP3    H246037   0.939   5.807  12.397  0.1961 -0.9109  0.0040
 8208TIP3   OH246038   0.457   6.249   3.020  0.2117 -0.4845  0.5082
 8208TIP3    H146039   0.545   6.285   3.028  0.3717 -0.2530 -1.6652
 8208TIP3    H246040   0.401   6.309   3.069  0.6953  1.9533 -1.7108
 8209TIP3   OH246041   1.665   5.415  15.824 -0.3244 -0.7278  0.2262
 8209TIP3    H146042   1.662   5.320  15.822 -0.5110 -0.7176  0.0099
 8209TIP3    H246043   1.619   5.443  15.745 -1.1441 -0.4408  0.7827
 8210TIP3   OH246044   1.998   4.809   5.907  0.1646  0.1567  0.1505
 8210TIP3    H146045   1.976   4.765   5.989  0.6372  0.9803  0.7442
 8210TIP3    H246046   1.965   4.899   5.919  0.5822  0.3886 -0.4026
 8211TIP3   OH246047   3.512   5.045  12.145  0.4079  0.5088 -0.0279
 8211TIP3    H146048   3.482   4.954  12.146  1.1639  0.2438  0.9562
 8211TIP3    H246049   3.540   5.061  12.235  2.9896  0.7838 -0.8129
 8212TIP3   OH246050   2.873   3.747  12.973 -0.1456  0.2028  0.1707
 8212TIP3    H146051   2.925   3.670  12.952  1.0014  0.7334  0.9858
 8212TIP3    H246052   2.786   3.712  12.993 -0.3518 -0.6226 -1.9123
 8213TIP3   OH246053   4.009   0.851   4.781  0.0932  0.0676  0.4526
 8213TIP3    H146054   4.011   0.946   4.792 -1.4464 -0.0062  1.7344
 8213TIP3    H246055   3.928   0.823   4.824  1.6670 -2.0941  2.2152
 8214TIP3   OH246056   5.554   2.295   3.938  0.1581 -0.3482 -0.0929
 8214TIP3    H146057   5.621   2.272   4.003  0.6778 -0.0626 -0.5164
 8214TIP3    H246058   5.518   2.211   3.910  1.4158 -0.6190 -0.9685
 8215TIP3   OH246059   4.049   1.531   2.564 -0.2449  0.0245 -0.5764
 8215TIP3    H146060   4.045   1.581   2.483 -1.2217  0.6712 -0.1475
 8215TIP3    H246061   4.111   1.578   2.619 -0.9492  0.6302 -0.2801
 8216TIP3   OH246062   3.943   3.766   1.373  0.0662  0.1723  0.2833
 8216TIP3    H146063   3.959   3.713   1.451  1.4812 -0.2841 -0.2802
 8216TIP3    H246064   3.885   3.712   1.319  0.8572 -0.4861  0.0652
 8217TIP3   OH246065   6.650   0.883   1.987 -0.2755 -0.0011  1.0789
 8217TIP3    H146066   6.601   0.911   2.064  0.2201  2.5160  0.5466
 8217TIP3    H246067   6.614   0.935   1.915  0.4517 -1.0476 -0.0847
 8218TIP3   OH246068   2.850   5.531   0.322  0.1246 -0.3137  0.1219
 8218TIP3    H146069   2.799   5.562   0.247  0.6519  0.9102  0.2356
 8218TIP3    H246070   2.822   5.588   0.394 -0.5689 -1.6500  0.9422
 8219TIP3   OH246071   0.289   1.686  12.387  0.0295 -0.1058 -0.0961
 8219TIP3    H146072   0.265   1.709  12.477 -1.1711 -2.2851  0.2143
 8219TIP3    H246073   0.211   1.707  12.336 -0.1251 -0.9896 -0.2322
 8220TIP3   OH246074   2.613   3.960  16.417 -0.2050  0.4987  0.7512
 8220TIP3    H146075   2.614   3.887  16.478 -0.1915 -0.7428 -0.6814
 8220TIP3    H246076   2.657   4.031  16.464 -1.2741  0.0021  2.6234
 8221TIP3   OH246077   3.978   6.600  12.308  0.4520  0.1564  0.2287
 8221TIP3    H146078   4.057   6.565  12.267 -0.0157 -0.8668  0.1767
 8221TIP3    H246079   4.000   6.691  12.328  2.7512 -0.8649  3.0183
 8222TIP3   OH246080   5.330   3.204  12.969 -0.0215 -0.9395  0.4036
 8222TIP3    H146081   5.273   3.199  13.046  0.5388 -0.2855  0.8727
 8222TIP3    H246082   5.277   3.249  12.903  0.6704  1.7103  1.5549
 8223TIP3   OH246083   0.194   1.729   3.014 -0.0398  0.0742 -0.0876
 8223TIP3    H146084   0.262   1.738   2.947 -0.2969 -0.2832 -0.4044
 8223TIP3    H246085   0.120   1.691   2.967  0.1278 -1.1690  0.6271
 8224TIP3   OH246086   2.152   5.105   2.675  0.5169  0.4080  0.0941
 8224TIP3    H146087   2.242   5.086   2.649  0.2799 -0.5665 -0.0261
 8224TIP3    H246088   2.158   5.122   2.769  0.8734  0.6728  0.0255
 8225TIP3   OH246089   2.201   3.428   5.019 -0.1666 -0.2034  0.3779
 8225TIP3    H146090   2.214   3.419   4.925 -0.1845  1.7824  0.1548
 8225TIP3    H246091   2.237   3.347   5.056  1.6704 -0.1607 -1.1723
 8226TIP3   OH246092   4.169   4.651   1.266  0.4228 -0.2031 -0.2388
 8226TIP3    H146093   4.077   4.678   1.268 -0.7519 -3.6791 -0.3520
 8226TIP3    H246094   4.206   4.697   1.191 -1.2367  1.1009 -0.3364
 8227TIP3   OH246095   1.538   5.504  12.351 -0.2749 -0.3635 -0.0625
 8227TIP3    H146096   1.617   5.536  12.395 -0.1790 -0.5212 -0.1177
 8227TIP3    H246097   1.508   5.578  12.298 -1.8696  0.7517  2.2221
 8228TIP3   OH246098   6.092   4.349   2.197  0.4537 -0.0640  0.4981
 8228TIP3    H146099   6.068   4.371   2.107  2.6523  1.7132  0.2611
 8228TIP3    H246100   6.009   4.348   2.245 -0.5812  0.6688 -1.2111
 8229TIP3   OH246101   3.060   6.512   2.389  0.1358 -0.0518  0.1660
 8229TIP3    H146102   3.110   6.584   2.426  0.7724 -0.1537 -0.4778
 8229TIP3    H246103   3.039   6.456   2.464  2.5498 -0.9553  0.2554
 8230TIP3   OH246104   2.014   4.175   5.681 -0.0246  0.4022  0.0967
 8230TIP3    H146105   1.938   4.218   5.719 -1.5676 -0.8339 -1.4414
 8230TIP3    H246106   2.021   4.213   5.593 -1.1049 -2.0121 -1.0968
 8231TIP3   OH246107   6.077   4.706   3.018  0.0374  0.5350 -0.0893
 8231TIP3    H146108   5.992   4.716   3.059  0.6228  0.9061  1.0704
 8231TIP3    H246109   6.107   4.796   3.003  0.0593  0.4041 -0.8529
 8232TIP3   OH246110   4.520   1.165  14.469  0.2112  0.1218  0.5465
 8232TIP3    H146111   4.479   1.239  14.514 -1.5056 -2.3243  3.3664
 8232TIP3    H246112   4.584   1.131  14.531  0.5251 -1.1295 -0.4149
 8233TIP3   OH246113   0.688   3.805   6.376 -0.1159  0.8444 -0.3410
 8233TIP3    H146114   0.745   3.728   6.379 -0.2117  0.7825 -0.1011
 8233TIP3    H246115   0.714   3.857   6.453 -1.6082 -0.0575  0.8266
 8234TIP3   OH246116   6.100   6.627   4.370  0.2931 -0.0794  0.0644
 8234TIP3    H146117   6.103   6.542   4.327 -0.7730  0.0710 -0.3491
 8234TIP3    H246118   6.192   6.651   4.384  0.6859 -0.1262 -2.1631
 8235TIP3   OH246119   5.054   6.343  11.727 -0.4335 -0.6280 -0.3499
 8235TIP3    H146120   5.065   6.361  11.634  0.7692  2.0721  0.2099
 8235TIP3    H246121   5.130   6.383  11.769 -0.6612 -2.2213  1.7887
 8236TIP3   OH246122   5.053   5.172   0.388  0.1135  0.7740 -0.1294
 8236TIP3    H146123   4.992   5.198   0.319  1.0116 -1.7866 -2.0752
 8236TIP3    H246124   5.013   5.093   0.426  1.0643  0.4281  0.1884
 8237TIP3   OH246125   1.626   3.546  11.682 -0.6082 -0.0204 -0.5065
 8237TIP3    H146126   1.580   3.492  11.616 -1.0517 -0.9809  0.5582
 8237TIP3    H246127   1.561   3.610  11.709 -1.4925 -1.5480  1.1973
 8238TIP3   OH246128   0.210   5.245  12.209  0.3503  0.1851 -0.0800
 8238TIP3    H146129   0.284   5.306  12.210  1.1035 -0.6393  2.0522
 8238TIP3    H246130   0.215   5.201  12.124  0.2650  2.4600 -1.3363
 8239TIP3   OH246131   6.346   2.372  13.801  0.3873  1.0308  0.6401
 8239TIP3    H146132   6.281   2.382  13.870 -1.0601  2.4750 -0.8631
 8239TIP3    H246133   6.404   2.302  13.833 -4.1206 -3.3631  0.4190
 8240TIP3   OH246134   3.008   1.304   4.581 -0.0787 -0.6239 -0.4160
 8240TIP3    H146135   3.005   1.219   4.537  2.3716 -0.3876 -1.1400
 8240TIP3    H246136   2.980   1.367   4.515  1.3648 -0.5294 -0.9684
 8241TIP3   OH246137   3.447   5.815   3.293 -0.4974  0.2480  0.4678
 8241TIP3    H146138   3.460   5.865   3.213 -0.3830  1.3264  1.1432
 8241TIP3    H246139   3.353   5.823   3.310 -0.7110 -0.8535 -0.1026
 8242TIP3   OH246140   5.852   3.436   5.684 -0.3049 -0.2667 -0.4302
 8242TIP3    H146141   5.933   3.468   5.722  0.2196 -1.1700 -0.7596
 8242TIP3    H246142   5.796   3.416   5.760 -1.4989  3.3460 -0.1890
 8243TIP3   OH246143   0.225   4.493   0.815  0.2027 -0.2729  0.1572
 8243TIP3    H146144   0.302   4.468   0.762 -0.5926 -0.5304 -0.9118
 8243TIP3    H246145   0.151   4.485   0.755 -0.7253 -0.4420  1.2970
 8244TIP3   OH246146   0.707   2.535  11.067 -0.0465  0.6111  0.1584
 8244TIP3    H146147   0.735   2.581  10.987  2.6958 -0.3207  0.4787
 8244TIP3    H246148   0.662   2.457  11.035  2.5563 -0.6875 -0.6646
 8245TIP3   OH246149   4.190   3.459   0.270 -0.0132 -0.0480 -0.1286
 8245TIP3    H146150   4.095   3.464   0.263 -0.0769  0.3116  0.8593
 8245TIP3    H246151   4.210   3.366   0.264 -0.3349 -0.0565 -1.2890
 8246TIP3   OH246152   5.332   4.167   4.262  0.0730  0.1918 -0.5551
 8246TIP3    H146153   5.296   4.081   4.242 -1.1362  0.8500 -1.2763
 8246TIP3    H246154   5.427   4.155   4.255 -0.0452 -1.1903 -0.1514
 8247TIP3   OH246155   2.946   6.694  13.221 -0.0497 -0.0984 -0.3708
 8247TIP3    H146156   2.995   6.660  13.296  1.1179  0.1989 -0.9829
 8247TIP3    H246157   2.972   6.786  13.216 -0.9845  0.1715 -0.4731
 8248TIP3   OH246158   0.641   2.911   0.094 -0.5455 -0.3971  0.3581
 8248TIP3    H146159   0.550   2.909   0.125 -0.5300 -1.2624  0.3941
 8248TIP3    H246160   0.649   2.833   0.039  0.6340 -1.2910  1.7244
 8249TIP3   OH246161   6.680   3.682  11.242  0.2093  0.3048  0.2279
 8249TIP3    H146162   6.622   3.729  11.181  1.5042  2.5004  0.5832
 8249TIP3    H246163   6.622   3.653  11.312 -1.0495 -0.9203 -1.2438
 8250TIP3   OH246164   0.738   4.690   4.728 -1.0491  0.3840  0.6387
 8250TIP3    H146165   0.704   4.601   4.715 -2.7212  1.2779 -1.9903
 8250TIP3    H246166   0.771   4.716   4.641  0.7446  1.8555  1.6747
 8251TIP3   OH246167   5.435   0.337  16.460  0.2211 -0.0140 -0.4460
 8251TIP3    H146168   5.511   0.284  16.485 -0.5357 -0.7173  0.4482
 8251TIP3    H246169   5.456   0.425  16.489  1.2017  0.0608 -1.3111
 8252TIP3   OH246170   1.358   4.176  14.101 -0.0190 -0.4163  0.1534
 8252TIP3    H146171   1.359   4.203  14.193 -0.5235  0.6799 -0.1472
 8252TIP3    H246172   1.397   4.250  14.054 -0.8433 -0.4701 -0.6304
 8253TIP3   OH246173   1.213   0.724  13.998 -0.1959 -0.7019 -0.5612
 8253TIP3    H146174   1.200   0.812  14.032 -0.4641 -0.5833 -0.9669
 8253TIP3    H246175   1.139   0.673  14.031 -0.2089 -0.6983 -0.5845
 8254TIP3   OH246176   4.880   2.490   0.217  0.3214  0.1553 -0.2816
 8254TIP3    H146177   4.929   2.563   0.180 -0.8545  1.5086  0.7038
 8254TIP3    H246178   4.805   2.531   0.261  0.3169 -1.5372  1.4265
 8255TIP3   OH246179   2.682   4.664   0.606  0.2647 -0.5529 -0.1731
 8255TIP3    H146180   2.664   4.576   0.574  0.6898 -0.9029  0.5276
 8255TIP3    H246181   2.676   4.657   0.702  1.3536 -0.0710 -0.0492
 8256TIP3   OH246182   3.890   5.108  12.532 -0.5985 -0.0435  0.1435
 8256TIP3    H146183   3.939   5.141  12.456 -1.1331  0.3149 -0.0526
 8256TIP3    H246184   3.950   5.119  12.606  0.5337 -1.8585 -0.4492
 8257TIP3   OH246185   1.764   5.244  12.301  0.1995 -0.3479 -0.2661
 8257TIP3    H146186   1.734   5.322  12.254 -0.8537 -0.0022  0.9262
 8257TIP3    H246187   1.708   5.240  12.378  1.6489 -1.0946  0.7827
 8258TIP3   OH246188   0.831   1.731  11.943  0.0247 -0.0454 -0.0747
 8258TIP3    H146189   0.878   1.783  11.879 -0.2867 -0.9485 -1.0757
 8258TIP3    H246190   0.844   1.640  11.915  0.7385 -0.5473  1.7414
 8259TIP3   OH246191   4.338   5.051  15.105 -0.0939  0.0688  0.3869
 8259TIP3    H146192   4.309   5.078  15.192 -2.4370 -0.1717 -0.2584
 8259TIP3    H246193   4.400   5.120  15.078 -1.2121  1.4707  1.2635
 8260TIP3   OH246194   6.416   3.985  15.232 -0.1513 -0.4851  0.6412
 8260TIP3    H146195   6.396   3.916  15.295 -0.2644 -0.6046  0.4756
 8260TIP3    H246196   6.342   3.984  15.171 -0.1224 -0.2609  0.5996
 8261TIP3   OH246197   1.646   0.855  11.357  0.2578 -0.7485 -0.3486
 8261TIP3    H146198   1.708   0.833  11.426  0.2661 -0.5936 -0.3065
 8261TIP3    H246199   1.677   0.807  11.281 -0.1483 -1.4762 -0.0644
 8262TIP3   OH246200   6.694   3.342  14.525  0.5781 -0.5130  0.0479
 8262TIP3    H146201   6.601   3.357  14.508  1.2218  1.4220 -2.4245
 8262TIP3    H246202   6.702   3.344  14.621 -1.6726  1.1571  0.2841
 8263TIP3   OH246203   5.684   2.215   6.455  0.0281 -0.2512  0.1392
 8263TIP3    H146204   5.745   2.171   6.395  1.1507 -1.3359  1.9911
 8263TIP3    H246205   5.603   2.223   6.404  0.1306 -3.3865 -0.7492
 8264TIP3   OH246206   5.923   6.012   3.540  0.0286  0.6624 -0.2304
 8264TIP3    H146207   5.898   5.921   3.523  0.9333  0.1612  0.9893
 8264TIP3    H246208   5.862   6.043   3.606  0.2149  0.6797 -0.0641
 8265TIP3   OH246209   3.559   3.263   5.820 -0.0953  0.5167  0.6014
 8265TIP3    H146210   3.520   3.247   5.906 -1.2529  1.3317  0.2550
 8265TIP3    H246211   3.496   3.321   5.775 -1.5930 -2.9426 -2.2860
 8266TIP3   OH246212   1.866   6.647  13.602  0.9311 -0.0350 -0.8821
 8266TIP3    H146213   1.786   6.673  13.555  0.8832 -0.5078 -1.0659
 8266TIP3    H246214   1.909   6.585  13.543  1.3171  0.0435 -0.6807
 8267TIP3   OH246215   6.326   3.395  11.412  0.3105 -0.0476 -0.0662
 8267TIP3    H146216   6.308   3.351  11.496  2.5005 -2.8020 -0.8866
 8267TIP3    H246217   6.254   3.366  11.355  0.4637 -0.6753  0.0477
 8268TIP3   OH246218   5.325   3.528   2.787  0.1485 -0.0430 -0.3247
 8268TIP3    H146219   5.393   3.535   2.720  0.3455 -0.5330 -0.1825
 8268TIP3    H246220   5.333   3.438   2.820 -0.9619 -0.2932 -0.7173
 8269TIP3   OH246221   4.924   0.939  16.012  0.1433  0.4065  0.1374
 8269TIP3    H146222   4.970   1.012  16.052  1.1725 -0.1201 -0.0590
 8269TIP3    H246223   4.838   0.939  16.054  0.9173  0.3427  1.8200
 8270TIP3   OH246224   4.729   3.544  15.219 -0.3952 -0.7062 -0.6029
 8270TIP3    H146225   4.667   3.533  15.291  0.0276  1.0757  0.0853
 8270TIP3    H246226   4.713   3.632  15.186  1.2559 -0.4762 -0.9038
 8271TIP3   OH246227   2.128   3.483   6.748  0.4449 -0.1726 -0.3885
 8271TIP3    H146228   2.130   3.437   6.831 -0.9034 -0.6234 -0.5805
 8271TIP3    H246229   2.076   3.562   6.765  0.1883 -0.2501 -0.7937
 8272TIP3   OH246230   2.760   5.721   4.696 -0.2182  0.3272 -0.0118
 8272TIP3    H146231   2.830   5.746   4.636  0.0896  1.2048  0.6938
 8272TIP3    H246232   2.694   5.679   4.640  0.3129  0.6136 -0.8664
 8273TIP3   OH246233   5.468   1.855   4.392 -0.1917  0.1450  0.1115
 8273TIP3    H146234   5.443   1.931   4.445 -0.8047  1.5552 -2.0383
 8273TIP3    H246235   5.435   1.780   4.441 -1.9867  1.4564  1.0434
 8274TIP3   OH246236   5.669   5.453   1.702 -0.0473 -0.0854  0.1675
 8274TIP3    H146237   5.730   5.527   1.711  1.0887 -0.8376 -0.9820
 8274TIP3    H246238   5.631   5.466   1.615 -2.6457  1.1386  1.3902
 8275TIP3   OH246239   3.041   0.639  14.661  0.0303  0.0793  1.0668
 8275TIP3    H146240   2.950   0.634  14.691 -0.1971  0.8045  0.5063
 8275TIP3    H246241   3.090   0.663  14.740 -0.7668  3.6055  0.6580
 8276TIP3   OH246242   0.916   4.403   5.675  0.0776 -0.1792  0.4626
 8276TIP3    H146243   0.964   4.486   5.679 -0.8892  0.4477 -0.4132
 8276TIP3    H246244   0.828   4.426   5.707 -1.0495 -0.1803 -2.3698
 8277TIP3   OH246245   0.734   5.225   6.458 -0.8263  0.1879 -0.1812
 8277TIP3    H146246   0.779   5.153   6.502 -0.3696  0.2438 -0.5471
 8277TIP3    H246247   0.651   5.187   6.429 -0.5542 -0.2161 -0.4435
 8278TIP3   OH246248   4.060   6.335  10.478  0.1831  0.3017  0.5481
 8278TIP3    H146249   4.045   6.265  10.415  1.3205 -0.3819  0.9956
 8278TIP3    H246250   4.082   6.411  10.424 -1.9627  0.6092  0.0217
 8279TIP3   OH246251   1.881   5.801  11.003 -0.3450 -0.4102 -1.0174
 8279TIP3    H146252   1.890   5.717  10.957 -0.6607 -1.0779  0.0746
 8279TIP3    H246253   1.835   5.858  10.942  0.2014 -0.9189 -1.9201
 8280TIP3   OH246254   0.859   5.169   0.295  0.1119  0.2816 -0.4206
 8280TIP3    H146255   0.891   5.247   0.341  1.3156 -0.3786 -0.0892
 8280TIP3    H246256   0.938   5.124   0.265 -0.3729 -2.0823  1.5048
 8281TIP3   OH246257   0.054   1.663   5.952 -0.2093  0.3149  0.3532
 8281TIP3    H146258   0.129   1.630   6.001  0.0842 -0.5439 -0.6212
 8281TIP3    H246259   0.061   1.758   5.957  0.5000  0.2378  0.9321
 8282TIP3   OH246260   2.011   0.675  13.679  0.3544 -0.3124  0.6784
 8282TIP3    H146261   1.958   0.603  13.644 -1.3609  2.3006 -2.7669
 8282TIP3    H246262   2.059   0.707  13.603  1.3317  1.9486  2.1594
 8283TIP3   OH246263   5.585   1.817  16.927 -0.0575  0.3302  0.1053
 8283TIP3    H146264   5.526   1.757  16.973  1.1351 -1.7777 -0.9753
 8283TIP3    H246265   5.535   1.847  16.851 -0.8230  1.1208  0.8965
 8284TIP3   OH246266   1.678   3.133   3.252  0.2484  0.2654 -0.5086
 8284TIP3    H146267   1.686   3.202   3.318  1.7636 -0.2262 -0.1405
 8284TIP3    H246268   1.588   3.139   3.222 -0.0784  1.4026  0.6180
 8285TIP3   OH246269   5.436   3.059   3.350  0.4184  0.2936 -0.2827
 8285TIP3    H146270   5.524   3.067   3.314  0.6827 -0.8690  0.0521
 8285TIP3    H246271   5.448   3.067   3.444  0.3841 -1.2619 -0.1205
 8286TIP3   OH246272   1.172   3.992  13.705 -0.7228 -0.1595 -0.4664
 8286TIP3    H146273   1.236   3.945  13.651  0.0658 -0.1731  0.4625
 8286TIP3    H246274   1.092   3.940  13.696 -0.9302  0.4338 -2.4768
 8287TIP3   OH246275   1.843   6.128  16.502 -0.0250 -0.2993 -0.0447
 8287TIP3    H146276   1.921   6.102  16.454  1.1143 -0.4256  1.7988
 8287TIP3    H246277   1.826   6.218  16.473 -0.7836 -1.1053 -2.3653
 8288TIP3   OH246278   1.350   1.561   5.924 -0.4510 -0.8455  0.5759
 8288TIP3    H146279   1.381   1.647   5.952  2.6503 -1.2739 -1.1511
 8288TIP3    H246280   1.370   1.503   5.997 -2.6097 -0.1936  1.7720
 8289TIP3   OH246281   0.929   5.830  14.840 -0.2639 -0.4580  0.0013
 8289TIP3    H146282   0.918   5.835  14.745 -0.9413 -1.2721  0.0310
 8289TIP3    H246283   1.020   5.804  14.852 -0.1902 -0.4080 -0.4218
 8290TIP3   OH246284   3.405   4.832   6.416  0.2579  0.0689 -0.1334
 8290TIP3    H146285   3.407   4.794   6.504  0.2784  0.0474 -0.1432
 8290TIP3    H246286   3.434   4.762   6.358 -0.5300 -0.1725 -0.2490
 8291TIP3   OH246287   1.331   2.468  12.347  0.2796 -0.4752 -0.4408
 8291TIP3    H146288   1.348   2.464  12.253  0.5698 -1.6971 -0.3524
 8291TIP3    H246289   1.398   2.528  12.381 -0.4757  0.8209 -1.1271
 8292TIP3   OH246290   0.458   5.745  17.052  0.3364  0.2361  0.2271
 8292TIP3    H146291   0.409   5.731  16.971 -2.1377 -3.3440  2.0934
 8292TIP3    H246292   0.407   5.810  17.100  1.0519  1.3275 -0.4516
 8293TIP3   OH246293   4.129   2.270   2.357 -0.0474 -0.3029  0.2929
 8293TIP3    H146294   4.199   2.275   2.291  0.2367  0.0112  0.6131
 8293TIP3    H246295   4.078   2.350   2.345  0.2887 -0.0124  0.7621
 8294TIP3   OH246296   5.422   2.903  13.596 -0.4343 -0.4989  0.2932
 8294TIP3    H146297   5.449   2.988  13.562 -0.0794 -1.0009 -0.7262
 8294TIP3    H246298   5.455   2.901  13.686  0.0051  0.2219  0.1519
 8295TIP3   OH246299   6.148   5.480  16.561  0.0174  0.3173 -0.0917
 8295TIP3    H146300   6.166   5.423  16.487 -1.3004  0.4412 -0.5485
 8295TIP3    H246301   6.098   5.426  16.622  2.1891 -0.1734  1.3560
 8296TIP3   OH246302   4.341   5.432   0.268 -0.3338  0.5877 -0.3467
 8296TIP3    H146303   4.333   5.508   0.325  0.6860 -0.0219  0.6316
 8296TIP3    H246304   4.253   5.420   0.232 -1.1695  0.6448  1.5584
 8297TIP3   OH246305   0.386   6.557  17.046 -0.4956  0.3372  0.0190
 8297TIP3    H146306   0.451   6.519  17.104  1.7678  2.6479 -0.8152
 8297TIP3    H246307   0.309   6.501  17.057  1.2151 -1.8706  1.9035
 8298TIP3   OH246308   2.543   1.133  16.954 -0.1460 -0.1758  0.6357
 8298TIP3    H146309   2.511   1.083  17.029 -0.2637 -0.5287  0.3527
 8298TIP3    H246310   2.557   1.221  16.988 -5.6939  1.3680 -0.1992
 8299TIP3   OH246311   4.278   4.851  16.370  0.0315 -0.1398  0.1125
 8299TIP3    H146312   4.275   4.910  16.295 -1.8448  0.8218  0.8757
 8299TIP3    H246313   4.237   4.771  16.339 -0.5961  0.2005  0.0393
 8300TIP3   OH246314   1.639   5.850   6.274  0.8430 -0.5724 -0.0200
 8300TIP3    H146315   1.632   5.854   6.178  2.1659 -3.0155 -0.2928
 8300TIP3    H246316   1.733   5.859   6.291  0.4561  1.9761  1.2837
 8301TIP3   OH246317   5.673   6.488  13.168  0.1952  0.2115  0.4859
 8301TIP3    H146318   5.760   6.448  13.169 -0.3603 -1.0626  1.0065
 8301TIP3    H246319   5.633   6.459  13.250 -1.3642 -0.7388 -0.5723
 8302TIP3   OH246320   2.567   0.654   2.601 -0.8647  0.1937 -0.4673
 8302TIP3    H146321   2.601   0.690   2.682 -0.4457 -0.3734 -0.3841
 8302TIP3    H246322   2.631   0.587   2.575 -1.0450  0.2936 -1.2062
 8303TIP3   OH246323   6.736   0.889  10.939  0.2361  0.3022  0.1515
 8303TIP3    H146324   6.715   0.935  10.858  1.8969 -0.5202 -0.8061
 8303TIP3    H246325   6.749   0.798  10.912  2.6922  0.3354  0.9599
 8304TIP3   OH246326   4.840   2.534  15.620  0.5394 -0.4673 -0.3184
 8304TIP3    H146327   4.906   2.491  15.565 -0.3067 -0.8561 -1.0378
 8304TIP3    H246328   4.885   2.547  15.704  2.0232  0.6078 -1.2262
 8305TIP3   OH246329   0.564   4.104  14.944 -0.2332 -0.9238  0.1289
 8305TIP3    H146330   0.575   4.140  15.032 -2.7817 -1.9518  0.9423
 8305TIP3    H246331   0.515   4.171  14.897 -1.7927 -1.7439  0.5419
 8306TIP3   OH246332   0.816   1.111  17.115 -0.0639 -0.4541 -0.0991
 8306TIP3    H146333   0.867   1.114  17.034  1.0942 -0.0791  0.6165
 8306TIP3    H246334   0.730   1.144  17.090  0.6655  0.9616 -0.9240
 8307TIP3   OH246335   2.791   2.497  11.937  0.6084  0.2040 -0.4770
 8307TIP3    H146336   2.736   2.562  11.892  1.2569  2.5476  1.8503
 8307TIP3    H246337   2.878   2.536  11.937  1.3903 -1.4756 -0.4044
 8308TIP3   OH246338   0.183   5.998  13.739 -0.5841 -0.2748  0.1069
 8308TIP3    H146339   0.160   5.925  13.682 -1.1885  0.2644 -0.3454
 8308TIP3    H246340   0.138   6.073  13.702  1.2429  0.6648 -0.3529
 8309TIP3   OH246341   4.594   3.107   0.959 -0.3345  0.2661  0.3579
 8309TIP3    H146342   4.560   3.047   1.026  0.7606 -0.0943  0.6156
 8309TIP3    H246343   4.557   3.192   0.983  1.7151  0.6164  2.7857
 8310TIP3   OH246344   3.380   6.400  14.971 -0.1696 -0.2497  0.1084
 8310TIP3    H146345   3.322   6.324  14.980  0.7339 -1.2630 -1.9366
 8310TIP3    H246346   3.335   6.458  14.910  1.5165 -1.7799 -2.7931
 8311TIP3   OH246347   0.850   5.973  11.250 -0.2353 -0.0810 -0.2816
 8311TIP3    H146348   0.878   6.014  11.169  0.2957 -0.4906 -0.3081
 8311TIP3    H246349   0.881   5.882  11.244 -0.7302 -0.2859  0.1053
 8312TIP3   OH246350   4.342   4.821   4.342 -0.5038 -0.1557 -0.1186
 8312TIP3    H146351   4.293   4.743   4.367  0.8821 -1.2533 -0.6496
 8312TIP3    H246352   4.433   4.798   4.361  0.0733  0.8092 -1.6040
 8313TIP3   OH246353   2.204   1.348   5.685  0.2697 -0.0244  0.0471
 8313TIP3    H146354   2.199   1.411   5.614 -2.1668 -1.7969 -1.5156
 8313TIP3    H246355   2.215   1.401   5.764 -0.9273  2.3139 -1.2555
 8314TIP3   OH246356   2.100   3.964  11.546  0.2915  0.1350 -0.2679
 8314TIP3    H146357   2.129   3.954  11.637 -0.1763  0.2561 -0.1044
 8314TIP3    H246358   2.114   4.056  11.525 -0.2204  0.2520 -0.1030
 8315TIP3   OH246359   5.987   1.836  16.389  0.1811 -0.2542  0.1406
 8315TIP3    H146360   6.039   1.809  16.314 -2.0702  0.5424 -1.8450
 8315TIP3    H246361   5.924   1.765  16.402 -1.5337  0.9936 -0.8929
 8316TIP3   OH246362   1.035   6.286   2.929 -0.0490 -0.2122 -0.0641
 8316TIP3    H146363   1.055   6.378   2.945  1.9340 -0.5509 -0.3561
 8316TIP3    H246364   1.086   6.238   2.993 -2.0432 -1.1242  0.9401
 8317TIP3   OH246365   0.032   2.464  14.747  0.5101  0.6321 -0.1189
 8317TIP3    H146366   0.104   2.415  14.785  0.9628  1.3612 -0.0102
 8317TIP3    H246367  -0.047   2.427  14.787  0.9650  1.3938  1.5980
 8318TIP3   OH246368   0.267   5.181   2.629 -0.0970 -0.6723 -0.3687
 8318TIP3    H146369   0.203   5.184   2.700  0.4453 -0.4046  0.1229
 8318TIP3    H246370   0.261   5.267   2.587  0.3685 -0.4073  0.0817
 8319TIP3   OH246371   5.280   1.727   3.913 -0.0805 -0.3946  0.0060
 8319TIP3    H146372   5.226   1.712   3.836 -1.2543 -2.3421  1.1140
 8319TIP3    H246373   5.260   1.816   3.940 -1.4333 -0.4887 -0.6226
 8320TIP3   OH246374   0.308   4.465   6.011 -0.2101 -0.4454  0.0876
 8320TIP3    H146375   0.256   4.495   6.085 -0.2217  1.2601 -0.5506
 8320TIP3    H246376   0.358   4.542   5.985  0.1808 -1.1496 -1.3450
 8321TIP3   OH246377   3.786   2.349  11.566 -0.0520 -0.6745 -0.1478
 8321TIP3    H146378   3.853   2.418  11.567  0.5295 -1.1231 -2.4569
 8321TIP3    H246379   3.803   2.299  11.646  0.2892  1.1015  0.9561
 8322TIP3   OH246380   5.750   4.114  13.817  0.3561 -0.1555 -0.0056
 8322TIP3    H146381   5.662   4.079  13.830  0.4077 -0.8278 -1.2322
 8322TIP3    H246382   5.738   4.184  13.752  0.6676  0.0275  0.1357
 8323TIP3   OH246383   3.595   6.465   4.062 -0.1179 -0.3558 -0.3610
 8323TIP3    H146384   3.580   6.476   3.968  0.3608 -1.5687 -0.5951
 8323TIP3    H246385   3.530   6.522   4.103  0.3707  1.0228 -1.4195
 8324TIP3   OH246386   2.139   2.503  13.128 -0.2645  0.5078  0.5914
 8324TIP3    H146387   2.099   2.536  13.208 -0.0258  1.6345  0.2632
 8324TIP3    H246388   2.231   2.493  13.149 -0.3786 -0.2223  0.7676
 8325TIP3   OH246389   3.018   2.875  13.156  0.1769  0.5020 -0.1792
 8325TIP3    H146390   2.991   2.957  13.198  2.3019  1.5209 -0.6967
 8325TIP3    H246391   3.064   2.827  13.225 -1.9190 -0.7821  0.4146
 8326TIP3   OH246392   0.462   3.617  16.032 -0.4571  0.2405 -0.2501
 8326TIP3    H146393   0.459   3.524  16.010  0.7314 -0.4650  2.1919
 8326TIP3    H246394   0.370   3.641  16.048 -0.7574 -0.5309 -0.7646
 8327TIP3   OH246395   2.056   0.856  12.838  0.0953 -0.0485 -0.1346
 8327TIP3    H146396   2.033   0.884  12.926  1.5284  0.9142 -0.0372
 8327TIP3    H246397   2.152   0.858  12.836  0.0886  1.5055 -2.1676
 8328TIP3   OH246398   4.697   2.036  16.590 -0.0172 -0.3438  0.4592
 8328TIP3    H146399   4.721   1.948  16.618 -0.7778  0.2296  3.2373
 8328TIP3    H246400   4.770   2.091  16.620 -0.6034  0.2447  0.8354
 8329TIP3   OH246401   1.168   1.919   3.272 -0.3325  0.6599  0.2897
 8329TIP3    H146402   1.205   1.967   3.197  0.5468  2.1932  1.6550
 8329TIP3    H246403   1.149   1.987   3.337 -0.8978 -0.6605  1.5436
 8330TIP3   OH246404   0.413   6.129   4.156  0.1168 -0.6353  0.5460
 8330TIP3    H146405   0.415   6.212   4.205  0.3453  0.2253 -0.8663
 8330TIP3    H246406   0.498   6.089   4.174  0.7572  0.3292 -0.1881
 8331TIP3   OH246407   5.972   6.324   0.356 -0.1261 -0.5380  0.4004
 8331TIP3    H146408   6.065   6.308   0.341  0.1347  0.8572  0.4424
 8331TIP3    H246409   5.943   6.250   0.409  1.7985  0.7729  3.5568
 8332TIP3   OH246410   3.980   4.498  13.791  0.0910  0.4476  0.4775
 8332TIP3    H146411   3.989   4.509  13.886 -1.7365 -2.9665  1.2456
 8332TIP3    H246412   4.065   4.523  13.756  0.7901  1.9774  2.9643
 8333TIP3   OH246413   3.655   3.450  15.308 -0.3294  0.1933 -0.3812
 8333TIP3    H146414   3.643   3.481  15.398 -2.0571 -0.2829 -0.4222
 8333TIP3    H246415   3.728   3.387  15.314 -0.9456 -0.4444  0.8441
 8334TIP3   OH246416   0.268   0.307  13.568  0.4641  0.0149 -0.1194
 8334TIP3    H146417   0.356   0.317  13.606  1.0763  2.3451 -1.9317
 8334TIP3    H246418   0.281   0.321  13.474 -1.9490  1.2133 -0.3397
 8335TIP3   OH246419   3.176   1.513  11.280 -0.1756  0.3720 -0.4264
 8335TIP3    H146420   3.178   1.433  11.228 -1.6371  1.2670 -1.9575
 8335TIP3    H246421   3.264   1.550  11.269 -0.2497  0.2086 -1.7694
 8336TIP3   OH246422   2.305   4.296  15.164 -0.2225 -0.1889 -0.3693
 8336TIP3    H146423   2.284   4.312  15.073 -0.5958  0.3422 -0.1950
 8336TIP3    H246424   2.242   4.230  15.193 -2.2330  1.8917  0.3428
 8337TIP3   OH246425   6.168   3.054   4.517  0.6102  0.4956 -0.1321
 8337TIP3    H146426   6.257   3.067   4.484  0.8742 -0.4652  0.1648
 8337TIP3    H246427   6.172   2.971   4.565 -0.3378  0.6703  0.2728
 8338TIP3   OH246428   2.221   0.464   0.425 -0.3211 -0.2291 -0.2409
 8338TIP3    H146429   2.272   0.520   0.366 -0.3604  0.4164  0.3295
 8338TIP3    H246430   2.159   0.419   0.368 -1.9187  2.0802 -0.4677
 8339TIP3   OH246431   6.427   4.464  12.288 -0.4706 -0.1307 -0.2446
 8339TIP3    H146432   6.428   4.384  12.339 -1.1021 -0.9710 -1.4847
 8339TIP3    H246433   6.448   4.534  12.350 -2.0132 -1.0020  1.2989
 8340TIP3   OH246434   0.674   5.794   1.444  0.3046  0.0103  0.2829
 8340TIP3    H146435   0.695   5.701   1.451  0.3153 -0.2650 -2.3669
 8340TIP3    H246436   0.594   5.797   1.392  0.7735  1.5071 -0.4151
 8341TIP3   OH246437   4.741   1.783  16.308  0.7338  0.4714 -0.5220
 8341TIP3    H146438   4.770   1.719  16.242  1.1991  0.4328 -0.2806
 8341TIP3    H246439   4.789   1.760  16.387  1.1993  1.3586 -0.5321
 8342TIP3   OH246440   4.794   3.641  12.332 -0.1425 -0.0691  0.2722
 8342TIP3    H146441   4.819   3.675  12.418 -0.8237  0.1871  0.3707
 8342TIP3    H246442   4.804   3.546  12.341  1.3955  0.0465  0.1097
 8343TIP3   OH246443   5.727   6.688  12.749  0.5454 -0.2137 -0.2235
 8343TIP3    H146444   5.662   6.655  12.811  0.4898  0.1577 -0.0829
 8343TIP3    H246445   5.755   6.611  12.700 -0.0247 -0.3672 -0.3079
 8344TIP3   OH246446   4.321   5.378  13.980 -0.1202 -0.0832 -0.0810
 8344TIP3    H146447   4.298   5.335  13.898  0.1752 -0.6052  0.1029
 8344TIP3    H246448   4.395   5.327  14.014  2.0671  2.1164 -1.1517
 8345TIP3   OH246449   0.095   0.965  17.053 -0.1008 -0.8591 -0.3063
 8345TIP3    H146450   0.025   0.978  16.990 -0.9557  1.7775  1.0528
 8345TIP3    H246451   0.054   0.918  17.125  0.4513 -2.3246 -0.8949
 8346TIP3   OH246452   3.490   2.151   1.742  1.0836  0.5427  0.0754
 8346TIP3    H146453   3.493   2.168   1.836  0.2543 -2.2294  0.7061
 8346TIP3    H246454   3.419   2.207   1.710  2.5572  2.8968  0.6601
 8347TIP3   OH246455   5.114   6.763  12.537 -0.1362 -0.1247 -0.2339
 8347TIP3    H146456   5.020   6.782  12.544 -0.0199  0.6099 -0.5597
 8347TIP3    H246457   5.145   6.821  12.467  0.7048  0.1898  0.3828
 8348TIP3   OH246458   2.566   6.770  11.820 -0.0312 -0.4764 -0.2509
 8348TIP3    H146459   2.572   6.730  11.733 -0.3587  0.5905 -0.7858
 8348TIP3    H246460   2.572   6.864  11.803 -1.4969 -0.1663  0.7332
 8349TIP3   OH246461   2.836   0.861  12.857  0.0504  0.4389 -0.5086
 8349TIP3    H146462   2.800   0.938  12.900  2.4782  0.5917  1.4897
 8349TIP3    H246463   2.880   0.895  12.780 -0.1929  0.8433 -0.4731
 8350TIP3   OH246464   4.621   2.676  15.038  0.3878 -0.7542 -0.3045
 8350TIP3    H146465   4.714   2.697  15.028  0.2776 -0.5015 -0.8292
 8350TIP3    H246466   4.616   2.627  15.120  1.1115 -1.5568 -0.7270
 8351TIP3   OH246467   3.243   1.565   6.390  0.8160 -0.3429  0.2587
 8351TIP3    H146468   3.275   1.479   6.365 -1.3011 -1.3836  0.8570
 8351TIP3    H246469   3.240   1.562   6.486  0.1783  0.1810  0.2579
 8352TIP3   OH246470   4.962   5.516   3.149 -0.3963  0.4341  0.2786
 8352TIP3    H146471   5.040   5.461   3.150  0.6181  1.7945  1.3805
 8352TIP3    H246472   4.964   5.559   3.064 -0.5954 -0.4119 -0.1560
 8353TIP3   OH246473   1.830   2.985  12.061 -0.3595  0.0880 -0.1828
 8353TIP3    H146474   1.756   2.933  12.092 -0.3804 -0.3435 -0.9165
 8353TIP3    H246475   1.905   2.951  12.109 -0.5284  0.0463  0.0530
 8354TIP3   OH246476   2.793   2.175  13.072  0.1439  0.3319  0.2127
 8354TIP3    H146477   2.769   2.161  12.980  3.0565 -2.4766 -0.2910
 8354TIP3    H246478   2.805   2.270  13.080  1.0257  0.5320 -2.6479
 8355TIP3   OH246479   1.940   5.295   4.988  0.7918  0.3761 -0.4881
 8355TIP3    H146480   1.976   5.291   5.077 -0.1610  1.6055 -0.0141
 8355TIP3    H246481   1.904   5.384   4.981  1.2234  0.4382 -2.2628
 8356TIP3   OH246482   1.617   1.948  13.208 -0.3500 -0.0918  0.2825
 8356TIP3    H146483   1.628   1.894  13.286  0.2906 -0.0314  0.2386
 8356TIP3    H246484   1.674   2.024  13.223 -0.2806 -0.0453 -0.2042
 8357TIP3   OH246485   1.203   3.830  12.312  0.0293 -0.0889 -0.3319
 8357TIP3    H146486   1.292   3.805  12.288  0.1026  0.2327 -0.4013
 8357TIP3    H246487   1.147   3.765  12.269  0.3320 -1.8748  1.8405
 8358TIP3   OH246488   0.255   0.686  10.785  0.1535 -0.2455 -0.1790
 8358TIP3    H146489   0.160   0.674  10.792  0.2329 -0.0420  3.4176
 8358TIP3    H246490   0.266   0.780  10.771 -0.1652 -0.2087 -0.1839
 8359TIP3   OH246491   0.268   1.334  14.392 -0.2515  0.6797 -0.0257
 8359TIP3    H146492   0.255   1.320  14.299 -2.6968  2.9337 -0.1478
 8359TIP3    H246493   0.363   1.342  14.403  0.1430 -0.5216 -2.1303
 8360TIP3   OH246494   0.293   5.286   4.593  0.4979 -0.4090 -0.0691
 8360TIP3    H146495   0.248   5.348   4.535 -2.5075 -2.5487 -0.2598
 8360TIP3    H246496   0.295   5.330   4.677  1.1297  1.0960 -0.8297
 8361TIP3   OH246497   0.105   4.308   5.141 -0.1439 -0.0480 -0.3702
 8361TIP3    H146498   0.067   4.317   5.054  0.3062  0.0576 -0.5570
 8361TIP3    H246499   0.191   4.350   5.134  0.2505 -0.8062 -0.1114
 8362TIP3   OH246500   1.137   4.469   3.281  0.3157 -0.1932 -0.2011
 8362TIP3    H146501   1.221   4.478   3.327  1.5473 -0.8713 -2.1913
 8362TIP3    H246502   1.124   4.554   3.239  1.0062 -0.6898 -1.4535
 8363TIP3   OH246503   1.945   0.812  11.905  0.2315 -0.3926 -0.7798
 8363TIP3    H146504   1.982   0.824  11.817  1.2947 -0.7152 -0.3953
 8363TIP3    H246505   1.965   0.894  11.950 -3.3524  1.2317 -1.8144
 8364TIP3   OH246506   2.689   0.459  11.955  0.0176  0.2449 -0.2333
 8364TIP3    H146507   2.651   0.375  11.979  0.9850  0.2704  1.5704
 8364TIP3    H246508   2.752   0.438  11.886 -1.8791 -0.0359 -1.9723
 8365TIP3   OH246509   3.215   5.236  15.862 -0.2155  0.2641  0.0760
 8365TIP3    H146510   3.127   5.226  15.828  0.2906  0.7054 -1.4475
 8365TIP3    H246511   3.270   5.244  15.784  1.1829 -0.0830  0.9920
 8366TIP3   OH246512   6.461   2.585  13.085  0.1441  0.0153 -0.1156
 8366TIP3    H146513   6.449   2.621  13.172  1.2156  0.4430 -0.1189
 8366TIP3    H246514   6.507   2.654  13.036 -2.5832  0.7905 -1.7835
 8367TIP3   OH246515   4.055   1.987  12.775 -0.2955 -0.1375  0.2281
 8367TIP3    H146516   4.104   1.907  12.753 -0.0231  0.5764 -1.9961
 8367TIP3    H246517   3.967   1.970  12.743 -0.3893  0.2246  0.3019
 8368TIP3   OH246518   1.852   3.570   3.076 -0.0329  0.9240  0.4006
 8368TIP3    H146519   1.939   3.541   3.049 -0.5727 -0.2398 -0.1578
 8368TIP3    H246520   1.848   3.549   3.169 -0.2661 -0.5175  0.0945
 8369TIP3   OH246521   4.325   0.665  12.356 -0.4630  0.4065 -0.2818
 8369TIP3    H146522   4.284   0.684  12.440  2.8620 -0.0976  1.6385
 8369TIP3    H246523   4.361   0.749  12.328  0.8297  0.0483  0.2577
 8370TIP3   OH246524   0.418   4.863  13.493  0.1051 -0.1604 -0.2730
 8370TIP3    H146525   0.347   4.916  13.457 -0.3643 -0.7445 -0.2189
 8370TIP3    H246526   0.498   4.908  13.464 -0.2775  0.7895  0.1019
 8371TIP3   OH246527   2.902   5.113  11.814  0.3415  0.2225 -0.4970
 8371TIP3    H146528   2.962   5.053  11.858  0.9488  1.4016  0.3642
 8371TIP3    H246529   2.868   5.064  11.739 -0.1207 -1.5901  0.8465
 8372TIP3   OH246530   1.875   2.374   3.626 -0.4156  0.1810 -0.3687
 8372TIP3    H146531   1.901   2.301   3.682  0.8907 -0.2114 -1.4426
 8372TIP3    H246532   1.810   2.337   3.567  1.9740 -0.9003 -2.5537
 8373TIP3   OH246533   0.897   5.796   4.310  0.1267 -0.1886 -0.1671
 8373TIP3    H146534   0.983   5.784   4.268  0.6987  0.9069  0.6272
 8373TIP3    H246535   0.838   5.741   4.259  1.0771 -0.0650 -1.4700
 8374TIP3   OH246536   1.701   4.015  14.821 -0.2818 -0.3536  0.0419
 8374TIP3    H146537   1.651   4.000  14.902 -0.4096 -0.6428 -0.0899
 8374TIP3    H246538   1.793   4.006  14.847 -0.2989  0.1137  0.2705
 8375TIP3   OH246539   6.700   0.405  15.961  0.2475 -0.6843  0.1153
 8375TIP3    H146540   6.709   0.381  15.869  1.1789 -3.0160  0.7450
 8375TIP3    H246541   6.615   0.368  15.988  0.8121 -1.6554  0.6216
 8376TIP3   OH246542   5.231   1.084   0.538 -0.5053 -0.4251  0.1376
 8376TIP3    H146543   5.243   0.991   0.521 -3.3861 -1.1528  1.4247
 8376TIP3    H246544   5.211   1.122   0.453  2.2724 -0.5728 -0.6758
 8377TIP3   OH246545   2.961   3.213   1.974  0.4077  0.9541 -0.1590
 8377TIP3    H146546   2.902   3.228   2.048  0.1045  1.1871 -0.4439
 8377TIP3    H246547   2.909   3.237   1.897  0.5162  0.1440 -0.4945
 8378TIP3   OH246548   5.929   6.374   5.504 -0.5747 -0.2397 -0.1001
 8378TIP3    H146549   5.918   6.285   5.472 -0.9373 -0.9330  1.8169
 8378TIP3    H246550   5.882   6.376   5.587  1.4520  1.0303  1.1037
 8379TIP3   OH246551   1.018   2.182   0.008 -0.1263 -0.1934 -0.3683
 8379TIP3    H146552   1.050   2.161   0.096  0.0573  1.5634  0.0102
 8379TIP3    H246553   0.947   2.245   0.022  0.0517  0.2824 -1.4843
 8380TIP3   OH246554   5.526   2.346   4.550  0.4318  0.8124 -0.1568
 8380TIP3    H146555   5.444   2.335   4.599  0.9531 -0.5869  0.4367
 8380TIP3    H246556   5.499   2.341   4.458 -0.0900 -0.2689  0.0375
 8381TIP3   OH246557   2.774   1.164   0.034 -0.1023  0.2303 -0.6919
 8381TIP3    H146558   2.718   1.223  -0.017  0.9470  0.2105 -1.9217
 8381TIP3    H246559   2.851   1.217   0.054  0.8514 -0.6907 -1.8123
 8382TIP3   OH246560   6.580   5.284  12.479 -0.4269  0.3454 -0.0823
 8382TIP3    H146561   6.530   5.203  12.487 -1.3702  0.9421  0.1737
 8382TIP3    H246562   6.518   5.354  12.501  0.4369  1.1261 -0.0388
 8383TIP3   OH246563   5.312   3.800   0.169  0.6756 -0.3538  0.3662
 8383TIP3    H146564   5.258   3.807   0.248 -0.0552 -0.0494 -0.1472
 8383TIP3    H246565   5.282   3.873   0.114  0.2636 -1.3307 -0.7331
 8384TIP3   OH246566   5.468   2.609  17.139 -0.1254 -0.2718 -0.0435
 8384TIP3    H146567   5.550   2.646  17.105 -0.4511  0.4567 -0.0464
 8384TIP3    H246568   5.496   2.544  17.203  0.5076  2.7164  3.0240
 8385TIP3   OH246569   6.605   2.358  14.247  0.1878 -0.2155  0.0479
 8385TIP3    H146570   6.628   2.382  14.157 -1.8502  1.8405 -0.0137
 8385TIP3    H246571   6.510   2.346  14.245  0.3419 -2.1971  1.5433
 8386TIP3   OH246572   6.447   5.908   6.683 -0.2122 -0.4190 -0.4061
 8386TIP3    H146573   6.528   5.940   6.643 -0.1741  3.3138  2.1568
 8386TIP3    H246574   6.380   5.970   6.655 -1.6855 -1.9035 -0.3370
 8387TIP3   OH246575   6.326   1.815  12.503 -0.2189  0.0628  0.5234
 8387TIP3    H146576   6.387   1.788  12.572 -0.8685  0.4446  1.2628
 8387TIP3    H246577   6.378   1.871  12.445  0.8109 -1.6597 -0.3080
 8388TIP3   OH246578   5.095   0.850   2.038 -0.3492  0.0391  0.0127
 8388TIP3    H146579   5.116   0.943   2.043  1.4148 -0.2675 -1.0351
 8388TIP3    H246580   5.074   0.835   1.946 -1.6148 -0.4388  0.3497
 8389TIP3   OH246581   4.318   0.750  16.900 -0.5269  0.0846 -0.0223
 8389TIP3    H146582   4.358   0.829  16.862 -0.1518 -0.1920 -0.2146
 8389TIP3    H246583   4.307   0.691  16.825  1.3977 -0.9670  0.4544
 8390TIP3   OH246584   2.066   0.364  13.261 -0.6894  0.0464 -0.0844
 8390TIP3    H146585   2.115   0.347  13.181 -1.1254  0.5285 -0.4582
 8390TIP3    H246586   2.010   0.287  13.271 -1.9538  0.7588 -1.2504
 8391TIP3   OH246587   4.410   2.930  13.652 -0.0414 -0.6184 -0.5112
 8391TIP3    H146588   4.433   3.009  13.701 -1.2769 -1.0641  0.8598
 8391TIP3    H246589   4.494   2.898  13.617  1.0537 -0.6412  1.9092
 8392TIP3   OH246590   0.601   5.484  16.234 -0.3698  0.1287  0.7021
 8392TIP3    H146591   0.675   5.428  16.256  1.3790  2.5061  1.2923
 8392TIP3    H246592   0.640   5.556  16.184 -2.8026 -0.0861 -1.7564
 8393TIP3   OH246593   5.923   0.884   0.712 -0.1249 -0.1408 -0.5516
 8393TIP3    H146594   5.936   0.802   0.664  0.2675 -0.0407 -0.6199
 8393TIP3    H246595   5.828   0.893   0.718 -0.2255  0.6229 -2.6493
 8394TIP3   OH246596   3.672   2.932  11.500  0.4947  0.6433 -0.7090
 8394TIP3    H146597   3.763   2.902  11.505  0.6730  1.0846 -1.2803
 8394TIP3    H246598   3.621   2.856  11.529  0.9633 -0.1124 -1.8001
 8395TIP3   OH246599   1.423   3.886  12.929 -0.1441  0.5461 -0.3664
 8395TIP3    H146600   1.389   3.940  12.858  2.5763  1.2503 -1.2906
 8395TIP3    H246601   1.403   3.935  13.008 -1.4547  0.7510 -0.7991
 8396TIP3   OH246602   0.305   0.080   1.676 -0.0658 -0.3759  0.0962
 8396TIP3    H146603   0.294   0.105   1.768  0.4518 -1.4744  0.4731
 8396TIP3    H246604   0.230   0.119   1.631  0.5055  1.5041  0.7007
 8397TIP3   OH246605   4.397   3.696   3.264  0.0922 -0.5750 -0.5611
 8397TIP3    H146606   4.487   3.665   3.270 -0.2004 -1.4353 -0.3835
 8397TIP3    H246607   4.369   3.709   3.355  0.0140 -0.3778 -0.6124
 8398TIP3   OH246608   0.970   1.817  13.150 -0.4253  0.1671  0.5354
 8398TIP3    H146609   1.044   1.859  13.193 -0.5217  0.5413  0.3382
 8398TIP3    H246610   0.894   1.846  13.201 -0.5592  0.7583  0.0086
 8399TIP3   OH246611   2.299   2.823  13.904  0.4091 -0.1469 -0.0954
 8399TIP3    H146612   2.385   2.864  13.901  0.0857  0.4794 -1.3762
 8399TIP3    H246613   2.248   2.878  13.964  0.6859 -0.0817  0.0803
 8400TIP3   OH246614   5.895   6.328  12.973 -0.1340  0.3396  0.4927
 8400TIP3    H146615   5.930   6.329  13.061 -0.2737 -0.2654  0.5567
 8400TIP3    H246616   5.923   6.412  12.935 -0.3037  0.7230  1.1920
 8401TIP3   OH246617   1.141   2.763  16.648 -0.3568 -0.3383  0.2024
 8401TIP3    H146618   1.208   2.699  16.626  0.3865  0.1030  1.1089
 8401TIP3    H246619   1.079   2.715  16.703 -0.0055 -0.3832  0.5641
 8402TIP3   OH246620   5.493   3.917   2.736  0.6006 -0.2700  0.3479
 8402TIP3    H146621   5.585   3.917   2.711  0.8186 -1.8491  1.0503
 8402TIP3    H246622   5.492   3.886   2.827 -0.7051 -1.8641 -0.1502
 8403TIP3   OH246623   3.975   1.109  10.594 -0.2411  0.2968 -0.7174
 8403TIP3    H146624   3.893   1.060  10.596 -0.4025  0.5824  0.5690
 8403TIP3    H246625   3.961   1.176  10.526 -1.2511  0.6312 -0.1959
 8404TIP3   OH246626   3.512   1.697  16.462 -0.7087  0.5907  0.2920
 8404TIP3    H146627   3.596   1.737  16.484 -1.0529  1.4361  0.1031
 8404TIP3    H246628   3.530   1.603  16.462  0.2336  0.7592  0.2637
 8405TIP3   OH246629   5.188   3.074  11.244 -0.2588 -0.2126  0.3911
 8405TIP3    H146630   5.236   3.097  11.164 -0.8379 -1.0626 -0.2275
 8405TIP3    H246631   5.135   3.151  11.263 -0.7230 -0.2966 -0.5162
 8406TIP3   OH246632   0.082   2.283  12.244  1.1091  0.3297 -0.0404
 8406TIP3    H146633   0.118   2.307  12.158 -1.0727  0.1142 -1.0674
 8406TIP3    H246634   0.093   2.362  12.297 -2.8546  2.7656 -2.3553
 8407TIP3   OH246635   0.851   2.634   4.433  0.1104 -0.5520 -0.0358
 8407TIP3    H146636   0.860   2.586   4.351 -1.1293 -1.9859  0.6212
 8407TIP3    H246637   0.888   2.576   4.499 -1.6321 -0.7365  0.8188
 8408TIP3   OH246638   3.267   2.625   6.070 -0.4799 -0.1410 -0.5693
 8408TIP3    H146639   3.348   2.649   6.114 -0.4503  1.0095 -1.2151
 8408TIP3    H246640   3.295   2.588   5.986 -0.6289  1.5504 -1.4014
 8409TIP3   OH246641   6.688   5.866  12.524 -0.2052 -0.1838  0.0730
 8409TIP3    H146642   6.754   5.899  12.585  1.0560  0.0125 -1.3493
 8409TIP3    H246643   6.738   5.829  12.451 -1.6602 -0.7701 -0.6729
 8410TIP3   OH246644   4.829   1.104   1.050 -0.2703  0.6628  0.1257
 8410TIP3    H146645   4.878   1.029   1.017 -0.7396  0.7338 -0.7358
 8410TIP3    H246646   4.743   1.097   1.010 -0.6841  1.0497  0.9128
 8411TIP3   OH246647   6.285   5.479  14.770 -0.2515 -0.0425  0.9693
 8411TIP3    H146648   6.324   5.431  14.842 -1.2076  0.4771  1.8622
 8411TIP3    H246649   6.267   5.566  14.805  1.3076  0.9677 -0.5681
 8412TIP3   OH246650   1.121   3.054  11.772  0.3603 -0.2853 -0.0935
 8412TIP3    H146651   1.067   3.128  11.799 -0.2807 -0.7224 -0.1727
 8412TIP3    H246652   1.067   3.005  11.711 -0.5590 -2.6461  2.4243
 8413TIP3   OH246653   0.712   6.649   2.710 -0.2787 -0.7167  0.4098
 8413TIP3    H146654   0.674   6.735   2.691  0.9157  0.1095  1.5669
 8413TIP3    H246655   0.653   6.586   2.667 -1.2970  0.6538 -0.2747
 8414TIP3   OH246656   0.494   6.504  16.216 -0.2823 -0.1991 -0.1226
 8414TIP3    H146657   0.459   6.433  16.163 -0.3904 -0.3373  0.1334
 8414TIP3    H246658   0.436   6.578  16.197 -1.1879 -0.6316  0.8734
 8415TIP3   OH246659   3.078   4.660   2.410 -0.6865  0.3565 -0.4646
 8415TIP3    H146660   3.133   4.601   2.462 -0.1008  1.4154  0.1386
 8415TIP3    H246661   2.989   4.629   2.425 -0.2580 -3.6133 -4.1087
 8416TIP3   OH246662   3.051   5.477   2.464  0.0242  0.1673 -0.3950
 8416TIP3    H146663   2.991   5.540   2.504 -1.0748 -0.1711 -1.4477
 8416TIP3    H246664   3.026   5.393   2.503  0.6722  0.1912  0.0945
 8417TIP3   OH246665   3.531   3.687   0.691 -0.2290 -0.3351 -0.1551
 8417TIP3    H146666   3.592   3.616   0.709 -0.6994 -0.8943 -0.7527
 8417TIP3    H246667   3.506   3.676   0.599  0.1177  0.9254 -0.4311
 8418TIP3   OH246668   0.767   1.915  14.949  0.3087 -0.1305  0.1890
 8418TIP3    H146669   0.783   1.944  14.859 -0.7116 -1.6026 -0.5124
 8418TIP3    H246670   0.671   1.916  14.957  0.3829 -0.4013  1.1227
 8419TIP3   OH246671   0.525   5.995  16.469 -0.2912  0.2752 -0.0822
 8419TIP3    H146672   0.487   6.029  16.549  0.5972  0.4006  0.2928
 8419TIP3    H246673   0.558   6.072  16.423  0.3089  0.0822  0.0200
 8420TIP3   OH246674   5.095   6.451  11.156 -0.2780 -0.1258  0.5766
 8420TIP3    H146675   5.079   6.544  11.135 -0.6156 -0.5836 -1.4048
 8420TIP3    H246676   5.066   6.442  11.247 -0.1342  1.7300  0.8474
 8421TIP3   OH246677   1.351   3.579  11.865 -0.3045 -0.0725  0.1492
 8421TIP3    H146678   1.418   3.648  11.859 -0.1340 -0.3664 -2.0731
 8421TIP3    H246679   1.393   3.502  11.826 -1.6429 -0.5013 -0.4814
 8422TIP3   OH246680   5.094   5.237   5.929  0.1763 -0.1501 -0.1757
 8422TIP3    H146681   5.086   5.297   6.003 -1.1825 -0.9473  0.3582
 8422TIP3    H246682   5.185   5.244   5.902  0.4331  0.9393  0.9005
 8423TIP3   OH246683   0.262   0.118  14.952  0.3016 -0.4547  0.6467
 8423TIP3    H146684   0.224   0.153  15.033  1.8282 -0.3805  1.3573
 8423TIP3    H246685   0.318   0.189  14.919  0.1058 -0.6803 -0.2025
 8424TIP3   OH246686   0.237   0.700  13.492  0.2378 -0.1025 -0.0257
 8424TIP3    H146687   0.203   0.611  13.503  0.3958  0.0732  2.3048
 8424TIP3    H246688   0.160   0.753  13.471 -0.1562 -0.5122  0.3561
 8425TIP3   OH246689   2.283   5.055  15.493 -0.1352  0.0075  0.2975
 8425TIP3    H146690   2.258   4.967  15.465  2.5005 -0.3820 -1.1710
 8425TIP3    H246691   2.267   5.109  15.416  1.3869  0.1409  0.0563
 8426TIP3   OH246692   0.515   5.723   1.187 -0.5446 -0.6252 -0.8134
 8426TIP3    H146693   0.566   5.778   1.128  0.0335 -0.7916 -0.4745
 8426TIP3    H246694   0.435   5.773   1.203  1.0171  1.3498  1.5227
 8427TIP3   OH246695   0.124   1.876  12.858 -0.5787  0.3246 -0.2657
 8427TIP3    H146696   0.117   1.841  12.947 -0.1485 -0.0705 -0.3853
 8427TIP3    H246697   0.111   1.799  12.802 -0.4302  0.4988 -0.5382
 8428TIP3   OH246698   0.169   2.361  14.286  0.0917 -0.0887  0.3034
 8428TIP3    H146699   0.134   2.314  14.210 -2.2150  0.9734  0.6432
 8428TIP3    H246700   0.181   2.294  14.353  2.7802 -1.1605 -1.1108
 8429TIP3   OH246701   1.623   2.978   2.925  0.7694 -0.2365 -0.0418
 8429TIP3    H146702   1.569   3.000   3.001  1.1279 -1.1518  0.4924
 8429TIP3    H246703   1.713   2.996   2.954  1.1542 -2.8913  0.6507
 8430TIP3   OH246704   5.970   0.812   4.738 -0.0909  0.0371 -0.3779
 8430TIP3    H146705   6.037   0.770   4.684 -2.1443 -1.9415 -1.5604
 8430TIP3    H246706   6.009   0.815   4.826  1.2404 -1.8620 -0.8276
 8431TIP3   OH246707   1.056   6.696   0.330 -0.3528 -0.0674  0.3575
 8431TIP3    H146708   1.003   6.700   0.251  1.1040 -2.0526 -0.7810
 8431TIP3    H246709   1.027   6.772   0.381 -2.7600  0.1198 -1.1223
 8432TIP3   OH246710   0.996   6.616  11.392  0.5804 -0.1500  0.1362
 8432TIP3    H146711   0.927   6.652  11.337 -0.2676 -0.6252  0.8564
 8432TIP3    H246712   1.075   6.661  11.364  0.0485  0.1314 -0.9699
 8433TIP3   OH246713   1.730   4.494   0.374  0.2229  0.3026  0.2818
 8433TIP3    H146714   1.753   4.421   0.431  0.1660  0.1586  0.1227
 8433TIP3    H246715   1.635   4.486   0.362  0.4706 -0.7722 -1.3203
 8434TIP3   OH246716   0.744   4.845   0.281 -0.2201  0.1820  0.6460
 8434TIP3    H146717   0.815   4.882   0.334  0.1633 -0.8705  0.8818
 8434TIP3    H246718   0.776   4.851   0.191 -0.7074  1.6053  0.5395
 8435TIP3   OH246719   5.823   5.690  16.435  0.1629 -0.1510  0.1914
 8435TIP3    H146720   5.842   5.781  16.456 -1.3355  0.2177  0.0570
 8435TIP3    H246721   5.840   5.643  16.517  0.4782  0.3170  0.4003
 8436TIP3   OH246722   4.531   6.634  12.125 -0.3720 -0.2371  0.5171
 8436TIP3    H146723   4.443   6.665  12.146 -0.6055 -0.4517 -0.1174
 8436TIP3    H246724   4.551   6.571  12.194  0.3985  1.7779  2.2507
 8437TIP3   OH246725   4.682   0.977  16.140  0.5749 -0.7508  0.1194
 8437TIP3    H146726   4.627   0.900  16.152 -0.9921  0.2016 -0.5385
 8437TIP3    H246727   4.644   1.043  16.198  0.8360  0.0189 -0.5511
 8438TIP3   OH246728   3.491   4.307   5.513 -0.3591 -0.2416  0.1899
 8438TIP3    H146729   3.545   4.385   5.527 -1.3518  0.3286  0.9811
 8438TIP3    H246730   3.529   4.241   5.571 -0.2304  0.0190  0.4059
 8439TIP3   OH246731   1.099   1.896  16.188  0.0904 -0.0186 -0.2465
 8439TIP3    H146732   1.135   1.981  16.163 -2.2387  0.8610 -0.8723
 8439TIP3    H246733   1.136   1.835  16.125 -0.3175  1.0359 -1.5725
 8440TIP3   OH246734   6.199   0.871   3.076  0.2903  0.5150  0.4298
 8440TIP3    H146735   6.109   0.878   3.044  0.5674 -0.2863 -0.5372
 8440TIP3    H246736   6.234   0.960   3.068 -0.2091  0.6928  0.1996
 8441TIP3   OH246737   4.890   4.706  11.193 -0.2357  0.5783  0.0123
 8441TIP3    H146738   4.861   4.710  11.285 -1.2622  0.5289 -0.3026
 8441TIP3    H246739   4.895   4.798  11.167 -1.6609  0.5726 -0.3891
 8442TIP3   OH246740   1.226   4.367   3.726 -0.2732  0.8849  0.0897
 8442TIP3    H146741   1.314   4.329   3.728  0.5968  2.7911  0.4824
 8442TIP3    H246742   1.174   4.303   3.677  1.6968  0.4229 -1.5801
 8443TIP3   OH246743   3.458   3.242  11.426  0.4065 -0.3235  0.1956
 8443TIP3    H146744   3.458   3.260  11.520  1.2108  0.3163  0.0842
 8443TIP3    H246745   3.453   3.328  11.386  4.0306 -0.2301 -0.3614
 8444TIP3   OH246746   2.327   6.667   3.157  0.5294 -0.3523 -0.4370
 8444TIP3    H146747   2.341   6.657   3.063  3.3615  0.7234 -0.2412
 8444TIP3    H246748   2.321   6.762   3.170  0.2776 -0.4822  0.4587
 8445TIP3   OH246749   3.549   1.260   1.349  0.7434  0.0089  0.0738
 8445TIP3    H146750   3.630   1.308   1.364  0.4971  0.2795  0.5568
 8445TIP3    H246751   3.484   1.329   1.332  0.5350 -0.1911  0.0578
 8446TIP3   OH246752   4.604   5.791   1.572  0.2554 -0.3623  0.4508
 8446TIP3    H146753   4.621   5.762   1.482  1.0040 -0.6183  0.6690
 8446TIP3    H246754   4.599   5.709   1.622  1.6197 -0.1608  0.9428
 8447TIP3   OH246755   5.650   1.126  16.714  0.7305  0.4732 -0.0864
 8447TIP3    H146756   5.576   1.133  16.774  1.5746  0.3715  1.0080
 8447TIP3    H246757   5.727   1.133  16.770  1.5598 -0.2359 -1.0885
 8448TIP3   OH246758   1.721   4.857   4.760 -0.0303 -0.5634 -0.5059
 8448TIP3    H146759   1.761   4.788   4.813  0.7793  0.0664 -0.2800
 8448TIP3    H246760   1.752   4.938   4.799 -2.1853 -0.0019  0.1989
 8449TIP3   OH246761   4.563   0.356   1.495  0.4974  0.0869 -0.1691
 8449TIP3    H146762   4.561   0.431   1.554  0.2910 -0.3682  0.4163
 8449TIP3    H246763   4.491   0.372   1.434  2.4674  1.9968 -2.1499
 8450TIP3   OH246764   5.627   5.206   4.518  0.9381  0.0015  0.6986
 8450TIP3    H146765   5.639   5.116   4.546  0.9145 -0.2406 -0.0454
 8450TIP3    H246766   5.707   5.228   4.470  0.6624  0.1525  0.3023
 8451TIP3   OH246767   3.007   1.020  12.734 -0.1890 -0.2011 -0.3428
 8451TIP3    H146768   3.080   0.975  12.775 -1.2497 -1.9792 -0.2986
 8451TIP3    H246769   2.996   1.101  12.785  0.5541 -0.8108  0.8156
 8452TIP3   OH246770   4.111   4.670  12.195 -0.3675 -0.4201  1.0776
 8452TIP3    H146771   4.188   4.720  12.224 -0.9300  1.7193 -0.8887
 8452TIP3    H246772   4.043   4.692  12.258 -0.2275  0.2259  1.0131
 8453TIP3   OH246773   6.435   5.592   5.348 -0.2074 -0.1536 -0.5099
 8453TIP3    H146774   6.412   5.507   5.311  1.3703 -0.6440 -0.4495
 8453TIP3    H246775   6.455   5.573   5.440  0.4112  0.2184 -0.5586
 8454TIP3   OH246776   2.608   3.494   0.142 -0.5576 -0.1519 -0.2667
 8454TIP3    H146777   2.659   3.573   0.156 -0.9763  0.1414 -0.3848
 8454TIP3    H246778   2.517   3.521   0.156 -0.8049 -0.3305 -1.4574
 8455TIP3   OH246779   4.746   3.778   2.429 -0.1513 -0.8226 -0.0539
 8455TIP3    H146780   4.724   3.730   2.509 -0.7848 -0.0904  0.2242
 8455TIP3    H246781   4.671   3.835   2.414  0.8110  0.5129 -0.0435
 8456TIP3   OH246782   0.278   4.390   6.341 -0.1661 -0.6485  0.1578
 8456TIP3    H146783   0.369   4.374   6.366  0.1543 -0.1890 -0.6876
 8456TIP3    H246784   0.275   4.482   6.318 -0.1416 -1.2716 -2.6376
 8457TIP3   OH246785   4.741   1.829   0.362 -0.5268  0.3516 -0.3216
 8457TIP3    H146786   4.794   1.770   0.415 -0.5978 -0.3628 -1.0212
 8457TIP3    H246787   4.764   1.917   0.392  0.0496 -0.0089  0.3017
 8458TIP3   OH246788   4.948   4.746  15.483  0.3386  0.2024 -0.0791
 8458TIP3    H146789   4.961   4.766  15.576  1.6524 -0.7816 -0.0338
 8458TIP3    H246790   5.028   4.776  15.441  0.9937 -1.9589 -0.4660
 8459TIP3   OH246791   4.914   3.234   5.080 -0.0375  0.6837 -0.2697
 8459TIP3    H146792   4.858   3.169   5.037  1.3217  1.1425 -2.9474
 8459TIP3    H246793   4.994   3.236   5.027  0.9371  2.8506  1.1292
 8460TIP3   OH246794   2.880   2.432  15.903 -0.6217  0.6353  0.3919
 8460TIP3    H146795   2.938   2.482  15.846 -1.5261  1.7591  0.4217
 8460TIP3    H246796   2.926   2.429  15.987 -0.6588  1.6422  0.4554
 8461TIP3   OH246797   0.954   5.925   1.365 -0.5088  0.6559  0.1752
 8461TIP3    H146798   0.918   6.006   1.401 -0.4941  0.1402  1.4162
 8461TIP3    H246799   0.922   5.856   1.424  0.0375 -0.1620 -0.4541
 8462TIP3   OH246800   0.592   5.589  10.737 -0.1174 -0.2198 -0.1717
 8462TIP3    H146801   0.591   5.544  10.653  2.0666 -0.0233 -0.3458
 8462TIP3    H246802   0.507   5.567  10.777  0.0773 -2.8922 -1.0672
 8463TIP3   OH246803   5.904   1.863   3.368  0.2642  0.3575  0.0461
 8463TIP3    H146804   5.908   1.772   3.396  1.4077  0.5634  0.6296
 8463TIP3    H246805   5.933   1.913   3.444 -0.6549  1.2377 -0.1637
 8464TIP3   OH246806   4.509   5.950  12.748 -0.3638 -0.1860  0.0497
 8464TIP3    H146807   4.534   5.892  12.677 -1.6522 -1.2071  0.3715
 8464TIP3    H246808   4.589   5.963  12.799  0.1048 -1.0924 -0.4398
 8465TIP3   OH246809   1.613   3.889  12.440  0.2974  0.2234 -0.2201
 8465TIP3    H146810   1.535   3.878  12.495  1.1874 -0.7863  0.8894
 8465TIP3    H246811   1.581   3.874  12.351 -1.3616  2.8084 -0.1580
 8466TIP3   OH246812   0.721   3.759  14.739 -0.3342  0.0952 -0.1749
 8466TIP3    H146813   0.722   3.850  14.710  0.0822 -0.2921 -1.4766
 8466TIP3    H246814   0.712   3.708  14.658 -1.4620 -0.9980  0.5894
 8467TIP3   OH246815   2.194   2.270  12.307  0.2070  0.0727 -0.0266
 8467TIP3    H146816   2.118   2.327  12.304 -0.1357 -0.3067  0.9684
 8467TIP3    H246817   2.252   2.310  12.372  0.7526  0.2286 -0.5997
 8468TIP3   OH246818   1.236   4.903  13.054  0.1542 -0.9138  0.0595
 8468TIP3    H146819   1.179   4.924  13.128  2.4927  0.1667  1.6708
 8468TIP3    H246820   1.259   4.811  13.066 -0.2736 -1.0192  0.0835
 8469TIP3   OH246821   0.041   1.021  15.450 -0.2125 -0.6257  0.9470
 8469TIP3    H146822   0.056   1.115  15.440  2.4501 -1.0354  0.3870
 8469TIP3    H246823   0.055   1.005  15.543 -0.9460 -0.4464  1.0945
 8470TIP3   OH246824   4.643   5.736  15.800 -0.4548  0.1018 -0.4158
 8470TIP3    H146825   4.642   5.665  15.735 -1.0040  1.3739 -1.8756
 8470TIP3    H246826   4.551   5.762  15.807 -0.4606 -0.3091  1.2387
 8471TIP3   OH246827   3.793   1.395   5.377  0.5176  0.2252  0.4767
 8471TIP3    H146828   3.806   1.365   5.287 -0.0322  1.0669  0.1063
 8471TIP3    H246829   3.707   1.362   5.401  1.4850 -1.8004  1.4696
 8472TIP3   OH246830   4.569   5.468   3.735  0.1644  0.1712  0.3143
 8472TIP3    H146831   4.589   5.498   3.823 -0.5092  0.1598  0.4720
 8472TIP3    H246832   4.651   5.480   3.686  0.5111  0.2586  0.9130
 8473TIP3   OH246833   6.541   1.971   4.913  1.0032 -0.1503  0.5699
 8473TIP3    H146834   6.612   1.944   4.855  0.2434 -0.8577 -0.0632
 8473TIP3    H246835   6.574   2.050   4.956  1.4623  0.6391 -1.1272
 8474TIP3   OH246836   5.603   0.843   0.581  0.5806 -0.3511  0.1446
 8474TIP3    H146837   5.647   0.917   0.538  3.0953 -0.9157  1.6149
 8474TIP3    H246838   5.633   0.846   0.671  0.9981 -3.3550  0.1823
 8475TIP3   OH246839   1.145   1.390   1.470  0.5755  0.5019  0.3261
 8475TIP3    H146840   1.207   1.433   1.529  2.4502 -0.4309 -0.8505
 8475TIP3    H246841   1.200   1.338   1.411 -1.2909  0.2911 -1.3492
 8476TIP3   OH246842   3.464   1.736  12.297  0.2023 -0.2064 -0.1610
 8476TIP3    H146843   3.370   1.721  12.300  0.1965 -0.4685 -1.1554
 8476TIP3    H246844   3.501   1.649  12.280  0.6070 -0.0622 -0.0270
 8477TIP3   OH246845   6.575   0.978  10.722 -0.0231 -0.0782  0.6439
 8477TIP3    H146846   6.610   1.057  10.681  1.2950 -0.8206  0.2874
 8477TIP3    H246847   6.614   0.906  10.672 -3.4918 -1.0114 -1.0373
 8478TIP3   OH246848   0.843   4.781   4.084  0.3969 -0.0984 -0.5851
 8478TIP3    H146849   0.792   4.727   4.024  0.3050 -0.2245 -0.3958
 8478TIP3    H246850   0.866   4.721   4.156 -0.4756  0.3352  0.0771
 8479TIP3   OH246851   1.239   0.543  13.814 -0.0682  0.0618  1.0188
 8479TIP3    H146852   1.323   0.561  13.773 -0.3904 -0.5383  0.0495
 8479TIP3    H246853   1.220   0.621  13.866  0.7831  0.4685  0.7384
 8480TIP3   OH246854   0.709   6.005   5.693  0.1500 -0.0925 -0.1300
 8480TIP3    H146855   0.733   6.050   5.612  0.6607 -0.9642 -0.4811
 8480TIP3    H246856   0.709   6.073   5.760 -2.0602  1.0056 -1.1495
 8481TIP3   OH246857   2.909   5.027  15.443  0.7660  0.6085  0.0236
 8481TIP3    H146858   2.894   5.110  15.398 -0.4627 -0.0962 -0.9376
 8481TIP3    H246859   2.828   4.977  15.430  0.7978 -0.0964  2.0464
 8482TIP3   OH246860   0.190   2.499  13.290 -0.5041 -0.4150  0.2224
 8482TIP3    H146861   0.259   2.471  13.230  0.0554  0.9714  0.1741
 8482TIP3    H246862   0.149   2.418  13.319  1.3417 -1.3219  0.4883
 8483TIP3   OH246863   2.544   2.738  15.718  0.3373  0.6279  0.2838
 8483TIP3    H146864   2.581   2.712  15.802 -0.1288  0.7922  0.5395
 8483TIP3    H246865   2.560   2.663  15.660 -2.4539 -0.9905  1.4280
 8484TIP3   OH246866   5.692   4.552   5.863  0.3325  0.2124 -0.0120
 8484TIP3    H146867   5.628   4.526   5.796 -0.1655  0.4086  0.3808
 8484TIP3    H246868   5.769   4.499   5.844  0.5539  0.9650 -1.3549
 8485TIP3   OH246869   5.924   5.198   3.374 -0.1404  1.0451 -0.3279
 8485TIP3    H146870   5.875   5.132   3.325 -1.0683  1.3482  0.1604
 8485TIP3    H246871   5.879   5.203   3.458  0.2515  1.9006 -0.1593
 8486TIP3   OH246872   4.402   2.859   4.298  0.0475  0.4672 -0.7944
 8486TIP3    H146873   4.422   2.915   4.223  1.3113 -0.3255 -1.0910
 8486TIP3    H246874   4.464   2.787   4.291 -1.9405 -1.3483 -0.8023
 8487TIP3   OH246875   5.700   3.619   2.833  0.3259 -0.2603 -0.4770
 8487TIP3    H146876   5.675   3.684   2.899 -0.1731  0.7123 -1.5825
 8487TIP3    H246877   5.791   3.597   2.854 -0.1197 -0.7070  1.1043
 8488TIP3   OH246878   2.797   4.542  13.636 -0.4492 -0.4402  0.2971
 8488TIP3    H146879   2.743   4.507  13.565  2.7486 -1.4736 -1.8667
 8488TIP3    H246880   2.820   4.630  13.608 -2.5688  0.8292  2.2370
 8489TIP3   OH246881   0.318   0.583  11.892  0.0685 -0.2311  0.0490
 8489TIP3    H146882   0.412   0.575  11.876 -0.2091 -0.7638 -1.4235
 8489TIP3    H246883   0.280   0.602  11.807 -1.2921 -1.2392  0.3877
 8490TIP3   OH246884   0.336   5.430   6.424 -0.4320  0.1636 -0.4188
 8490TIP3    H146885   0.376   5.397   6.504 -1.2260 -3.1435 -1.2262
 8490TIP3    H246886   0.247   5.455   6.450 -0.7081 -0.9539 -0.2334
 8491TIP3   OH246887   0.475   4.785   6.146  0.6052  0.2340  0.5630
 8491TIP3    H146888   0.411   4.731   6.192 -0.2608  0.8601  0.1203
 8491TIP3    H246889   0.508   4.728   6.076 -0.8261  0.4611 -0.3487
 8492TIP3   OH246890   1.475   5.813  12.409 -0.2352 -0.4761 -0.5353
 8492TIP3    H146891   1.387   5.834  12.376  0.1776  0.2681 -1.1991
 8492TIP3    H246892   1.529   5.808  12.331  0.1939 -1.6271 -0.1834
 8493TIP3   OH246893   4.091   0.116   3.416  0.0657  0.3881  0.6070
 8493TIP3    H146894   4.127   0.118   3.505 -3.1259  0.8017  2.0546
 8493TIP3    H246895   4.009   0.067   3.425 -0.8426  1.2940 -1.9215
 8494TIP3   OH246896   5.607   0.944  13.391  0.1645 -0.2788 -0.2953
 8494TIP3    H146897   5.666   0.981  13.456  0.0334  1.6955 -1.2265
 8494TIP3    H246898   5.651   0.864  13.361  2.0736  0.7913 -0.5055
 8495TIP3   OH246899   0.522   3.633   4.994  0.3934 -0.3769 -0.5091
 8495TIP3    H146900   0.526   3.724   5.023 -0.7303  0.2274 -2.1154
 8495TIP3    H246901   0.612   3.613   4.966  0.4832  0.5390 -0.9268
 8496TIP3   OH246902   2.166   4.803  15.474 -0.0427  0.1870  0.1969
 8496TIP3    H146903   2.182   4.709  15.466 -3.0229 -0.4283  0.2642
 8496TIP3    H246904   2.123   4.812  15.559 -2.4666  1.1265 -1.0447
 8497TIP3   OH246905   1.956   1.555  12.534 -0.6057 -0.3875  0.6798
 8497TIP3    H146906   1.939   1.649  12.531 -1.0541 -0.4833 -0.1893
 8497TIP3    H246907   2.051   1.547  12.537 -0.5865  0.1101  2.2075
 8498TIP3   OH246908   6.247   1.050   0.314 -0.4774  0.2803  0.1545
 8498TIP3    H146909   6.182   0.996   0.360 -0.1866  0.0683  0.3204
 8498TIP3    H246910   6.200   1.130   0.293 -0.8357  0.0756  0.1546
 8499TIP3   OH246911   3.610   0.861  11.980  0.4712 -0.1445  0.3955
 8499TIP3    H146912   3.624   0.938  12.036  1.0475 -1.4138  2.0700
 8499TIP3    H246913   3.515   0.853  11.974  0.3889  1.2881 -0.6815
 8500TIP3   OH246914   5.210   2.347   2.596  0.4952 -0.0780  0.0971
 8500TIP3    H146915   5.215   2.271   2.655  0.6724 -1.5312 -1.7033
 8500TIP3    H246916   5.301   2.376   2.586  0.3135  1.2314  1.7684
 8501TIP3   OH246917   1.950   0.500   6.217  0.1141 -0.4783 -0.1641
 8501TIP3    H146918   1.997   0.505   6.300  0.8561  0.9658 -0.6180
 8501TIP3    H246919   1.861   0.527   6.237  0.5213  0.7932  0.0330
 8502TIP3   OH246920   6.250   5.678   4.254  0.3237  0.3292  0.5891
 8502TIP3    H146921   6.223   5.608   4.314 -1.2359  0.1531 -0.2662
 8502TIP3    H246922   6.291   5.633   4.180 -2.1495  0.1054 -0.7455
 8503TIP3   OH246923   6.094   2.095  11.430 -0.0942 -0.2870  0.4059
 8503TIP3    H146924   6.003   2.065  11.437 -0.2707  0.2542  0.4418
 8503TIP3    H246925   6.114   2.090  11.336 -0.5005  0.5737  0.2630
 8504TIP3   OH246926   2.575   5.053  13.278  1.0447  0.7372 -0.3668
 8504TIP3    H146927   2.589   4.969  13.322  0.4856  0.4352 -0.7556
 8504TIP3    H246928   2.651   5.062  13.221  0.9573  0.3523 -0.5478
 8505TIP3   OH246929   0.822   5.801   2.792  0.1149 -0.1031 -0.0395
 8505TIP3    H146930   0.794   5.774   2.704  0.7481  0.3281 -0.3833
 8505TIP3    H246931   0.873   5.881   2.777  0.3793 -0.1295  0.7048
 8506TIP3   OH246932   5.681   1.412  11.271 -0.4368  0.1185 -0.6055
 8506TIP3    H146933   5.675   1.321  11.243 -3.7868  0.0626 -0.0991
 8506TIP3    H246934   5.616   1.458  11.218 -0.9035  1.6203  1.1587
 8507TIP3   OH246935   1.865   6.552  12.211  0.0610  0.0864  1.0916
 8507TIP3    H146936   1.894   6.631  12.165  1.0651 -0.2373  1.1635
 8507TIP3    H246937   1.824   6.585  12.291 -0.0761  0.5578  0.8333
 8508TIP3   OH246938   5.402   5.621  14.110 -0.3649  0.2285 -0.3273
 8508TIP3    H146939   5.347   5.607  14.033  2.0844  0.9181 -2.3948
 8508TIP3    H246940   5.433   5.534  14.134 -0.5885  0.0755 -0.5891
 8509TIP3   OH246941   5.876   4.397   1.554 -0.5730 -0.4455 -0.4385
 8509TIP3    H146942   5.922   4.480   1.562 -0.1384 -0.8953  3.2507
 8509TIP3    H246943   5.785   4.421   1.540 -0.1713  0.5769 -1.4176
 8510TIP3   OH246944   3.771   4.240  16.179  0.4803  0.2665  0.3431
 8510TIP3    H146945   3.812   4.175  16.123 -0.8679  0.2711 -0.7231
 8510TIP3    H246946   3.770   4.200  16.266 -2.3813 -2.2553 -0.6657
 8511TIP3   OH246947   5.988   1.000   4.545 -0.4038 -0.5150  0.5638
 8511TIP3    H146948   5.984   0.923   4.489  2.1775  0.1031 -0.6664
 8511TIP3    H246949   5.965   0.969   4.632 -0.9857 -2.3120 -0.1984
 8512TIP3   OH246950   0.257   4.782   2.621  0.1007  0.6828  0.2263
 8512TIP3    H146951   0.190   4.809   2.684 -1.9318 -2.2443 -0.4572
 8512TIP3    H246952   0.336   4.772   2.673 -1.2222 -0.4647  2.1595
 8513TIP3   OH246953   2.812   0.320   0.863  0.0540  0.0407 -0.4256
 8513TIP3    H146954   2.766   0.280   0.790 -2.2224  0.0270  0.9265
 8513TIP3    H246955   2.749   0.382   0.901  0.8272 -0.5100  1.9775
 8514TIP3   OH246956   2.138   1.875  11.104 -0.5277  0.2068  0.0498
 8514TIP3    H146957   2.173   1.956  11.067  0.1570  0.2132  0.6825
 8514TIP3    H246958   2.045   1.893  11.118 -1.1619 -0.2624 -2.8912
 8515TIP3   OH246959   5.300   6.639   4.928 -1.1738  0.2962 -0.2502
 8515TIP3    H146960   5.280   6.550   4.899 -2.1757  0.4005  0.0844
 8515TIP3    H246961   5.228   6.663   4.986  0.3689  0.3679  1.7829
 8516TIP3   OH246962   2.997   2.693  11.968  0.1176  0.7471  0.2184
 8516TIP3    H146963   2.933   2.736  11.910 -1.4271 -0.1238  1.2087
 8516TIP3    H246964   3.040   2.766  12.013 -0.3537  1.3481 -0.2693
 8517TIP3   OH246965   4.339   5.760   2.800  0.3677 -0.1923 -0.4971
 8517TIP3    H146966   4.258   5.724   2.764 -0.5180 -1.5444  2.4578
 8517TIP3    H246967   4.409   5.707   2.761 -0.3446 -0.4578 -1.4404
 8518TIP3   OH246968   5.070   1.596   5.229  0.3343 -0.3324  0.4539
 8518TIP3    H146969   5.017   1.642   5.294  2.3133 -0.1863  2.0666
 8518TIP3    H246970   5.058   1.503   5.249 -0.0414 -0.3462  0.1836
 8519TIP3   OH246971   6.534   5.142   4.705  0.0515 -0.2817 -0.0567
 8519TIP3    H146972   6.596   5.196   4.656  2.1605 -1.9704  0.6210
 8519TIP3    H246973   6.525   5.186   4.789 -0.5228  0.5295 -0.5279
 8520TIP3   OH246974   1.831   6.677   5.179  0.3523  0.7277  0.0477
 8520TIP3    H146975   1.893   6.670   5.253  1.1952 -0.2027 -0.7124
 8520TIP3    H246976   1.813   6.771   5.172 -0.3589  0.7777  1.9181
 8521TIP3   OH246977   1.960   4.366   0.745 -0.1502  0.0937  0.5778
 8521TIP3    H146978   1.909   4.405   0.816 -0.4764 -0.6222  0.7449
 8521TIP3    H246979   1.981   4.278   0.776 -0.3578 -0.2491 -0.2376
 8522TIP3   OH246980   1.926   0.310   3.513 -0.0664  0.1228  0.1179
 8522TIP3    H146981   1.837   0.281   3.494 -0.4830  2.4394 -2.1107
 8522TIP3    H246982   1.918   0.359   3.594 -0.5471 -0.7294  0.6019
 8523TIP3   OH246983   2.978   0.170   1.010 -0.6087  0.4068 -0.0448
 8523TIP3    H146984   2.945   0.095   1.059  0.7262 -0.8201 -0.9372
 8523TIP3    H246985   2.902   0.205   0.964 -1.8696  1.5066  2.6692
 8524TIP3   OH246986   1.864   1.888   2.945 -0.4437 -0.0656 -0.4433
 8524TIP3    H146987   1.828   1.870   2.859  0.2120 -0.6351 -0.6072
 8524TIP3    H246988   1.927   1.818   2.960 -0.5950 -0.0034  0.5259
 8525TIP3   OH246989   5.413   1.560  14.024 -0.5891  0.3326  0.0728
 8525TIP3    H146990   5.399   1.502  14.098  2.6331 -1.1424 -0.3057
 8525TIP3    H246991   5.491   1.611  14.047 -0.0518  0.4918 -1.8891
 8526TIP3   OH246992   1.725   0.809   3.384 -0.5144 -0.0827 -0.2774
 8526TIP3    H146993   1.680   0.854   3.456 -1.5865 -0.2247 -0.8397
 8526TIP3    H246994   1.778   0.743   3.426 -1.5496 -0.5255  0.3667
 8527TIP3   OH246995   3.712   4.137   1.091  0.1482 -0.1895 -0.4371
 8527TIP3    H146996   3.633   4.124   1.038 -1.6630 -0.4954  2.1587
 8527TIP3    H246997   3.681   4.135   1.181  2.8859  1.5619  0.6778
 8528TIP3   OH246998   0.901   4.036  15.751  0.0836 -0.0045 -0.7678
 8528TIP3    H146999   0.906   3.941  15.743 -0.1171  0.0683 -1.8360
 8528TIP3    H247000   0.848   4.065  15.677  0.0332  0.9365 -0.3911
 8529TIP3   OH247001   2.635   3.862  11.184  0.3584  0.0144  0.3344
 8529TIP3    H147002   2.588   3.906  11.113  0.4561 -0.0010  0.2590
 8529TIP3    H247003   2.566   3.827  11.240  0.2799 -0.3621  0.0060
 8530TIP3   OH247004   1.626   6.552  12.078  0.2303  0.4036  0.2089
 8530TIP3    H147005   1.719   6.539  12.096  0.6400 -1.4154 -2.5695
 8530TIP3    H247006   1.582   6.486  12.132  0.7235  0.0192  0.1529
 8531TIP3   OH247007   6.775   5.690   0.715  0.6109 -0.2508  0.5619
 8531TIP3    H147008   6.802   5.673   0.625  0.1696  0.6696  0.2374
 8531TIP3    H247009   6.840   5.646   0.769  1.7194  0.4100 -0.1986
 8532TIP3   OH247010   6.014   3.641  11.637 -0.0154 -0.3067  0.0568
 8532TIP3    H147011   5.998   3.589  11.715  0.1831  0.3301  0.5293
 8532TIP3    H247012   5.927   3.655  11.599 -0.2723  0.5120  0.9036
 8533TIP3   OH247013   6.302   3.751  11.234  0.4485 -0.4916  0.3350
 8533TIP3    H147014   6.259   3.677  11.278 -1.0221 -0.2398 -0.5983
 8533TIP3    H247015   6.246   3.826  11.255  1.5844  0.2545  0.7666
 8534TIP3   OH247016   3.466   0.514  11.520 -0.1937  0.5853 -0.0327
 8534TIP3    H147017   3.468   0.474  11.433 -0.3118 -0.0577  0.2572
 8534TIP3    H247018   3.432   0.445  11.577  0.5171  0.7790  0.6358
 8535TIP3   OH247019   3.878   3.428  15.682  0.8078  0.0290 -0.1479
 8535TIP3    H147020   3.895   3.489  15.611  1.8530 -1.5113 -1.2941
 8535TIP3    H247021   3.957   3.374  15.687  1.1016  0.6082  2.7665
 8536TIP3   OH247022   5.327   2.639  15.388  0.7059  0.6997  0.1800
 8536TIP3    H147023   5.236   2.669  15.382 -0.7068 -2.9227  1.2762
 8536TIP3    H247024   5.372   2.688  15.319 -2.3040  1.7384 -1.2462
 8537TIP3   OH247025   4.117   3.269  13.086  0.1210 -0.0491  0.3267
 8537TIP3    H147026   4.128   3.190  13.033 -0.1690 -0.8970  1.4893
 8537TIP3    H247027   4.174   3.255  13.161 -2.1193 -0.5472  2.0406
 8538TIP3   OH247028   5.452   0.356   4.495 -0.3329  0.0564  0.4761
 8538TIP3    H147029   5.472   0.448   4.511  0.4694  0.1171 -0.7611
 8538TIP3    H247030   5.450   0.347   4.400  1.4259 -1.5422  0.5228
 8539TIP3   OH247031   5.115   0.753   6.127 -0.4375 -0.1283  0.6098
 8539TIP3    H147032   5.078   0.701   6.198 -1.7601  1.0602  0.8502
 8539TIP3    H247033   5.143   0.835   6.169 -0.7943  0.3939 -0.1385
 8540TIP3   OH247034   2.790   1.591  11.670  0.3579 -0.7292 -0.7382
 8540TIP3    H147035   2.700   1.557  11.674  0.4770 -1.0918 -1.1098
 8540TIP3    H247036   2.787   1.670  11.724 -0.1365 -0.8452 -0.5813
 8541TIP3   OH247037   1.317   1.607  11.616 -0.4737  0.3510  0.4093
 8541TIP3    H147038   1.315   1.635  11.525  1.6026 -0.9051 -0.0817
 8541TIP3    H247039   1.270   1.524  11.617  1.5828 -0.8831 -0.0651
 8542TIP3   OH247040   6.357   2.354   5.053  0.3910  0.7227 -0.1183
 8542TIP3    H147041   6.437   2.303   5.057 -0.7070 -1.1799 -1.2919
 8542TIP3    H247042   6.289   2.292   5.026 -1.0801  2.7157 -1.3143
 8543TIP3   OH247043   3.771   6.492  12.481  0.5153 -0.6287  0.1496
 8543TIP3    H147044   3.754   6.585  12.498  0.0597 -0.8856  1.1808
 8543TIP3    H247045   3.820   6.492  12.398 -1.0855  0.4041 -0.8632
 8544TIP3   OH247046   2.388   1.840  13.969  0.6795  0.0736  0.2906
 8544TIP3    H147047   2.389   1.899  14.045  0.1932  0.9666 -0.3717
 8544TIP3    H247048   2.313   1.869  13.918  1.3907 -0.0663 -0.8638
 8545TIP3   OH247049   3.741   3.821   0.465 -0.1720  0.4251 -0.2199
 8545TIP3    H147050   3.668   3.874   0.433  0.2609  0.2287 -1.5981
 8545TIP3    H247051   3.749   3.750   0.402 -0.6448 -1.2562  1.5236
 8546TIP3   OH247052   6.623   1.780   2.598  0.1483  0.3452 -0.1212
 8546TIP3    H147053   6.545   1.728   2.620  1.4611 -1.7291 -0.0193
 8546TIP3    H247054   6.692   1.743   2.654  1.2971  1.8864 -0.4579
 8547TIP3   OH247055   0.141   5.897   1.285 -0.4639  0.2086 -0.0226
 8547TIP3    H147056   0.060   5.927   1.327 -0.9012 -0.6500 -0.2289
 8547TIP3    H247057   0.131   5.802   1.280  0.4186  0.1301 -0.3517
 8548TIP3   OH247058   5.791   4.862   0.741  0.2040  0.2473 -0.0221
 8548TIP3    H147059   5.841   4.942   0.724 -0.6268  0.6518 -0.6318
 8548TIP3    H247060   5.702   4.883   0.713 -0.6494  0.0214  2.3145
 8549TIP3   OH247061   2.364   4.655   0.256  0.1572 -0.2465 -0.2008
 8549TIP3    H147062   2.383   4.690   0.169 -0.6731  1.7842  0.3720
 8549TIP3    H247063   2.350   4.732   0.311  2.1264 -1.3787  2.1279
 8550TIP3   OH247064   3.277   0.002  12.557 -0.2003 -0.1164  0.3089
 8550TIP3    H147065   3.326  -0.014  12.638  0.5007  2.6112  0.5043
 8550TIP3    H247066   3.300   0.091  12.532 -3.1195  0.3698 -1.0139
 8551TIP3   OH247067   1.427   1.735   3.744 -0.0638 -0.2474  0.2655
 8551TIP3    H147068   1.499   1.674   3.758 -0.6581 -1.1165 -0.3145
 8551TIP3    H247069   1.348   1.681   3.755 -0.5946  0.1167 -1.4861
 8552TIP3   OH247070   6.316   5.454   5.642 -0.5742  0.9649  0.8852
 8552TIP3    H147071   6.249   5.386   5.650 -1.7089  1.8477 -0.5820
 8552TIP3    H247072   6.306   5.506   5.722 -0.3025 -0.0266  1.5890
 8553TIP3   OH247073   4.707   0.196   2.741 -0.2020 -0.2522  0.3995
 8553TIP3    H147074   4.619   0.225   2.764 -0.5039 -0.3450 -0.5818
 8553TIP3    H247075   4.725   0.124   2.801 -0.4626  0.2928  1.1458
 8554TIP3   OH247076   3.962   4.670  11.063  0.2745  0.4146  1.1849
 8554TIP3    H147077   4.025   4.598  11.071 -0.4865 -0.8759 -2.4791
 8554TIP3    H247078   4.001   4.729  10.998 -2.3096 -0.6873 -1.6106
 8555TIP3   OH247079   3.523   1.060   3.553  0.9881  0.5790 -0.3401
 8555TIP3    H147080   3.608   1.066   3.596  1.1343 -1.7886 -0.1738
 8555TIP3    H247081   3.464   1.026   3.620  0.4988 -0.1864 -1.1416
 8556TIP3   OH247082   1.926   2.810  15.805  0.1058  0.1052  0.3525
 8556TIP3    H147083   1.944   2.728  15.757 -0.2781 -0.8451  1.7656
 8556TIP3    H247084   1.936   2.879  15.739 -0.4539 -1.1411 -1.0966
 8557TIP3   OH247085   1.020   2.848   4.228 -0.0874 -0.5314 -0.6969
 8557TIP3    H147086   1.082   2.776   4.216  1.8814  0.7065  1.1997
 8557TIP3    H247087   1.062   2.923   4.186 -1.6117 -0.2105 -1.7348
 8558TIP3   OH247088   2.294   0.925  15.648 -0.5392  0.2623 -0.4894
 8558TIP3    H147089   2.316   0.863  15.579 -1.1686  1.4423 -1.8282
 8558TIP3    H247090   2.310   1.011  15.609 -1.7660  0.9958  0.5088
 8559TIP3   OH247091   3.656   4.524   5.533 -0.1227  0.0853  0.0085
 8559TIP3    H147092   3.720   4.455   5.551 -0.4267 -0.0043  0.7545
 8559TIP3    H247093   3.661   4.583   5.609 -1.9017 -0.6647  0.7752
 8560TIP3   OH247094   2.927   0.635   2.872 -0.5456 -0.5481  0.1148
 8560TIP3    H147095   2.856   0.586   2.913  0.0834 -2.6701 -1.2038
 8560TIP3    H247096   2.898   0.726   2.875 -3.4949 -1.3658 -0.7379
 8561TIP3   OH247097   4.294   6.617   0.390  0.3902  0.8200 -0.7517
 8561TIP3    H147098   4.344   6.625   0.471  2.4504 -1.9907 -1.6031
 8561TIP3    H247099   4.204   6.636   0.416  1.0051  0.3045  2.1422
 8562TIP3   OH247100   1.362   2.354  15.938 -0.0487  0.2492  0.6254
 8562TIP3    H147101   1.456   2.342  15.946  0.3073  2.4000  0.2612
 8562TIP3    H247102   1.352   2.425  15.875 -2.0530 -1.9283 -1.7411
 8563TIP3   OH247103   1.055   5.229   4.974 -0.0143 -0.5832  0.1834
 8563TIP3    H147104   0.991   5.197   4.910  0.8181  0.1515 -1.0648
 8563TIP3    H247105   1.129   5.258   4.921  0.4491  0.6624  1.4559
 8564TIP3   OH247106   4.601   6.044  13.541 -0.1568 -0.3641  0.3416
 8564TIP3    H147107   4.648   6.031  13.623 -0.5221 -1.1463  0.4363
 8564TIP3    H247108   4.640   6.123  13.503 -0.5102  0.4646  1.6326
 8565TIP3   OH247109   4.947   3.743   6.037  0.0738  0.2133 -0.2200
 8565TIP3    H147110   5.020   3.682   6.028  0.9070  1.1961 -0.2916
 8565TIP3    H247111   4.988   3.826   6.061 -1.1693  0.3168  1.7950
 8566TIP3   OH247112   1.507   0.316   2.755  0.6837 -0.2012 -0.0526
 8566TIP3    H147113   1.419   0.334   2.723  1.1669 -0.6152 -1.7028
 8566TIP3    H247114   1.555   0.285   2.678  2.3593  0.3198  0.7318
 8567TIP3   OH247115   3.338   0.899   1.710 -0.1538 -0.1307  0.0850
 8567TIP3    H147116   3.372   0.962   1.646  1.9053 -1.7158 -0.4916
 8567TIP3    H247117   3.373   0.930   1.794 -2.1795  1.4803  0.4304
 8568TIP3   OH247118   0.900   2.431  10.804 -0.2525  0.1393 -0.2347
 8568TIP3    H147119   0.900   2.509  10.749  0.9658  0.2981 -0.0282
 8568TIP3    H247120   0.918   2.359  10.744 -2.1424 -0.1206 -0.5586
 8569TIP3   OH247121   0.404   0.618  14.104  0.1746 -0.3565 -0.0519
 8569TIP3    H147122   0.378   0.528  14.085  3.1216 -1.2600 -0.2330
 8569TIP3    H247123   0.407   0.660  14.018  1.2476 -0.8433 -0.2681
 8570TIP3   OH247124   6.496   2.189   3.711 -0.1535  0.2032  0.1556
 8570TIP3    H147125   6.486   2.173   3.617 -1.9737 -0.6201  0.4504
 8570TIP3    H247126   6.516   2.283   3.717  1.6915 -0.0509 -1.1115
 8571TIP3   OH247127   5.264   4.590   4.125  0.1601 -0.5944 -0.3644
 8571TIP3    H147128   5.254   4.545   4.209  2.5074  1.4882  1.1921
 8571TIP3    H247129   5.289   4.680   4.149 -1.2235  0.7049 -3.3040
 8572TIP3   OH247130   0.175   3.466   5.169 -0.3535  0.0499  0.0025
 8572TIP3    H147131   0.256   3.417   5.157  0.8287  1.9030  0.0971
 8572TIP3    H247132   0.113   3.424   5.109  0.3702 -1.9651  0.5697
 8573TIP3   OH247133   0.999   1.491   0.242 -0.6282  0.3506  0.0979
 8573TIP3    H147134   0.962   1.512   0.327 -0.0063 -1.4070  0.8492
 8573TIP3    H247135   1.072   1.552   0.232 -1.7382  1.7141  0.0204
 8574TIP3   OH247136   2.436   3.375   4.429 -0.8916  0.2823  0.0339
 8574TIP3    H147137   2.400   3.440   4.490 -1.4843 -0.6126  0.6595
 8574TIP3    H247138   2.373   3.302   4.432 -0.4332 -0.1609 -0.9407
 8575TIP3   OH247139   0.352   6.019   3.682 -0.2372 -0.4473  0.0648
 8575TIP3    H147140   0.299   5.943   3.705  0.7531 -0.6028  2.1251
 8575TIP3    H247141   0.424   5.984   3.629 -0.6819 -0.6672 -0.3974
 8576TIP3   OH247142   0.046   3.718   4.816 -0.1129 -0.8653  0.1114
 8576TIP3    H147143   0.017   3.745   4.903 -2.1936 -0.7048 -0.5884
 8576TIP3    H247144  -0.000   3.636   4.800  0.6075 -1.1360 -0.6840
 8577TIP3   OH247145   3.795   2.562  12.200 -0.3061 -0.6439  0.2031
 8577TIP3    H147146   3.744   2.613  12.263 -0.1151 -1.4178  0.9999
 8577TIP3    H247147   3.872   2.615  12.183 -0.0574 -0.7059  1.1082
 8578TIP3   OH247148   0.873   3.285  14.520 -0.5205 -0.2267  0.0428
 8578TIP3    H147149   0.914   3.224  14.582 -0.5891  0.0968  0.4135
 8578TIP3    H247150   0.922   3.273  14.439 -0.8976 -1.1781 -0.0559
 8579TIP3   OH247151   4.424   5.372  11.764  0.5356 -0.2788  0.3526
 8579TIP3    H147152   4.400   5.282  11.784 -1.4997  0.6151  2.3762
 8579TIP3    H247153   4.472   5.367  11.682 -2.1691 -2.8665 -1.2365
 8580TIP3   OH247154   2.693   1.997  16.777 -0.5301 -0.7446  0.3784
 8580TIP3    H147155   2.646   1.965  16.700 -2.9760  2.5088  0.3305
 8580TIP3    H247156   2.778   2.024  16.743 -1.0854 -0.5647 -0.9604
 8581TIP3   OH247157   4.732   1.316  16.294 -0.0000  0.4499  0.2509
 8581TIP3    H147158   4.701   1.351  16.211 -0.5486  3.9009  1.7261
 8581TIP3    H247159   4.815   1.274  16.273  0.8465  2.9164 -1.7888
 8582TIP3   OH247160   4.448   3.790   1.080 -0.1015 -0.2805 -0.0125
 8582TIP3    H147161   4.426   3.881   1.061 -1.5937  0.2039  3.2581
 8582TIP3    H247162   4.538   3.793   1.112 -0.6645  0.3718  1.5988
 8583TIP3   OH247163   0.365   6.075  15.290  0.1465  0.2214  0.1742
 8583TIP3    H147164   0.451   6.105  15.320 -0.0147  1.2736 -0.3821
 8583TIP3    H247165   0.378   6.054  15.197  0.2626 -1.5074  0.5502
 8584TIP3   OH247166   6.656   2.241   5.613  0.3465  0.6186 -0.4114
 8584TIP3    H147167   6.679   2.186   5.688 -2.4610  1.0153  0.8668
 8584TIP3    H247168   6.725   2.307   5.610  0.7470  0.3755  1.6327
 8585TIP3   OH247169   4.820   6.283  12.200 -0.5095 -0.6582  0.3953
 8585TIP3    H147170   4.762   6.211  12.173  1.5173 -1.2554 -2.9877
 8585TIP3    H247171   4.884   6.242  12.258  0.4228 -1.6380 -1.2367
 8586TIP3   OH247172   2.542   1.500   5.117 -0.2311  0.1379  0.4961
 8586TIP3    H147173   2.468   1.512   5.177 -1.0218  1.5454 -0.6916
 8586TIP3    H247174   2.565   1.588   5.089  0.6813 -0.4233 -0.6077
 8587TIP3   OH247175   6.185   1.266   3.448  0.0620  0.0977 -0.0354
 8587TIP3    H147176   6.219   1.323   3.517 -0.1055  0.8927 -0.6098
 8587TIP3    H247177   6.191   1.317   3.368 -1.9935  0.0791 -0.2518
 8588TIP3   OH247178   2.126   0.393  13.545  0.2043 -0.4251 -0.3073
 8588TIP3    H147179   2.101   0.383  13.453 -0.3338  0.0301 -0.2195
 8588TIP3    H247180   2.215   0.427  13.543 -0.5272  1.5643 -0.7093
 8589TIP3   OH247181   6.173   2.800  13.301  0.0505  0.5620  0.3433
 8589TIP3    H147182   6.251   2.746  13.309 -0.7820 -0.6218  0.7043
 8589TIP3    H247183   6.115   2.770  13.372 -1.9824 -0.7409 -1.7321
 8590TIP3   OH247184   1.058   3.650  14.584  0.4828 -0.5454  0.2100
 8590TIP3    H147185   1.001   3.659  14.508  0.5721 -0.4618  0.1517
 8590TIP3    H247186   1.008   3.598  14.647  0.3581 -0.5010  0.1450
 8591TIP3   OH247187   2.730   0.690   4.928  0.0599  0.1474 -0.3341
 8591TIP3    H147188   2.675   0.676   5.005  2.3598 -0.6833  1.3013
 8591TIP3    H247189   2.758   0.781   4.935 -2.0463  0.9907 -1.9162
 8592TIP3   OH247190   0.430   4.759   3.344 -0.7220  0.1271  0.1770
 8592TIP3    H147191   0.499   4.824   3.358 -0.7365  0.4355 -1.0802
 8592TIP3    H247192   0.353   4.794   3.388 -0.2629  0.1112  1.0024
 8593TIP3   OH247193   6.439   2.901   2.241  0.0370  0.5794 -0.1783
 8593TIP3    H147194   6.518   2.852   2.221  0.2150  1.0464 -0.6285
 8593TIP3    H247195   6.425   2.958   2.165  0.1713  1.6615  0.5842
 8594TIP3   OH247196   2.954   1.671  11.230  0.0407  0.5876 -0.3592
 8594TIP3    H147197   3.029   1.613  11.245 -1.5068 -1.6921 -0.7825
 8594TIP3    H247198   2.924   1.694  11.317 -0.7256 -1.2888 -0.0691
 8595TIP3   OH247199   4.629   6.462  12.718 -0.4274  0.4668  0.0792
 8595TIP3    H147200   4.601   6.537  12.665 -2.8751 -0.5954 -0.2562
 8595TIP3    H247201   4.616   6.491  12.809  0.9998  1.2633  0.0613
 8596TIP3   OH247202   4.583   0.712  16.214  0.4969  0.7007  0.1166
 8596TIP3    H147203   4.610   0.687  16.303  0.9382  0.3478 -0.1097
 8596TIP3    H247204   4.491   0.734  16.222  0.1684 -0.6918  0.3926
 8597TIP3   OH247205   3.040   1.941  13.364  0.1263  1.3564  0.2216
 8597TIP3    H147206   3.055   1.991  13.284 -1.2410  0.8668 -0.3607
 8597TIP3    H247207   3.122   1.893  13.378  0.5960  1.9249 -0.5278
 8598TIP3   OH247208   3.639   1.057  13.125 -0.2123 -0.2915 -0.0470
 8598TIP3    H147209   3.563   1.073  13.181 -1.1228 -0.5796 -1.1782
 8598TIP3    H247210   3.706   1.118  13.157 -0.9491  0.0429  0.8895
 8599TIP3   OH247211   3.784   5.525  16.508  0.4518  0.3254 -0.4579
 8599TIP3    H147212   3.745   5.440  16.526 -0.6524  0.5822 -1.5134
 8599TIP3    H247213   3.788   5.568  16.593  0.0201 -0.3692 -0.0762
 8600TIP3   OH247214   6.410   6.215  17.014  0.2461  0.3499 -0.2561
 8600TIP3    H147215   6.317   6.237  17.005  0.5087  1.2458 -0.9467
 8600TIP3    H247216   6.446   6.223  16.925  1.0592  0.3749  0.0617
 8601TIP3   OH247217   3.254   4.339  15.787  0.5321  0.0434  0.6432
 8601TIP3    H147218   3.161   4.318  15.787 -0.5464  3.9030 -1.3094
 8601TIP3    H247219   3.285   4.311  15.701  1.3732 -1.6068  1.4359
 8602TIP3   OH247220   3.844   2.624  15.129 -0.5212  0.0101  0.4282
 8602TIP3    H147221   3.806   2.624  15.217 -0.1115 -0.1005  0.6054
 8602TIP3    H247222   3.879   2.536  15.118  0.2666  0.3087  0.5175
 8603TIP3   OH247223   6.235   6.753   0.043 -0.0488 -0.1862 -0.2217
 8603TIP3    H147224   6.198   6.670   0.015  0.2984 -0.4252  0.0177
 8603TIP3    H247225   6.234   6.749   0.139 -1.6124  0.7889 -0.1544
 8604TIP3   OH247226   6.441   6.036  11.225 -0.2122 -0.5353  0.2711
 8604TIP3    H147227   6.530   6.058  11.197 -0.1605  0.1929  0.9687
 8604TIP3    H247228   6.437   5.940  11.222  0.6837 -0.5856  0.4968
 8605TIP3   OH247229   3.426   3.873   4.056 -0.3427 -0.3986 -0.0433
 8605TIP3    H147230   3.377   3.899   3.978 -0.0040 -1.0518 -0.4870
 8605TIP3    H247231   3.496   3.937   4.063 -0.4001 -0.3104 -0.2507
 8606TIP3   OH247232   0.091   4.388   4.862 -0.4008 -0.4425 -0.3797
 8606TIP3    H147233   0.025   4.448   4.895 -1.3269 -1.3804 -0.4706
 8606TIP3    H247234   0.042   4.324   4.810  0.2375 -2.4442  1.3108
 8607TIP3   OH247235   6.747   0.844  12.918 -0.2314 -0.3305  0.4993
 8607TIP3    H147236   6.679   0.871  12.857  0.1581 -1.6268 -0.5535
 8607TIP3    H247237   6.768   0.754  12.893  2.3370  0.2357  0.3420
 8608TIP3   OH247238   5.846   1.584   2.500  0.9844  0.4545  0.1301
 8608TIP3    H147239   5.807   1.619   2.420 -1.0587  0.3762  1.0211
 8608TIP3    H247240   5.940   1.582   2.483  0.7213  1.7949 -1.7180
 8609TIP3   OH247241   1.278   6.789  16.882  0.2122  0.1705 -0.4700
 8609TIP3    H147242   1.215   6.786  16.810  1.3956  1.9326 -1.6451
 8609TIP3    H247243   1.314   6.878  16.880  1.5665 -0.2721  1.1939
 8610TIP3   OH247244   3.280   3.570  16.287 -0.6644 -0.1014 -0.5636
 8610TIP3    H147245   3.268   3.581  16.381  0.4986  0.6306 -0.4920
 8610TIP3    H247246   3.332   3.646  16.260  0.5907 -1.2320 -1.4650
 8611TIP3   OH247247   6.208   4.505   4.867 -0.3516 -0.2268  0.0579
 8611TIP3    H147248   6.129   4.465   4.830  0.2244 -1.5331  0.1588
 8611TIP3    H247249   6.279   4.449   4.835  0.7195  1.7446 -1.2277
 8612TIP3   OH247250   5.766   1.904   5.497 -0.3132  0.9033 -0.4492
 8612TIP3    H147251   5.693   1.945   5.544 -3.2922 -3.1910 -0.9417
 8612TIP3    H247252   5.828   1.880   5.566 -2.7766 -1.5309  1.1770
 8613TIP3   OH247253   3.594   2.309   4.361 -0.1658 -0.3465  0.8429
 8613TIP3    H147254   3.502   2.289   4.381 -0.7887  0.3559 -1.0963
 8613TIP3    H247255   3.590   2.361   4.281  1.9473 -0.3352  0.6995
 8614TIP3   OH247256   3.461   5.209  11.945  0.3910  0.2711  0.0208
 8614TIP3    H147257   3.496   5.181  12.029  0.0466  0.5367  0.2513
 8614TIP3    H247258   3.434   5.300  11.959  1.8001  0.8506 -0.8009
 8615TIP3   OH247259   0.992   6.176   0.258  0.0121  0.2843 -0.1359
 8615TIP3    H147260   1.074   6.140   0.224  0.8407  1.2663  0.7174
 8615TIP3    H247261   0.938   6.193   0.181 -0.8858 -3.6402 -0.5569
 8616TIP3   OH247262   5.890   2.116   5.758  0.2990 -0.0559  0.2823
 8616TIP3    H147263   5.919   2.025   5.766  0.1617 -0.1012  0.2715
 8616TIP3    H247264   5.915   2.141   5.669  1.8518  0.4562  0.8216
 8617TIP3   OH247265   3.256   4.592  16.152  0.0363  0.6973 -0.3165
 8617TIP3    H147266   3.239   4.676  16.193 -1.3709 -0.6093  2.0156
 8617TIP3    H247267   3.324   4.609  16.087  1.4150  3.1917  1.6400
 8618TIP3   OH247268   4.362   5.475  15.466 -0.2646  0.2219 -0.4673
 8618TIP3    H147269   4.309   5.553  15.448 -0.4598  0.1233 -0.3142
 8618TIP3    H247270   4.309   5.402  15.435  1.1523  0.3222 -3.4769
 8619TIP3   OH247271   3.686   5.611   5.391 -0.8326  0.1070 -0.2816
 8619TIP3    H147272   3.748   5.588   5.460 -1.1703 -1.9153 -0.5834
 8619TIP3    H247273   3.615   5.656   5.437 -0.6099 -0.3653  0.5476
 8620TIP3   OH247274   4.240   2.148   1.183  0.3633 -0.0748  0.0783
 8620TIP3    H147275   4.186   2.228   1.176  0.9970  0.2864 -0.7585
 8620TIP3    H247276   4.325   2.180   1.212 -0.1634 -0.7718  2.6347
 8621TIP3   OH247277   2.182   3.734   3.983 -0.3516  0.3790 -0.0325
 8621TIP3    H147278   2.193   3.654   4.034 -0.0107  0.7533  0.4941
 8621TIP3    H247279   2.113   3.782   4.030  1.1609  1.5249  1.1299
 8622TIP3   OH247280   4.592   4.389  16.149 -0.4774 -0.1107  0.0596
 8622TIP3    H147281   4.580   4.484  16.147  0.0734  0.2003  4.0162
 8622TIP3    H247282   4.685   4.377  16.172 -0.8640 -1.5172  1.0201
 8623TIP3   OH247283   3.451   5.665  12.177  0.5575  0.1584 -0.1244
 8623TIP3    H147284   3.475   5.718  12.101  1.3688 -0.7255 -0.5086
 8623TIP3    H247285   3.522   5.679  12.239  1.0794 -0.8905 -0.4549
 8624TIP3   OH247286   3.487   2.346   2.646 -0.5618  0.0237 -0.2608
 8624TIP3    H147287   3.443   2.400   2.712 -0.1779  2.6677 -1.9832
 8624TIP3    H247288   3.417   2.297   2.603 -1.2581  0.8709 -0.1147
 8625TIP3   OH247289   2.760   6.005  15.880  0.3235 -0.1469 -0.1971
 8625TIP3    H147290   2.768   6.021  15.974 -1.0447 -0.2047 -0.0465
 8625TIP3    H247291   2.770   5.910  15.871 -0.4911 -0.2683  0.0324
 8626TIP3   OH247292   1.213   1.676  15.087 -0.5400  0.2006  0.3437
 8626TIP3    H147293   1.305   1.688  15.066 -0.5163  1.2515  1.0303
 8626TIP3    H247294   1.166   1.722  15.017 -0.5864 -1.0226 -0.4682
 8627TIP3   OH247295   4.291   2.591  15.566 -0.1933  0.4877  0.4400
 8627TIP3    H147296   4.260   2.651  15.498  1.6249 -1.6019 -2.4639
 8627TIP3    H247297   4.220   2.528  15.576 -0.3883  0.6848  0.3127
 8628TIP3   OH247298   3.504   3.090  15.672  0.3695 -0.4043 -0.3452
 8628TIP3    H147299   3.548   3.172  15.695  0.5439  0.0838 -2.2301
 8628TIP3    H247300   3.503   3.090  15.576 -1.0981 -1.8374 -0.3630
 8629TIP3   OH247301   1.431   3.378   3.031 -0.5391  0.2914 -0.5509
 8629TIP3    H147302   1.489   3.394   3.105 -1.2575  0.5691 -0.0407
 8629TIP3    H247303   1.394   3.464   3.010 -1.1938  0.0286 -0.5051
 8630TIP3   OH247304   6.685   3.899  14.652  0.1188 -0.3782 -0.2094
 8630TIP3    H147305   6.722   3.823  14.608 -1.1101 -1.0250 -0.1620
 8630TIP3    H247306   6.761   3.947  14.685  0.8996 -2.8720  1.9715
 8631TIP3   OH247307   4.656   2.535  12.727  0.1683 -0.7049  0.3074
 8631TIP3    H147308   4.734   2.563  12.774 -0.0635  1.4411 -0.4955
 8631TIP3    H247309   4.586   2.539  12.793  0.3849 -0.6974  0.5386
 8632TIP3   OH247310   6.282   1.027   3.328  0.5630 -0.3133  0.3136
 8632TIP3    H147311   6.374   1.033   3.304  0.4453  0.3239 -0.0161
 8632TIP3    H247312   6.264   1.107   3.378 -0.2727  0.5662 -1.3035
 8633TIP3   OH247313   3.698   5.162   2.193  0.6982  0.4802  0.4943
 8633TIP3    H147314   3.753   5.092   2.158 -0.4279 -0.8753  1.3100
 8633TIP3    H247315   3.680   5.219   2.118  0.5704 -0.8271 -0.5040
 8634TIP3   OH247316   0.416   3.745  11.300  0.8091  0.7803 -0.6103
 8634TIP3    H147317   0.501   3.771  11.337  0.4108  2.0668 -0.5447
 8634TIP3    H247318   0.420   3.649  11.294  2.3423  0.8384 -0.8089
 8635TIP3   OH247319   2.158   0.502  14.855 -0.5933 -0.2241 -0.4904
 8635TIP3    H147320   2.177   0.575  14.797  3.2087  0.3245  1.1399
 8635TIP3    H247321   2.120   0.543  14.933  1.2663  0.1238  0.3033
 8636TIP3   OH247322   1.834   3.962   4.612 -0.3731  0.7652 -0.0485
 8636TIP3    H147323   1.925   3.987   4.624 -0.0473 -0.8564  1.2507
 8636TIP3    H247324   1.808   3.926   4.697 -2.2255  1.1472 -0.4003
 8637TIP3   OH247325   6.437   6.022   5.138  0.1253 -0.5216 -0.3454
 8637TIP3    H147326   6.441   6.114   5.164 -0.2215 -0.6306  0.1182
 8637TIP3    H247327   6.344   6.004   5.127  0.1558 -0.9374  0.0338
 8638TIP3   OH247328   0.602   1.744   6.646  0.0471  0.1574 -0.5253
 8638TIP3    H147329   0.635   1.822   6.690 -1.7783 -0.4257  2.1562
 8638TIP3    H247330   0.659   1.673   6.676  0.0066  0.0539 -0.6913
 8639TIP3   OH247331   6.192   6.008   3.709  0.0146 -0.1037  0.2776
 8639TIP3    H147332   6.205   5.913   3.710 -1.0492 -0.2860  2.1889
 8639TIP3    H247333   6.099   6.020   3.727 -0.1550  1.3075 -1.3422
 8640TIP3   OH247334   0.649   1.434  12.094 -0.7061 -0.4153 -0.1388
 8640TIP3    H147335   0.575   1.412  12.037 -1.4062  3.8849 -1.2501
 8640TIP3    H247336   0.724   1.440  12.035 -0.0143 -2.0885  0.5305
 8641TIP3   OH247337   1.756   1.081  11.755 -0.0479  0.3245 -0.1911
 8641TIP3    H147338   1.818   1.130  11.808  0.8744 -1.3291  0.3085
 8641TIP3    H247339   1.670   1.111  11.786  0.4363  2.3664 -0.6444
 8642TIP3   OH247340   2.242   1.856  12.635  0.2657 -0.2607 -0.0976
 8642TIP3    H147341   2.239   1.937  12.584  1.3336 -0.9755 -1.3575
 8642TIP3    H247342   2.207   1.790  12.575 -0.3445 -0.7866  0.8228
 8643TIP3   OH247343   0.645   2.670   1.567 -0.2446  0.7101  0.2478
 8643TIP3    H147344   0.611   2.719   1.492 -1.8248  0.3002  0.6574
 8643TIP3    H247345   0.570   2.659   1.625  0.7525  0.2812  1.5080
 8644TIP3   OH247346   0.303   3.645  12.691  0.0446  0.7705  0.5742
 8644TIP3    H147347   0.228   3.700  12.712 -1.0531 -0.7540  0.8065
 8644TIP3    H247348   0.269   3.581  12.629  1.2845  0.3405  0.3151
 8645TIP3   OH247349   6.775   5.595   1.056 -0.4461  0.3409 -0.0302
 8645TIP3    H147350   6.767   5.533   0.984 -0.6461 -0.4723  0.6713
 8645TIP3    H247351   6.847   5.652   1.031 -0.4850  0.0465 -0.8483
 8646TIP3   OH247352   5.345   2.771  14.224 -0.1803 -0.1144 -0.2346
 8646TIP3    H147353   5.332   2.757  14.318  1.7936  1.0178  0.2639
 8646TIP3    H247354   5.422   2.717  14.203  0.0266  0.4461 -0.9487
 8647TIP3   OH247355   1.261   0.690  16.309 -0.4224 -0.1156  0.3094
 8647TIP3    H147356   1.280   0.646  16.392  1.1937 -0.3490 -0.1566
 8647TIP3    H247357   1.255   0.619  16.246  0.4409  0.2039 -0.1383
 8648TIP3   OH247358   1.138   1.006   2.619 -0.3289  0.4881  0.5304
 8648TIP3    H147359   1.206   0.945   2.647 -0.2389 -1.0708 -2.5855
 8648TIP3    H247360   1.059   0.977   2.665  0.6658  1.3337  2.9619
 8649TIP3   OH247361   5.274   2.007  16.164 -0.8228 -0.0995  0.0520
 8649TIP3    H147362   5.256   2.100  16.175 -0.7145 -0.0551 -0.1446
 8649TIP3    H247363   5.264   1.991  16.070 -1.4515 -0.4167  0.1682
 8650TIP3   OH247364   2.560   1.442  11.713 -0.5773 -0.3237 -0.5570
 8650TIP3    H147365   2.564   1.347  11.701  0.7910 -0.6937  2.0384
 8650TIP3    H247366   2.466   1.461  11.718 -0.8722 -1.5846 -0.8786
 8651TIP3   OH247367   3.926   1.244  14.352 -0.2151 -0.6126  0.1912
 8651TIP3    H147368   3.995   1.190  14.391  1.7942  0.9002 -1.0352
 8651TIP3    H247369   3.951   1.252  14.260 -0.9051  1.6467  0.1348
 8652TIP3   OH247370   5.551   1.435  15.839 -0.4517 -0.1703 -0.0709
 8652TIP3    H147371   5.599   1.455  15.759 -0.8158  1.8298  0.1611
 8652TIP3    H247372   5.617   1.405  15.901 -0.3335 -3.0805 -1.4669
 8653TIP3   OH247373   0.044   0.244   0.723  0.5170 -0.9086  0.3287
 8653TIP3    H147374   0.077   0.154   0.717  0.0106 -1.0345 -0.8107
 8653TIP3    H247375   0.113   0.292   0.769  2.2622 -1.2199 -1.7836
 8654TIP3   OH247376   0.240   4.576  10.933  0.0224  0.3201 -0.2181
 8654TIP3    H147377   0.206   4.507  10.991 -0.6288 -0.9950 -2.0467
 8654TIP3    H247378   0.169   4.641  10.929  0.5964  1.0910  1.4379
 8655TIP3   OH247379   5.701   6.338   1.143  0.1151 -0.1785  0.4412
 8655TIP3    H147380   5.782   6.296   1.114  0.0178  0.2681 -0.5376
 8655TIP3    H247381   5.700   6.327   1.238  1.3158 -0.2070  0.4623
 8656TIP3   OH247382   6.470   0.743   4.720 -0.7205  0.3758  0.5190
 8656TIP3    H147383   6.420   0.821   4.744  1.1763  2.0903 -0.7277
 8656TIP3    H247384   6.553   0.752   4.767 -0.6047 -1.1368  0.6666
 8657TIP3   OH247385   4.915   5.858  16.303  0.6022  0.1666 -0.0799
 8657TIP3    H147386   4.832   5.874  16.348  0.2992  0.6239 -0.7941
 8657TIP3    H247387   4.932   5.765  16.318 -1.5692 -0.7289 -2.4200
 8658TIP3   OH247388   1.927   6.124  12.634  0.1588 -0.3793  0.0812
 8658TIP3    H147389   2.011   6.084  12.610  0.3779 -0.2610  0.6349
 8658TIP3    H247390   1.896   6.072  12.708  0.1324  0.0706  0.3914
 8659TIP3   OH247391   2.665   6.358  14.441 -0.5093 -0.7073  0.1844
 8659TIP3    H147392   2.749   6.399  14.457 -2.4391  3.1257  1.7750
 8659TIP3    H247393   2.637   6.390  14.355 -1.1395 -0.3682  0.5060
 8660TIP3   OH247394   3.228   1.886   3.971  0.2907  0.3768 -0.0922
 8660TIP3    H147395   3.315   1.868   3.936  0.8600  0.4690  1.2280
 8660TIP3    H247396   3.201   1.803   4.011 -0.7778 -0.0287 -1.5663
 8661TIP3   OH247397   4.175   0.616   4.721  0.3791 -1.0642  0.1666
 8661TIP3    H147398   4.254   0.623   4.667  0.3695 -3.3483 -0.2409
 8661TIP3    H247399   4.139   0.705   4.722  2.8953  0.0298  0.3291
 8662TIP3   OH247400   5.315   3.905   3.624  0.1647  0.0953  0.3266
 8662TIP3    H147401   5.380   3.966   3.589 -1.1011  1.2255 -0.1954
 8662TIP3    H247402   5.256   3.961   3.676 -1.4366 -0.5047 -0.7442
 8663TIP3   OH247403   0.379   4.325   3.733 -0.4215 -0.2694 -0.1030
 8663TIP3    H147404   0.371   4.269   3.810 -1.1070 -1.2404 -0.8607
 8663TIP3    H247405   0.464   4.302   3.695 -0.9811 -1.2963 -0.7746
 8664TIP3   OH247406   4.524   5.605  16.196 -0.3828  0.0446  0.4235
 8664TIP3    H147407   4.504   5.696  16.174  1.7189  0.4102 -0.1716
 8664TIP3    H247408   4.553   5.609  16.287 -1.2657 -0.2286  0.7359
 8665TIP3   OH247409   6.618   5.095   1.047  0.4923 -0.0109  0.9184
 8665TIP3    H147410   6.529   5.097   1.081 -0.3157 -0.3151 -1.0439
 8665TIP3    H247411   6.614   5.034   0.973  2.2139  0.3703  0.4702
 8666TIP3   OH247412   0.360   6.466   1.615 -0.6580  0.2935  0.4533
 8666TIP3    H147413   0.384   6.414   1.538 -0.6482  0.0065  0.6505
 8666TIP3    H247414   0.290   6.524   1.583 -0.9723 -0.1396  0.3352
 8667TIP3   OH247415   2.292   3.216   5.189  0.3316 -0.0876 -0.0019
 8667TIP3    H147416   2.372   3.208   5.137  1.6355  1.6769  1.6135
 8667TIP3    H247417   2.321   3.212   5.280 -1.0895  2.4460  0.6815
 8668TIP3   OH247418   0.121   4.736   3.080 -0.7406  0.2752  0.3135
 8668TIP3    H147419   0.068   4.660   3.106 -0.3670  0.5235  1.8952
 8668TIP3    H247420   0.206   4.721   3.121  0.8062 -0.5621 -2.8997
 8669TIP3   OH247421   1.183   2.956   3.271  0.3458 -0.3265  0.2656
 8669TIP3    H147422   1.095   2.979   3.243  0.3142  0.6673  1.1026
 8669TIP3    H247423   1.208   3.026   3.332  1.5084 -0.8653  0.4444
 8670TIP3   OH247424   0.617   6.184   3.646 -0.4086  0.1610 -0.3169
 8670TIP3    H147425   0.651   6.268   3.615 -1.7271 -0.1241 -2.8206
 8670TIP3    H247426   0.522   6.196   3.647 -0.7021 -1.5565 -1.7872
 8671TIP3   OH247427   4.234   2.130  16.132  0.2579 -0.2848  0.4928
 8671TIP3    H147428   4.329   2.137  16.121  0.1214  0.4833 -0.2642
 8671TIP3    H247429   4.207   2.216  16.163 -0.1213 -0.6984  1.3368
 8672TIP3   OH247430   4.910   1.881  11.927 -0.3898  0.1446 -0.3721
 8672TIP3    H147431   4.890   1.974  11.941  0.4689  0.7282 -2.6481
 8672TIP3    H247432   4.854   1.856  11.853 -0.8597 -1.2791  0.4277
 8673TIP3   OH247433   3.593   0.410   2.244 -0.2338  0.8246  0.6561
 8673TIP3    H147434   3.616   0.464   2.320 -0.1193  0.6321  0.7568
 8673TIP3    H247435   3.640   0.328   2.258  0.5961  1.1464 -0.1214
 8674TIP3   OH247436   1.279   0.941  16.607  0.6959  0.7640 -0.7458
 8674TIP3    H147437   1.325   0.867  16.567  1.8026  0.1099  1.5498
 8674TIP3    H247438   1.347   1.007  16.621  0.3721  0.9361  0.0932
 8675TIP3   OH247439   0.602   4.727  13.915 -1.1036  0.2790 -0.6534
 8675TIP3    H147440   0.553   4.737  13.833 -0.9572  0.3377 -0.7336
 8675TIP3    H247441   0.547   4.769  13.981 -1.3804 -0.0546 -0.6617
 8676TIP3   OH247442   6.629   0.678   3.372 -0.1644 -0.4552 -0.2946
 8676TIP3    H147443   6.679   0.755   3.399  1.8086 -1.1121 -1.8355
 8676TIP3    H247444   6.541   0.712   3.354 -0.0458  0.9316  1.4483
 8677TIP3   OH247445   5.334   0.958  11.183  0.5578  0.1658 -0.0121
 8677TIP3    H147446   5.258   0.955  11.124  1.2206  1.2519 -0.9872
 8677TIP3    H247447   5.296   0.967  11.270 -0.4513  0.3537 -0.4512
 8678TIP3   OH247448   4.584   1.671   4.424  0.4127 -0.3777  0.4430
 8678TIP3    H147449   4.591   1.635   4.336 -0.0929  2.0902 -0.7209
 8678TIP3    H247450   4.609   1.763   4.414 -0.0110  0.0688  2.8171
 8679TIP3   OH247451   0.808   1.531  16.601 -0.1729 -0.0594  0.1040
 8679TIP3    H147452   0.895   1.570  16.592  0.7494 -2.0865 -0.2629
 8679TIP3    H247453   0.752   1.585  16.545  0.7249  1.5345  0.6725
 8680TIP3   OH247454   1.343   2.771  12.683  0.0168  0.3538  0.1043
 8680TIP3    H147455   1.283   2.819  12.625  0.2622  0.4745 -0.0509
 8680TIP3    H247456   1.391   2.713  12.624 -0.2117 -0.0151  0.2801
 8681TIP3   OH247457   0.403   5.002   1.784  0.1457  0.1748  0.0961
 8681TIP3    H147458   0.460   4.929   1.761  1.0348  1.0959 -0.7055
 8681TIP3    H247459   0.462   5.068   1.821 -0.6964  0.3584  1.1629
 8682TIP3   OH247460   0.080   6.090  12.539 -0.2518  0.3384  0.4585
 8682TIP3    H147461   0.019   6.129  12.602 -2.9205 -1.7240 -0.6478
 8682TIP3    H247462   0.107   6.007  12.580 -1.6087 -0.7733 -0.8042
 8683TIP3   OH247463   0.949   5.204  16.872  0.0783 -0.3568  0.5432
 8683TIP3    H147464   1.002   5.168  16.802 -1.1613 -1.5691  0.1790
 8683TIP3    H247465   0.895   5.271  16.830  1.4824  1.1120  0.9761
 8684TIP3   OH247466   6.710   3.045  14.671 -0.4979  0.0427 -0.2960
 8684TIP3    H147467   6.651   2.984  14.715  0.8754  0.0998  1.7753
 8684TIP3    H247468   6.666   3.130  14.678 -0.8840 -0.1657 -0.1705
 8685TIP3   OH247469   5.260   5.629   2.919  0.2075 -0.7389  0.4157
 8685TIP3    H147470   5.174   5.664   2.941  0.4438 -0.2313  0.5240
 8685TIP3    H247471   5.282   5.671   2.836 -0.6188 -2.5294 -0.7764
 8686TIP3   OH247472   0.193   4.029   5.599 -0.3480  0.4767  0.0889
 8686TIP3    H147473   0.275   4.017   5.646  0.4875 -0.6986 -1.5894
 8686TIP3    H247474   0.219   4.070   5.516 -1.1313 -1.7868 -1.3563
 8687TIP3   OH247475   3.141   5.397   2.092  0.6179 -0.3854  0.2422
 8687TIP3    H147476   3.179   5.452   2.160  0.8531 -1.6156  1.1482
 8687TIP3    H247477   3.196   5.318   2.092  0.5073 -0.4844 -1.2605
 8688TIP3   OH247478   5.074   0.198  16.261  0.1674  0.5118  0.3096
 8688TIP3    H147479   5.044   0.214  16.171 -0.4846 -1.9262  0.0185
 8688TIP3    H247480   5.170   0.192  16.253  0.0657 -0.3440 -0.3520
 8689TIP3   OH247481   6.264   2.751  12.885 -0.1626 -0.0005 -0.1368
 8689TIP3    H147482   6.251   2.810  12.960  0.2705 -0.0532 -0.0158
 8689TIP3    H247483   6.176   2.726  12.859 -0.3045 -1.0245  1.1832
 8690TIP3   OH247484   0.916   5.379   4.311  0.3113  0.2922  0.4160
 8690TIP3    H147485   0.907   5.286   4.290 -0.2016 -0.0062  1.8816
 8690TIP3    H247486   0.963   5.416   4.235  0.6726 -1.1785 -0.1117
 8691TIP3   OH247487   2.757   3.036  15.372  0.7564  0.2775  0.0697
 8691TIP3    H147488   2.793   3.092  15.303 -1.2079  1.4720 -0.0886
 8691TIP3    H247489   2.703   2.973  15.325  0.9396 -0.1361  0.4138
 8692TIP3   OH247490   5.277   0.227   3.367 -0.0362  0.0000 -0.4258
 8692TIP3    H147491   5.353   0.212   3.422  0.6292 -0.2111 -1.3680
 8692TIP3    H247492   5.287   0.317   3.336 -0.0045 -0.1278 -0.7927
 8693TIP3   OH247493   5.693   0.599  11.308  0.6332  0.5755  0.2942
 8693TIP3    H147494   5.675   0.691  11.328 -0.6376  0.2673  0.6643
 8693TIP3    H247495   5.651   0.551  11.379 -1.2867 -0.4138 -1.4069
 8694TIP3   OH247496   1.679   5.447   0.835  1.3327 -0.3122 -0.8111
 8694TIP3    H147497   1.762   5.470   0.792  0.6769  3.5918 -0.3833
 8694TIP3    H247498   1.686   5.488   0.921 -0.9972  0.0443 -0.7476
 8695TIP3   OH247499   2.824   5.059  16.839  0.0354 -0.2032 -0.2537
 8695TIP3    H147500   2.777   5.140  16.857 -1.2763 -0.3298 -2.7310
 8695TIP3    H247501   2.792   4.997  16.905 -1.4547  0.3860 -0.3983
 8696TIP3   OH247502   5.198   3.244  13.856 -0.3439  0.1965 -0.3003
 8696TIP3    H147503   5.107   3.227  13.831  0.1912 -0.8798 -1.6569
 8696TIP3    H247504   5.192   3.285  13.943 -2.1032  0.0398 -0.3123
 8697TIP3   OH247505   5.647   4.114   0.161 -0.3810 -0.0949 -0.4599
 8697TIP3    H147506   5.726   4.084   0.116 -0.6056  0.5095 -1.2647
 8697TIP3    H247507   5.580   4.118   0.093 -1.0264 -0.2900  0.1568
 8698TIP3   OH247508   1.050   3.099   5.526 -0.7442  0.1119  0.1090
 8698TIP3    H147509   0.979   3.109   5.463 -0.0285  1.6204 -0.5132
 8698TIP3    H247510   1.125   3.143   5.485  0.1717 -0.2503  1.3359
 8699TIP3   OH247511   2.384   1.798   0.440 -0.0734  0.1633  0.5128
 8699TIP3    H147512   2.445   1.745   0.390 -1.0159 -0.0711 -0.4112
 8699TIP3    H247513   2.427   1.884   0.447  0.3572  0.0036 -0.1277
 8700TIP3   OH247514   4.569   5.264  14.375  0.2493 -0.3480 -0.1178
 8700TIP3    H147515   4.649   5.311  14.399 -0.0642 -0.6440  1.5933
 8700TIP3    H247516   4.500   5.303  14.429 -0.9651  0.4296 -2.0989
 8701TIP3   OH247517   0.670   1.660  16.850 -0.3546  0.6441 -0.1095
 8701TIP3    H147518   0.705   1.577  16.882 -0.1883  1.0225  0.7117
 8701TIP3    H247519   0.744   1.705  16.810 -0.0687  1.0958  0.9070
 8702TIP3   OH247520   4.270   1.464  15.527  0.4504 -0.6517 -0.2103
 8702TIP3    H147521   4.338   1.396  15.532  0.3990 -0.7285 -0.5605
 8702TIP3    H247522   4.281   1.515  15.607  1.3561 -0.2440 -0.5839
 8703TIP3   OH247523   0.966   3.587  14.281 -0.5755  0.2190  0.0187
 8703TIP3    H147524   1.048   3.538  14.279 -0.5718  0.2203  0.1551
 8703TIP3    H247525   0.993   3.679  14.272 -0.4350  0.3674  1.6901
 8704TIP3   OH247526   5.196   0.196   6.010  0.0294 -0.3085 -0.4299
 8704TIP3    H147527   5.263   0.263   5.997 -0.3310  0.0538 -0.4667
 8704TIP3    H247528   5.134   0.236   6.071  0.9774 -1.4580  1.3702
 8705TIP3   OH247529   1.624   2.365   6.607 -0.4479 -0.3691 -0.2367
 8705TIP3    H147530   1.674   2.286   6.589  0.4611 -0.0173  0.6722
 8705TIP3    H247531   1.688   2.427   6.641 -1.2090  0.6549 -0.6124
 8706TIP3   OH247532   0.588   0.606   3.384  0.3587  0.1730 -0.0617
 8706TIP3    H147533   0.564   0.572   3.470 -0.2418 -2.3919 -1.1291
 8706TIP3    H247534   0.684   0.606   3.384  0.4118  2.3896  1.3352
 8707TIP3   OH247535   0.726   4.163   2.983  0.4086 -0.4152  1.1259
 8707TIP3    H147536   0.658   4.105   3.016 -1.3354  0.4868 -0.7068
 8707TIP3    H247537   0.795   4.158   3.049 -1.0055 -2.0988  2.5843
 8708TIP3   OH247538   4.829   4.724  11.455  0.0774 -0.5774  0.4941
 8708TIP3    H147539   4.830   4.641  11.503  0.2885 -0.7569  0.1877
 8708TIP3    H247540   4.901   4.775  11.493 -0.4098 -0.3046  1.0687
 8709TIP3   OH247541   3.795   1.800   0.180  0.7821  0.7140 -0.2233
 8709TIP3    H147542   3.705   1.782   0.154  0.1229  1.4142  1.4310
 8709TIP3    H247543   3.828   1.861   0.114 -0.6057  1.9534  0.2047
 8710TIP3   OH247544   0.357   5.910  11.639 -0.1877 -0.0135  0.2261
 8710TIP3    H147545   0.369   6.001  11.615 -0.2677 -0.1067 -0.1698
 8710TIP3    H247546   0.388   5.905  11.729 -0.7201  0.5277  0.4491
 8711TIP3   OH247547   3.933   4.114   4.267 -0.1890 -0.2666 -0.4408
 8711TIP3    H147548   4.010   4.118   4.325 -2.0134  0.6140  2.0781
 8711TIP3    H247549   3.914   4.205   4.246 -1.7750 -0.2874  0.7605
 8712TIP3   OH247550   6.378   4.664   2.610 -0.3242 -0.3903  0.2509
 8712TIP3    H147551   6.330   4.732   2.563  0.7588 -0.3879 -0.9026
 8712TIP3    H247552   6.310   4.616   2.659 -1.2012  0.9642  0.4081
 8713TIP3   OH247553   1.618   1.176   1.507  1.0289 -0.0602 -0.4186
 8713TIP3    H147554   1.710   1.174   1.479  1.4413  0.0759  0.8789
 8713TIP3    H247555   1.617   1.128   1.589 -0.2563 -0.9143 -0.9050
 8714TIP3   OH247556   5.468   2.371   5.938 -0.1542 -0.3418  0.3361
 8714TIP3    H147557   5.523   2.436   5.981  1.7598 -1.5021 -0.2789
 8714TIP3    H247558   5.455   2.303   6.003 -0.8537 -0.0974  0.4618
 8715TIP3   OH247559   5.541   4.119  14.084  0.2149 -0.0986 -0.6867
 8715TIP3    H147560   5.539   4.042  14.027 -3.4040 -1.1129  0.5538
 8715TIP3    H247561   5.589   4.089  14.161 -1.0704 -1.1391 -0.2553
 8716TIP3   OH247562   5.979   4.452  11.136  0.4458 -0.1672 -0.2303
 8716TIP3    H147563   6.074   4.452  11.143  0.5426 -0.1334 -1.3249
 8716TIP3    H247564   5.948   4.447  11.226  1.4809 -0.1319  0.1403
 8717TIP3   OH247565   3.373   1.616   1.500 -0.5648 -0.2855 -0.0756
 8717TIP3    H147566   3.287   1.587   1.529 -0.9442  0.8753  0.0086
 8717TIP3    H247567   3.361   1.640   1.408  0.4937 -3.3679 -1.1626
 8718TIP3   OH247568   4.337   5.455   1.646 -0.0480 -0.8845  0.0664
 8718TIP3    H147569   4.422   5.434   1.684 -1.1260 -1.8377  2.0945
 8718TIP3    H247570   4.325   5.549   1.664  0.5522 -0.7369 -0.2638
 8719TIP3   OH247571   3.825   3.879   1.054 -0.0255 -0.5799  0.3647
 8719TIP3    H147572   3.778   3.962   1.066 -1.7613 -1.5459  0.6368
 8719TIP3    H247573   3.819   3.862   0.960 -0.1139 -0.6364  0.3802
 8720TIP3   OH247574   3.265   5.973  15.132  0.3914 -0.3445 -0.5971
 8720TIP3    H147575   3.214   5.910  15.081  0.2214 -0.4545 -0.2957
 8720TIP3    H247576   3.293   6.038  15.068 -0.6027  0.0240 -0.6870
 8721TIP3   OH247577   1.072   4.023   3.891 -0.6411 -0.3962 -0.1575
 8721TIP3    H147578   1.009   4.089   3.861 -0.9941 -0.7203 -0.1308
 8721TIP3    H247579   1.142   4.074   3.931 -0.9260 -0.0359 -0.1086
 8722TIP3   OH247580   1.262   3.534  12.382 -0.2116 -0.4795  0.5349
 8722TIP3    H147581   1.220   3.537  12.296 -1.3857  0.2066  1.1199
 8722TIP3    H247582   1.215   3.598  12.435  1.0856 -0.2266  1.4447
 8723TIP3   OH247583   2.355   5.322   3.952  0.6210 -0.0878  0.6990
 8723TIP3    H147584   2.433   5.267   3.961 -0.0742 -0.8491  3.0043
 8723TIP3    H247585   2.376   5.401   4.003  1.3996  1.6637 -2.1264
 8724TIP3   OH247586   3.837   4.028   4.003  0.4176 -0.1080  0.2772
 8724TIP3    H147587   3.869   4.037   4.093  3.5967 -1.2853 -0.5972
 8724TIP3    H247588   3.855   3.937   3.981  1.4689  0.6153 -2.1190
 8725TIP3   OH247589   0.118   0.861   1.402  0.0544  0.1659  0.0070
 8725TIP3    H147590   0.193   0.916   1.425 -0.9995  0.8219  2.1262
 8725TIP3    H247591   0.151   0.771   1.414  0.7767  0.4154 -0.0332
 8726TIP3   OH247592   6.619   3.426   1.992  0.0497  0.2448 -0.1292
 8726TIP3    H147593   6.557   3.363   2.028  0.3467  0.2858  0.4766
 8726TIP3    H247594   6.566   3.490   1.945 -0.3417  0.1519  0.1890
 8727TIP3   OH247595   1.774   5.196  13.916 -0.3840 -0.5695 -0.2009
 8727TIP3    H147596   1.766   5.122  13.855 -1.6292 -1.4640  0.9971
 8727TIP3    H247597   1.842   5.169  13.978 -1.5778 -1.2146  0.8705
 8728TIP3   OH247598   2.295   4.913  14.005 -0.2214  0.1952  0.4029
 8728TIP3    H147599   2.273   4.836  13.952 -1.0828 -0.0834  1.1473
 8728TIP3    H247600   2.383   4.937  13.976  0.0183 -0.9981  0.0767
 8729TIP3   OH247601   3.370   6.294   3.911 -0.1761  0.3229  0.5291
 8729TIP3    H147602   3.401   6.214   3.867 -3.0166 -1.0170  0.7328
 8729TIP3    H247603   3.410   6.365   3.862 -0.5947 -1.1821 -2.1984
 8730TIP3   OH247604   3.429   2.478  12.354  0.3801  0.2358  0.9501
 8730TIP3    H147605   3.373   2.554  12.339  1.3837  0.4443 -2.4506
 8730TIP3    H247606   3.506   2.515  12.399  0.9216  1.3661 -0.7831
 8731TIP3   OH247607   2.042   6.073  16.316 -0.5003  0.1690 -0.1191
 8731TIP3    H147608   2.036   5.999  16.255 -0.9831  0.6066 -0.6113
 8731TIP3    H247609   2.047   6.150  16.261 -1.7757  0.6358  0.3674
 8732TIP3   OH247610   4.813   2.028   3.592  0.0514  0.1362  0.2509
 8732TIP3    H147611   4.845   1.971   3.662  0.7099  2.7612  2.2563
 8732TIP3    H247612   4.722   2.000   3.578 -1.2844  1.4868  4.5928
 8733TIP3   OH247613   1.551   1.582   2.744 -0.6285  0.2416 -0.4055
 8733TIP3    H147614   1.461   1.583   2.709 -2.1667  0.0866  3.1201
 8733TIP3    H247615   1.601   1.534   2.678 -3.5912 -1.6256 -1.5249
 8734TIP3   OH247616   2.177   2.858   1.316  0.8234  0.4283 -0.1506
 8734TIP3    H147617   2.263   2.864   1.274 -0.3998  1.2140 -2.7664
 8734TIP3    H247618   2.116   2.896   1.252 -1.5459 -0.4827  1.4056
 8735TIP3   OH247619   4.341   6.277   5.013 -0.0455 -0.0991  0.1849
 8735TIP3    H147620   4.357   6.334   4.938  0.5949 -0.9476 -0.3439
 8735TIP3    H247621   4.361   6.189   4.981 -0.1879 -0.5265  1.2266
 8736TIP3   OH247622   3.358   1.959  13.181  0.0994 -0.1095  0.2839
 8736TIP3    H147623   3.444   1.932  13.149  0.1909 -1.1461  1.3326
 8736TIP3    H247624   3.312   1.993  13.104  1.3228  0.1460 -0.3493
 8737TIP3   OH247625   4.533   4.625   5.381  0.0201  0.6238  0.0806
 8737TIP3    H147626   4.515   4.718   5.367 -0.1775  0.4351 -0.9553
 8737TIP3    H247627   4.447   4.585   5.392  0.1525  0.7785  2.1353
 8738TIP3   OH247628   1.405   6.716   5.207  0.0759 -0.0589 -0.4804
 8738TIP3    H147629   1.368   6.729   5.295  0.1501 -2.0148 -0.1255
 8738TIP3    H247630   1.329   6.712   5.149 -0.0871 -0.5717 -0.2387
 8739TIP3   OH247631   6.712   0.887   5.923 -0.0399  0.2242  0.1946
 8739TIP3    H147632   6.707   0.926   6.011  0.2696 -2.1057  1.3201
 8739TIP3    H247633   6.629   0.911   5.881 -0.5729  0.6594  1.4467
 8740TIP3   OH247634   0.422   5.522   4.278 -0.3171 -0.0335  0.7321
 8740TIP3    H147635   0.475   5.446   4.256 -0.4261 -0.4182  1.7508
 8740TIP3    H247636   0.351   5.488   4.333  0.8104  1.0492  3.0142
 8741TIP3   OH247637   6.393   6.311   2.287  0.0415 -0.2115 -0.3819
 8741TIP3    H147638   6.298   6.309   2.286  0.0168 -0.1259  0.8904
 8741TIP3    H247639   6.416   6.377   2.352  0.9602 -1.9123  1.0964
 8742TIP3   OH247640   4.189   3.104  14.602  0.3873 -0.2346 -0.6548
 8742TIP3    H147641   4.171   3.090  14.509 -0.4417  1.5888 -0.8296
 8742TIP3    H247642   4.102   3.104  14.644  0.5089  1.3676 -0.3091
 8743TIP3   OH247643   0.632   4.315   1.840 -0.0593  0.8768 -0.0184
 8743TIP3    H147644   0.724   4.296   1.820 -0.3939  0.0187 -0.8506
 8743TIP3    H247645   0.621   4.285   1.931  0.2748  0.1397 -0.2068
 8744TIP3   OH247646   5.861   0.263   4.938 -0.2890  0.1292  0.0625
 8744TIP3    H147647   5.894   0.221   5.018 -0.7782  2.0925  1.3785
 8744TIP3    H247648   5.901   0.350   4.938 -0.8442  0.4130 -1.4744
 8745TIP3   OH247649   4.375   5.460  12.076  0.3766 -0.2474 -0.6340
 8745TIP3    H147650   4.467   5.485  12.080 -0.1277  1.7601 -0.8555
 8745TIP3    H247651   4.365   5.418  11.990  0.5184  2.0595 -1.8333
 8746TIP3   OH247652   3.237   5.308  11.138  0.0854  0.0542  0.0188
 8746TIP3    H147653   3.165   5.253  11.106 -0.1379 -0.7715  1.8569
 8746TIP3    H247654   3.316   5.260  11.112 -0.0352  0.2462 -0.7433
 8747TIP3   OH247655   5.834   4.295  13.194  0.0600  0.0714 -0.2403
 8747TIP3    H147656   5.820   4.349  13.272  1.2395  0.1097 -0.0326
 8747TIP3    H247657   5.811   4.353  13.121  3.1766  1.6570 -0.1441
 8748TIP3   OH247658   2.238   3.958   5.627 -0.4821 -0.4549  0.2521
 8748TIP3    H147659   2.271   3.874   5.658  3.0002  0.4197 -0.5944
 8748TIP3    H247660   2.262   3.960   5.534 -2.2499  0.7375 -0.2282
 8749TIP3   OH247661   2.542   2.912   5.203 -0.3019  0.3396  0.3399
 8749TIP3    H147662   2.603   2.927   5.275  0.4921 -2.3492  0.3541
 8749TIP3    H247663   2.465   2.873   5.244 -0.1713 -0.4621 -0.1533
 8750TIP3   OH247664   6.673   3.624  11.928  0.3599 -0.0170 -0.4040
 8750TIP3    H147665   6.697   3.636  12.020 -0.3574 -0.5394 -0.1348
 8750TIP3    H247666   6.755   3.632  11.880  0.6591  0.8318  0.2265
 8751TIP3   OH247667   2.097   3.228  12.987 -0.3700  0.3687 -0.6659
 8751TIP3    H147668   2.151   3.154  13.014 -2.0163 -0.5053  0.4180
 8751TIP3    H247669   2.104   3.291  13.060 -2.3700 -0.6497  0.4835
 8752TIP3   OH247670   3.915   2.286   4.780  0.1565 -0.0212  0.0594
 8752TIP3    H147671   3.827   2.303   4.747  0.0163  0.8135  0.8372
 8752TIP3    H247672   3.950   2.219   4.721  0.2260  1.9812 -2.3375
 8753TIP3   OH247673   1.532   5.257  14.077  0.0589 -0.5447  0.6200
 8753TIP3    H147674   1.624   5.267  14.054 -0.5429 -1.8308 -2.9505
 8753TIP3    H247675   1.496   5.199  14.010 -3.8978  1.6813  0.4913
 8754TIP3   OH247676   5.592   2.695   4.789 -0.3029 -0.1579 -0.3023
 8754TIP3    H147677   5.537   2.622   4.760  1.2446 -1.1204 -0.9402
 8754TIP3    H247678   5.586   2.692   4.884  1.0455 -2.2484 -0.2100
 8755TIP3   OH247679   2.951   5.381  11.649  0.7422 -0.0476 -0.2666
 8755TIP3    H147680   2.943   5.463  11.601 -0.8440  0.4107  0.6862
 8755TIP3    H247681   2.880   5.326  11.615 -2.1013  1.1670  3.0408
 8756TIP3   OH247682   4.320   1.392   2.474  0.3985 -0.1472 -0.2950
 8756TIP3    H147683   4.226   1.385   2.494  0.1887  2.2187 -0.2215
 8756TIP3    H247684   4.356   1.444   2.545  2.0303 -1.8472  0.2124
 8757TIP3   OH247685   0.132   1.594   4.930 -0.1075 -0.0304 -0.0948
 8757TIP3    H147686   0.123   1.597   5.025 -0.7175 -0.5835 -0.1290
 8757TIP3    H247687   0.203   1.531   4.915 -0.5979 -0.6109 -0.0255
 8758TIP3   OH247688   1.300   2.881   2.841 -0.0790  0.0065 -0.2866
 8758TIP3    H147689   1.215   2.922   2.826 -1.2943 -1.9110  0.9313
 8758TIP3    H247690   1.321   2.840   2.757 -1.1585 -0.8423 -0.1647
 8759TIP3   OH247691   1.643   3.641  16.026  0.0254 -0.1838 -0.1369
 8759TIP3    H147692   1.564   3.589  16.034  0.3439 -0.5332  0.8507
 8759TIP3    H247693   1.686   3.633  16.111  2.5183 -2.2495 -1.4688
 8760TIP3   OH247694   1.386   0.450   5.506  0.0687 -0.3632  0.0927
 8760TIP3    H147695   1.436   0.506   5.446 -0.9233  2.4015  1.6626
 8760TIP3    H247696   1.436   0.453   5.588 -1.0083 -0.1484  0.7600
 8761TIP3   OH247697   2.168   5.686  13.539  0.1845  0.1302  0.3705
 8761TIP3    H147698   2.110   5.742  13.591 -0.2933  0.8432 -0.8782
 8761TIP3    H247699   2.152   5.714  13.449 -1.7867 -3.5382 -0.6040
 8762TIP3   OH247700   3.302   4.922  16.733  0.0610  0.0967  0.2511
 8762TIP3    H147701   3.277   4.886  16.818  1.8092 -0.8870  0.3895
 8762TIP3    H247702   3.269   4.859  16.669 -0.7014  0.5171  0.2149
 8763TIP3   OH247703   2.863   0.762  13.786  0.3235 -0.3921 -0.3256
 8763TIP3    H147704   2.954   0.784  13.809  0.3438 -0.6482 -0.1588
 8763TIP3    H247705   2.819   0.846  13.780  0.4815 -0.2852 -0.0178
 8764TIP3   OH247706   5.313   2.727  12.702  0.6749  0.1739 -0.3221
 8764TIP3    H147707   5.270   2.747  12.619  0.1137  2.0345  0.3542
 8764TIP3    H247708   5.404   2.710  12.678  0.6876  1.4130 -1.2576
 8765TIP3   OH247709   6.418   6.358  12.132  0.3432  0.3697 -0.1716
 8765TIP3    H147710   6.508   6.342  12.160  0.4670  0.7439 -0.3544
 8765TIP3    H247711   6.394   6.280  12.081  0.0701 -0.3799  1.0594
 8766TIP3   OH247712   0.186   0.679  14.936 -0.2507 -0.5982  0.7940
 8766TIP3    H147713   0.103   0.685  14.887  0.9751  1.1912 -1.1930
 8766TIP3    H247714   0.198   0.765  14.975  0.4690 -1.0037  1.5102
 8767TIP3   OH247715   4.240   6.174   5.508  0.2043  0.1621 -0.1484
 8767TIP3    H147716   4.145   6.180   5.520  0.1051 -0.1213 -0.7177
 8767TIP3    H247717   4.260   6.246   5.448  0.5049  0.8364  0.7464
 8768TIP3   OH247718   5.186   0.893   0.216  0.1208 -0.4002 -0.2815
 8768TIP3    H147719   5.168   0.799   0.209  2.1033 -0.8447 -0.1907
 8768TIP3    H247720   5.103   0.936   0.195 -0.7877 -2.1640 -0.4587
 8769TIP3   OH247721   2.744   4.501  16.329  0.1387  0.1218 -0.1548
 8769TIP3    H147722   2.650   4.507  16.313  0.1182  0.1600 -0.0211
 8769TIP3    H247723   2.779   4.462  16.250  0.1351  1.0167 -0.6102
 8770TIP3   OH247724   1.590   2.559   3.850  0.4728 -0.7358 -0.2898
 8770TIP3    H147725   1.594   2.470   3.814 -1.7209 -0.7330 -0.6990
 8770TIP3    H247726   1.534   2.551   3.928  1.9792 -0.0443  0.9234
 8771TIP3   OH247727   4.947   5.592  13.251 -0.0080  0.0244  0.2940
 8771TIP3    H147728   4.966   5.589  13.345  1.9738 -0.8896 -0.0791
 8771TIP3    H247729   4.916   5.681  13.236 -3.0783 -0.5545  2.2161
 8772TIP3   OH247730   1.632   6.150  11.187  0.3083  0.1273  0.2948
 8772TIP3    H147731   1.651   6.068  11.141  1.4628  1.5835 -2.0555
 8772TIP3    H247732   1.549   6.179  11.149  0.1359  0.2654  0.7810
 8773TIP3   OH247733   6.157   5.710   5.577 -0.2512  0.1257  0.6478
 8773TIP3    H147734   6.074   5.708   5.529  0.0297 -0.2196  0.1587
 8773TIP3    H247735   6.211   5.643   5.534 -0.0127 -0.2390  1.4982
 8774TIP3   OH247736   5.907   5.072  16.875  0.0380  0.3589  0.0760
 8774TIP3    H147737   5.869   5.005  16.819  0.8349  1.2125 -1.5321
 8774TIP3    H247738   5.838   5.091  16.939 -1.6351  0.7103 -1.7633
 8775TIP3   OH247739   0.078   2.145   4.087  0.0843  0.0730  0.1327
 8775TIP3    H147740   0.079   2.053   4.114  0.6001  0.5668  2.0163
 8775TIP3    H247741   0.041   2.191   4.163 -0.2874  1.4079 -0.8302
 8776TIP3   OH247742   4.824   6.111   2.641  0.2159  0.3076 -0.1450
 8776TIP3    H147743   4.848   6.043   2.579  1.7391  0.7203 -0.0380
 8776TIP3    H247744   4.802   6.064   2.722 -0.6057 -0.1523 -0.6252
 8777TIP3   OH247745   1.197   0.622   1.455 -0.0261  0.1505  0.2221
 8777TIP3    H147746   1.190   0.633   1.549  1.4631  2.0212  0.1874
 8777TIP3    H247747   1.252   0.544   1.443  1.5729  1.1069  1.0010
 8778TIP3   OH247748   3.804   2.583  13.316 -0.1936 -0.0733  0.6299
 8778TIP3    H147749   3.734   2.630  13.361 -0.5146  0.4724 -0.4025
 8778TIP3    H247750   3.876   2.581  13.379 -0.7448  0.3639  1.2911
 8779TIP3   OH247751   0.256   4.962   5.793 -0.2822  0.3074 -0.5751
 8779TIP3    H147752   0.185   4.986   5.853  2.0289  1.1982  1.9963
 8779TIP3    H247753   0.267   4.868   5.804  0.5895  0.5639  1.0696
 8780TIP3   OH247754   5.793   2.123  15.219  0.2100 -0.1209 -0.2365
 8780TIP3    H147755   5.768   2.076  15.298 -1.3413 -1.1966 -1.3001
 8780TIP3    H247756   5.772   2.063  15.147 -0.3134  1.5698 -1.5750
 8781TIP3   OH247757   1.784   2.128  14.931  0.6927  0.1413  0.7262
 8781TIP3    H147758   1.843   2.118  14.856 -0.5189 -2.3745 -0.0064
 8781TIP3    H247759   1.705   2.167  14.894  0.6456  0.3249  1.0172
 8782TIP3   OH247760   2.193   4.564  11.089 -0.1824  0.0319 -0.3061
 8782TIP3    H147761   2.114   4.539  11.041 -0.6896  0.3327  0.3583
 8782TIP3    H247762   2.260   4.574  11.022 -1.2695  2.0454 -1.1824
 8783TIP3   OH247763   3.845   3.221   3.559  0.1342 -0.1884  0.4010
 8783TIP3    H147764   3.826   3.159   3.630  1.0667  1.2218  1.9466
 8783TIP3    H247765   3.770   3.280   3.558  1.3676  1.5013  2.1819
 8784TIP3   OH247766   0.706   2.145  16.213  0.2482  0.2590  0.7885
 8784TIP3    H147767   0.630   2.195  16.184  1.2929  1.2112 -0.4352
 8784TIP3    H247768   0.687   2.122  16.304 -1.8603 -0.2854  0.2644
 8785TIP3   OH247769   4.624   1.837   3.507 -0.3895  0.3896  0.0004
 8785TIP3    H147770   4.604   1.781   3.582 -0.3762  0.1392 -0.1807
 8785TIP3    H247771   4.675   1.781   3.448 -1.0209  0.3548 -0.5268
 8786TIP3   OH247772   2.691   3.592  12.150  0.4583  0.0835  0.2614
 8786TIP3    H147773   2.700   3.592  12.054  1.1158  0.9123  0.3102
 8786TIP3    H247774   2.726   3.507  12.177  1.5234  0.3724 -0.1406
 8787TIP3   OH247775   6.265   0.220   1.314 -0.3280 -0.3741  0.0769
 8787TIP3    H147776   6.271   0.238   1.220 -1.0875 -0.6101 -0.0240
 8787TIP3    H247777   6.274   0.305   1.356 -1.1512 -0.1030 -0.2701
 8788TIP3   OH247778   4.113   2.596   5.526  0.5243  0.1563  0.3525
 8788TIP3    H147779   4.027   2.599   5.485  1.0836 -0.4677 -0.9170
 8788TIP3    H247780   4.136   2.687   5.541 -1.2391  0.3061  2.6982
 8789TIP3   OH247781   4.677   6.489   1.976 -0.5959  0.4015  0.1807
 8789TIP3    H147782   4.646   6.418   1.919  0.3934 -0.0865  0.2313
 8789TIP3    H247783   4.772   6.476   1.981 -0.5575  1.0000  1.1899
 8790TIP3   OH247784   0.384   2.817  14.140  0.1092 -0.0693 -0.2193
 8790TIP3    H147785   0.427   2.810  14.054  0.9608  0.4189  0.1531
 8790TIP3    H247786   0.393   2.909  14.164 -0.4626 -0.1258  0.2319
 8791TIP3   OH247787   1.653   6.083   1.071 -0.1198  0.0555 -0.0114
 8791TIP3    H147788   1.712   6.020   1.113  1.3091  2.4026  1.7776
 8791TIP3    H247789   1.704   6.118   0.998 -0.4427 -0.0179 -0.2718
 8792TIP3   OH247790   1.583   3.590  12.754 -0.3134 -0.0862 -0.2901
 8792TIP3    H147791   1.509   3.536  12.782  0.5081 -0.9183  0.3384
 8792TIP3    H247792   1.543   3.671  12.724 -1.5170 -0.6925 -0.4005
 8793TIP3   OH247793   4.913   0.375   0.057 -0.2889  0.4749 -0.2099
 8793TIP3    H147794   4.937   0.467   0.063  1.3426  0.0912 -0.1693
 8793TIP3    H247795   4.818   0.375   0.046 -0.2163  2.1954 -1.3009
 8794TIP3   OH247796   5.202   4.233   0.463  0.1615  0.0404 -0.2379
 8794TIP3    H147797   5.249   4.151   0.476 -0.1576 -0.2446 -0.8475
 8794TIP3    H247798   5.164   4.252   0.549  1.2541  0.2072  0.2289
 8795TIP3   OH247799   6.712   0.032  12.288  0.0239 -0.7323 -0.1193
 8795TIP3    H147800   6.706   0.123  12.317  1.8890 -0.9746  1.2150
 8795TIP3    H247801   6.621   0.000  12.287 -0.4540  0.4602  1.7057
 8796TIP3   OH247802   6.128   2.703  15.882 -0.1580  0.1517  0.0766
 8796TIP3    H147803   6.056   2.640  15.881  1.5891 -1.9455 -0.2809
 8796TIP3    H247804   6.168   2.697  15.795 -0.1859  2.1009 -0.1210
 8797TIP3   OH247805   6.782   1.963   0.200 -0.5897 -0.3280 -0.1412
 8797TIP3    H147806   6.735   1.908   0.137 -0.0791 -0.9081 -0.0257
 8797TIP3    H247807   6.747   1.937   0.285 -1.2410  0.4180 -0.1716
 8798TIP3   OH247808   4.731   1.838  16.780  0.2415  0.6046 -0.1187
 8798TIP3    H147809   4.669   1.767  16.795  0.7104 -0.4461 -2.6744
 8798TIP3    H247810   4.801   1.823  16.844 -0.3024 -0.4628  0.2357
 8799TIP3   OH247811   5.436   1.158  11.861  0.1621  0.5055 -0.6439
 8799TIP3    H147812   5.344   1.183  11.848 -0.0401  0.2924  0.2981
 8799TIP3    H247813   5.452   1.174  11.955  0.4988 -1.3199 -0.3574
 8800TIP3   OH247814   1.750   5.757  11.238  0.7920  0.0525 -0.0998
 8800TIP3    H147815   1.800   5.716  11.167  0.9386 -0.8049  0.4865
 8800TIP3    H247816   1.664   5.774  11.200  1.4130  1.2999 -1.0406
 8801TIP3   OH247817   0.822   2.917   3.271 -0.2178  0.2907  0.3399
 8801TIP3    H147818   0.738   2.949   3.304  0.1386  1.1538  0.4314
 8801TIP3    H247819   0.816   2.821   3.280 -1.5690  0.2552 -0.6003
 8802TIP3   OH247820   3.084   1.457  16.474  0.0901 -0.1991 -0.0887
 8802TIP3    H147821   3.083   1.505  16.557 -2.2035 -0.0746 -0.1385
 8802TIP3    H247822   3.119   1.371  16.496  1.5733  0.5369  0.5501
 8803TIP3   OH247823   2.753   5.495  15.654  0.1645  0.0511 -0.4258
 8803TIP3    H147824   2.833   5.442  15.655 -0.7594 -1.4465  1.1345
 8803TIP3    H247825   2.697   5.454  15.720 -0.6409  2.9891  0.8995
 8804TIP3   OH247826   5.015   5.099   1.680  0.2219  0.0850  0.5454
 8804TIP3    H147827   5.093   5.094   1.624  0.9530  0.3143  1.4987
 8804TIP3    H247828   5.017   5.188   1.716 -1.9462  1.0150 -1.4022
 8805TIP3   OH247829   0.007   2.976  12.841 -0.5521  0.4204 -0.4510
 8805TIP3    H147830  -0.063   2.927  12.882  0.9747 -1.3752  0.1550
 8805TIP3    H247831   0.054   3.017  12.914  1.0410 -1.2368 -0.4764
 8806TIP3   OH247832   4.833   5.516   3.576 -0.3777 -0.3102  0.8244
 8806TIP3    H147833   4.820   5.587   3.638  1.6452 -0.2857  1.2966
 8806TIP3    H247834   4.908   5.545   3.523  0.0362 -1.7802  0.5743
 8807TIP3   OH247835   1.130   1.149   1.253 -0.3640  0.5030  0.1213
 8807TIP3    H147836   1.206   1.119   1.201  0.2720  0.8255  0.8439
 8807TIP3    H247837   1.080   1.203   1.192 -0.2936 -0.1446 -0.5236
 8808TIP3   OH247838   5.407   1.366  14.207 -0.2314 -0.2208  0.0085
 8808TIP3    H147839   5.491   1.348  14.250  1.2902  0.5238 -2.3818
 8808TIP3    H247840   5.378   1.281  14.174  0.4756 -0.2482 -0.5714
 8809TIP3   OH247841   6.701   6.357   5.744  0.2096  0.2435  0.0888
 8809TIP3    H147842   6.711   6.310   5.826  0.3330  0.7631  0.3784
 8809TIP3    H247843   6.789   6.387   5.723  0.0470  0.8002  0.1880
 8810TIP3   OH247844   3.299   4.761   0.562  0.1078 -0.0715  0.0408
 8810TIP3    H147845   3.356   4.703   0.613  0.0769  1.1884  1.6064
 8810TIP3    H247846   3.213   4.752   0.603 -0.4924 -0.7601 -1.3008
 8811TIP3   OH247847   2.989   6.254  17.150 -0.1096  0.6631 -0.1853
 8811TIP3    H147848   2.894   6.266  17.145 -0.1277 -0.0142 -2.0405
 8811TIP3    H247849   3.004   6.214  17.236 -1.5333  0.4253 -0.0290
 8812TIP3   OH247850   2.595   5.367  13.594  0.1568  0.1620 -0.2100
 8812TIP3    H147851   2.609   5.350  13.687 -2.1605  1.3738  0.4228
 8812TIP3    H247852   2.650   5.443  13.575 -2.0056  2.2170  1.1635
 8813TIP3   OH247853   1.234   3.307  15.524 -0.3447  0.0348 -0.2826
 8813TIP3    H147854   1.240   3.401  15.538 -1.2756 -0.2278  2.5280
 8813TIP3    H247855   1.277   3.269  15.601 -0.5716 -1.8307 -1.0364
 8814TIP3   OH247856   5.602   6.195  17.069  0.0188 -0.4870 -0.5990
 8814TIP3    H147857   5.584   6.262  17.134  0.5488 -1.2582  0.3647
 8814TIP3    H247858   5.624   6.244  16.989 -0.2377  0.4635 -0.0980
 8815TIP3   OH247859   3.546   0.246  16.402 -0.1939  0.4483  0.3292
 8815TIP3    H147860   3.582   0.322  16.356  0.2502  1.3897  2.1322
 8815TIP3    H247861   3.622   0.192  16.422 -0.3568  0.1611  0.1841
 8816TIP3   OH247862   3.359   0.874  11.398  0.5478  0.2199 -0.6704
 8816TIP3    H147863   3.349   0.921  11.316  2.0839  0.6801 -0.6190
 8816TIP3    H247864   3.270   0.845  11.420 -0.1528  1.5430 -1.6147
 8817TIP3   OH247865   4.623   3.497  10.949  0.2384 -0.5193 -0.2192
 8817TIP3    H147866   4.710   3.530  10.971  0.5681 -0.9993 -0.7710
 8817TIP3    H247867   4.639   3.411  10.911 -0.3602 -0.0045 -1.7031
 8818TIP3   OH247868   4.192   4.875   0.077  0.0234 -0.3623 -0.1400
 8818TIP3    H147869   4.250   4.799   0.078 -0.8879 -1.0766  0.3338
 8818TIP3    H247870   4.178   4.894  -0.015  0.1308 -0.8789 -0.2672
 8819TIP3   OH247871   0.715   6.382   2.433  0.4766  0.3414  0.1953
 8819TIP3    H147872   0.637   6.414   2.479 -0.5667  0.6980 -1.7045
 8819TIP3    H247873   0.703   6.411   2.342  1.0182 -2.7653 -0.9773
 8820TIP3   OH247874   1.769   3.339   2.402  0.2672 -0.0745 -0.7728
 8820TIP3    H147875   1.807   3.259   2.438 -1.2827 -0.3420  0.4027
 8820TIP3    H247876   1.708   3.308   2.335  0.5419  0.2083 -1.1568
 8821TIP3   OH247877   1.186   2.628  10.287  0.6442 -0.3528  0.1775
 8821TIP3    H147878   1.265   2.592  10.247  2.0671  2.3511  0.3437
 8821TIP3    H247879   1.161   2.565  10.354  0.7475 -2.8286 -1.9777
 8822TIP3   OH247880   2.824   5.665   1.083  0.0798  0.2275 -0.3452
 8822TIP3    H147881   2.908   5.707   1.097 -0.5929  1.3588  0.4674
 8822TIP3    H247882   2.836   5.613   1.003  0.7435  2.5346 -1.8513
 8823TIP3   OH247883   3.373   4.989   2.738 -0.0965  0.1011 -0.2157
 8823TIP3    H147884   3.311   4.948   2.678  0.2583  1.8110 -1.8296
 8823TIP3    H247885   3.331   4.981   2.824 -1.6212 -0.5096 -0.9750
 8824TIP3   OH247886   3.882   0.226   1.065  0.1335 -0.0423  0.3614
 8824TIP3    H147887   3.909   0.139   1.093 -2.5943 -0.5373  1.7723
 8824TIP3    H247888   3.913   0.234   0.975  1.8871 -1.7744  0.7578
 8825TIP3   OH247889   5.227   5.604   5.771  0.8070  0.4564  0.3797
 8825TIP3    H147890   5.209   5.631   5.681 -1.9277 -0.0750  0.7008
 8825TIP3    H247891   5.222   5.684   5.822  1.5831  0.6334  0.2001
 8826TIP3   OH247892   6.176   5.164   5.425 -0.3326 -0.4330  0.0473
 8826TIP3    H147893   6.172   5.161   5.521 -1.1592  0.1036  0.0340
 8826TIP3    H247894   6.221   5.083   5.401 -1.5225 -1.3614  0.8118
 8827TIP3   OH247895   3.557   4.698  14.069 -0.7266 -0.4611 -0.0760
 8827TIP3    H147896   3.499   4.773  14.079  0.3886  0.5644 -1.0104
 8827TIP3    H247897   3.505   4.623  14.099 -2.9257  0.2365 -1.8848
 8828TIP3   OH247898   5.115   0.150  12.770 -0.0997 -0.5752  0.4938
 8828TIP3    H147899   5.110   0.100  12.852  0.9712  1.0977  1.6359
 8828TIP3    H247900   5.131   0.084  12.703 -1.6933 -2.0859  1.4927
 8829TIP3   OH247901   1.441   3.203   0.963  0.6668 -0.3672 -0.0473
 8829TIP3    H147902   1.414   3.166   1.048 -2.3585 -0.0493 -0.7651
 8829TIP3    H247903   1.459   3.126   0.909  0.4786 -0.6263  0.2506
 8830TIP3   OH247904   5.150   4.837   3.747 -0.3595 -0.0327 -0.3611
 8830TIP3    H147905   5.090   4.783   3.695  0.1367 -0.4809 -0.4803
 8830TIP3    H247906   5.204   4.774   3.794 -1.7216  0.3166  1.8606
 8831TIP3   OH247907   3.948   1.646  16.036 -0.5797  0.1411  0.0958
 8831TIP3    H147908   3.890   1.582  16.077 -0.9816  1.4479  1.6751
 8831TIP3    H247909   3.894   1.687  15.968 -0.8776 -0.0337  0.2230
 8832TIP3   OH247910   0.674   1.361  13.530 -0.2590 -0.1950 -0.2696
 8832TIP3    H147911   0.765   1.331  13.529 -0.3863 -0.5682 -0.8681
 8832TIP3    H247912   0.624   1.287  13.563 -0.1614  0.5929  1.7927
 8833TIP3   OH247913   3.363   4.355  14.095 -0.0894 -0.2324  0.4895
 8833TIP3    H147914   3.451   4.345  14.060  0.4061 -1.0662  1.8913
 8833TIP3    H247915   3.367   4.436  14.147 -1.0261  1.4242 -1.8327
 8834TIP3   OH247916   6.314   4.326  12.061  0.1985 -0.4384  0.1628
 8834TIP3    H147917   6.219   4.313  12.068 -0.0411  0.6763 -0.7480
 8834TIP3    H247918   6.337   4.375  12.139  0.2465 -1.7375  0.9937
 8835TIP3   OH247919   1.646   0.240   2.509 -0.1399  0.4369  0.6148
 8835TIP3    H147920   1.674   0.294   2.435 -0.8716  0.7302  0.5426
 8835TIP3    H247921   1.632   0.153   2.471 -2.3013  0.9988 -0.0172
 8836TIP3   OH247922   2.840   2.312  12.812  0.0460 -0.4692 -0.2207
 8836TIP3    H147923   2.929   2.317  12.847 -0.4629 -3.2369  1.7530
 8836TIP3    H247924   2.810   2.403  12.811  1.2606  0.1334  3.6892
 8837TIP3   OH247925   2.953   6.739  13.751 -0.1030 -0.7995  0.3730
 8837TIP3    H147926   2.932   6.804  13.818  0.5515  0.1279 -0.3188
 8837TIP3    H247927   3.045   6.719  13.765  0.1035 -0.4059 -0.4284
 8838TIP3   OH247928   5.423   2.364  15.445 -0.3488  0.0213 -0.1561
 8838TIP3    H147929   5.398   2.456  15.442 -0.1177  0.1517  1.2148
 8838TIP3    H247930   5.507   2.364  15.491  0.3280 -0.7546 -1.3425
 8839TIP3   OH247931   2.018   1.301  14.397 -0.3474  0.4320 -0.2388
 8839TIP3    H147932   2.018   1.377  14.456 -2.4049 -1.3469  2.3066
 8839TIP3    H247933   2.076   1.238  14.439  1.8997  0.7062 -2.6888
 8840TIP3   OH247934   2.608   2.238   1.680 -0.2445  0.0658  0.0516
 8840TIP3    H147935   2.580   2.279   1.762 -1.2272  2.2030 -1.2576
 8840TIP3    H247936   2.703   2.237   1.685 -0.2547  1.0895  0.8267
 8841TIP3   OH247937   1.361   5.069  15.328 -1.0060 -0.2924 -0.3070
 8841TIP3    H147938   1.375   5.030  15.242  0.2159 -0.7340  0.0735
 8841TIP3    H247939   1.318   5.001  15.379 -0.1323 -0.6747 -0.0585
 8842TIP3   OH247940   4.347   0.086  15.251  0.5700 -0.3743  0.6218
 8842TIP3    H147941   4.297   0.072  15.170  0.0610  3.0945  0.1713
 8842TIP3    H247942   4.437   0.061  15.228  0.0828 -1.3188 -0.3498
 8843TIP3   OH247943   4.056   2.477  15.390  1.0005 -0.4710 -0.6786
 8843TIP3    H147944   4.085   2.441  15.474  1.5380 -1.6606 -1.3303
 8843TIP3    H247945   3.967   2.507  15.405  0.9510 -1.0479  0.2157
 8844TIP3   OH247946   6.304   2.284   4.779  0.1718 -0.2909  0.4573
 8844TIP3    H147947   6.304   2.255   4.688 -0.7982  1.0959 -0.0184
 8844TIP3    H247948   6.247   2.223   4.824  0.9747 -1.2300  0.2446
 8845TIP3   OH247949   0.007   1.362   0.203  0.4613 -0.2487 -0.4007
 8845TIP3    H147950  -0.052   1.301   0.246  0.6316 -0.5246 -0.5546
 8845TIP3    H247951  -0.004   1.343   0.109 -0.2237  0.6287 -0.5197
 8846TIP3   OH247952   3.017   0.870  13.258  0.5394  0.0910 -0.1530
 8846TIP3    H147953   2.986   0.805  13.195  0.7282 -1.1198  0.9353
 8846TIP3    H247954   3.096   0.831  13.295 -0.1728  0.2183  1.6189
 8847TIP3   OH247955   3.729   2.361   3.391  0.6052 -0.1469 -0.0208
 8847TIP3    H147956   3.712   2.428   3.324  0.1652 -0.7449 -0.5192
 8847TIP3    H247957   3.657   2.371   3.454  0.2653 -0.4649 -0.3534
 8848TIP3   OH247958   0.864   3.867  14.355 -0.2834  0.2075 -0.2165
 8848TIP3    H147959   0.834   3.938  14.412  1.5927  1.6132 -0.8616
 8848TIP3    H247960   0.954   3.891  14.333 -0.1662 -1.5260 -1.8552
 8849TIP3   OH247961   0.617   2.714   3.862 -0.2968  0.3421  0.4192
 8849TIP3    H147962   0.677   2.720   3.788  1.3334  2.6299  1.8239
 8849TIP3    H247963   0.603   2.804   3.890 -1.8517 -0.3563  2.1609
 8850TIP3   OH247964   0.551   4.025   5.445  0.2431 -0.0321  0.0779
 8850TIP3    H147965   0.469   4.073   5.454 -0.5518 -1.3107 -0.0614
 8850TIP3    H247966   0.550   3.963   5.518 -0.2413 -1.9006 -1.4295
 8851TIP3   OH247967   6.579   2.503  14.501 -0.1597 -0.2098 -0.5619
 8851TIP3    H147968   6.573   2.585  14.451  0.5514  0.4453  0.3952
 8851TIP3    H247969   6.661   2.463  14.471 -1.4267 -1.5777 -2.4470
 8852TIP3   OH247970   0.240   2.892   0.933 -0.2171  0.3394  0.1096
 8852TIP3    H147971   0.203   2.861   0.850  0.0139  0.2076  0.0536
 8852TIP3    H247972   0.212   2.827   0.998 -1.8200  1.3319  0.4554
 8853TIP3   OH247973   5.311   0.053  11.151  0.3076 -0.1225 -0.4917
 8853TIP3    H147974   5.341   0.130  11.104  0.0239 -0.6445 -1.5617
 8853TIP3    H247975   5.290  -0.011  11.083  0.2978 -1.0618  0.3591
 8854TIP3   OH247976   1.640   2.575  15.671  0.3134 -0.1659 -0.5859
 8854TIP3    H147977   1.581   2.611  15.738  0.6224 -0.9708  0.1387
 8854TIP3    H247978   1.583   2.558  15.596 -0.0019  0.9317 -0.6107
 8855TIP3   OH247979   0.078   2.411   1.705 -0.2630  0.2300 -0.6155
 8855TIP3    H147980   0.147   2.344   1.702 -0.1445  0.3201  0.0019
 8855TIP3    H247981   0.102   2.474   1.637 -0.7143 -0.6787 -1.6483
 8856TIP3   OH247982   3.086   1.041   1.843  0.0872  0.1599  0.5647
 8856TIP3    H147983   3.043   1.122   1.870 -0.8105 -0.1278  0.0388
 8856TIP3    H247984   3.179   1.061   1.847  0.0277  0.2736  3.4249
 8857TIP3   OH247985   0.746   1.669   1.534 -0.3794  0.0085  0.0531
 8857TIP3    H147986   0.733   1.747   1.588 -0.4158 -1.5440  2.4415
 8857TIP3    H247987   0.832   1.636   1.558 -0.3145 -0.6527 -0.9949
 8858TIP3   OH247988   0.197   1.835  11.602  0.2141  0.0753  0.2187
 8858TIP3    H147989   0.107   1.820  11.573  1.0528 -1.1861 -2.0178
 8858TIP3    H247990   0.215   1.925  11.577 -0.7225  0.6759  1.6201
 8859TIP3   OH247991   5.031   1.088   5.121 -0.0220 -0.3013 -0.1267
 8859TIP3    H147992   5.034   1.063   5.214  2.0233  0.7916  0.1525
 8859TIP3    H247993   5.120   1.115   5.100 -0.2748 -1.2046 -2.6491
 8860TIP3   OH247994   3.411   1.294   3.719 -0.5438  0.3794  0.5028
 8860TIP3    H147995   3.484   1.250   3.676 -0.8322 -0.5700  0.9629
 8860TIP3    H247996   3.450   1.368   3.765  0.0711  0.1079  0.4181
 8861TIP3   OH247997   5.976   1.110   3.241 -0.1140  0.0892 -0.7406
 8861TIP3    H147998   6.064   1.083   3.214 -0.6450 -0.5941 -1.8503
 8861TIP3    H247999   5.924   1.030   3.237 -1.3196  0.8977 -2.3885
 8862TIP3   OH248000   5.238   3.499   1.707 -0.1627 -0.1098  0.1473
 8862TIP3    H148001   5.310   3.503   1.770  0.8536  0.8229 -1.0252
 8862TIP3    H248002   5.173   3.561   1.740  0.8194  1.1572 -0.2344
 8863TIP3   OH248003   5.789   5.658  11.095 -0.9016  0.5386 -0.5417
 8863TIP3    H148004   5.779   5.566  11.118 -0.4966  0.3099 -1.2577
 8863TIP3    H248005   5.879   5.665  11.061  0.6103  1.9559  3.1855
 8864TIP3   OH248006   2.628   3.584  14.428 -0.9281  0.0105 -0.3740
 8864TIP3    H148007   2.699   3.596  14.491 -0.3887 -1.2589 -0.7330
 8864TIP3    H248008   2.638   3.657  14.367  0.3518 -0.4196 -0.6980
 8865TIP3   OH248009   4.450   2.296   1.295  0.4115 -0.6058 -0.2340
 8865TIP3    H148010   4.423   2.374   1.246 -0.4704  0.2393  1.5006
 8865TIP3    H248011   4.545   2.296   1.289  0.5077  1.2117  0.5351
 8866TIP3   OH248012   5.730   0.289   5.304  0.0411  0.6556 -0.0608
 8866TIP3    H148013   5.800   0.312   5.365  1.9940 -1.4101 -1.3473
 8866TIP3    H248014   5.708   0.371   5.260  3.5833  0.9746 -1.4816
 8867TIP3   OH248015   5.309   2.932   4.655 -0.0255 -0.2884 -0.0904
 8867TIP3    H148016   5.226   2.979   4.663 -0.2471 -0.9357  1.9326
 8867TIP3    H248017   5.338   2.918   4.745  1.8945 -0.7901 -0.7330
 8868TIP3   OH248018   1.959   4.163   1.562  0.4514  0.1015  0.2286
 8868TIP3    H148019   1.920   4.124   1.641  0.9170  1.4328  1.1644
 8868TIP3    H248020   2.044   4.121   1.554  0.8307  0.6824  1.0565
 8869TIP3   OH248021   5.784   2.487  12.763 -0.0746 -0.3786 -0.2183
 8869TIP3    H148022   5.832   2.522  12.688 -1.9877  1.3089 -0.7538
 8869TIP3    H248023   5.819   2.399  12.775  1.2439 -0.1923 -2.2222
 8870TIP3   OH248024   3.701   1.202  14.541  0.3766  0.1948 -0.5613
 8870TIP3    H148025   3.640   1.183  14.469  0.6310 -0.6101 -0.5746
 8870TIP3    H248026   3.777   1.243  14.498 -0.1720  1.2634 -0.5350
 8871TIP3   OH248027   2.130   5.432  14.835 -0.2113 -0.2736 -0.3433
 8871TIP3    H148028   2.083   5.440  14.918 -1.6438  0.2990 -1.1819
 8871TIP3    H248029   2.103   5.508  14.784  0.6793 -0.5944 -1.3335
 8872TIP3   OH248030   0.819   2.071  11.842 -0.0874  0.1425 -0.1066
 8872TIP3    H148031   0.796   2.123  11.919 -0.7214  1.1959 -0.9661
 8872TIP3    H248032   0.882   2.125  11.794 -0.1716 -0.2092 -0.6288
 8873TIP3   OH248033   0.623   0.966  10.752  0.3357 -0.6905 -0.4982
 8873TIP3    H148034   0.669   1.045  10.725  0.2787  0.0642  1.4362
 8873TIP3    H248035   0.660   0.896  10.698  1.3974  0.4216 -1.2550
 8874TIP3   OH248036   6.360   0.770   5.224  0.0481  0.2112 -0.0558
 8874TIP3    H148037   6.387   0.858   5.198 -0.2731  0.6180  0.9382
 8874TIP3    H248038   6.279   0.783   5.273  1.2150 -0.3640  2.1659
 8875TIP3   OH248039   3.138   4.301   5.036 -0.2533 -0.2215  0.4129
 8875TIP3    H148040   3.181   4.319   4.953 -1.5001  0.3547 -0.1298
 8875TIP3    H248041   3.055   4.259   5.012 -1.2897  1.2569  1.2806
 8876TIP3   OH248042   0.702   0.769   2.810 -0.0713  0.1726 -0.0253
 8876TIP3    H148043   0.776   0.734   2.760  0.7296  0.4250  0.9605
 8876TIP3    H248044   0.650   0.692   2.833  1.5377 -0.4178  1.9094
 8877TIP3   OH248045   1.195   1.984  11.061 -0.2141 -0.6455  0.7709
 8877TIP3    H148046   1.204   2.069  11.105  1.4822 -1.2559  1.7013
 8877TIP3    H248047   1.238   1.996  10.977 -1.5218 -0.1059  0.1574
 8878TIP3   OH248048   2.938   1.772  16.962  0.5701 -0.1915  0.0261
 8878TIP3    H148049   2.963   1.862  16.941 -0.9741  0.5788  1.3263
 8878TIP3    H248050   2.865   1.753  16.903  0.8684 -0.6005 -0.2196
 8879TIP3   OH248051   4.900   3.802  13.865 -0.3004  0.0383 -0.2831
 8879TIP3    H148052   4.894   3.714  13.830  0.0487  0.3066 -1.0517
 8879TIP3    H248053   4.928   3.856  13.791 -2.7853  1.2288 -0.4640
 8880TIP3   OH248054   0.498   4.907   0.896  0.2732 -0.3722  0.4446
 8880TIP3    H148055   0.456   4.974   0.950 -1.3830  0.5458 -1.8398
 8880TIP3    H248056   0.469   4.824   0.934 -0.1725  0.2238  1.4431
 8881TIP3   OH248057   3.221   6.501   1.601  0.1152  0.1864 -0.2130
 8881TIP3    H148058   3.315   6.494   1.582 -0.2357 -0.1908 -1.9532
 8881TIP3    H248059   3.211   6.588   1.640  1.2974 -0.1089  0.8452
 8882TIP3   OH248060   3.439   2.772   2.668 -0.2690  0.1569  0.5083
 8882TIP3    H148061   3.500   2.699   2.657  0.3001  0.8535 -1.5164
 8882TIP3    H248062   3.481   2.829   2.732  0.8340  0.2250 -0.2489
 8883TIP3   OH248063   1.804   6.656   3.831  0.2019  0.1757  0.2950
 8883TIP3    H148064   1.785   6.575   3.879 -3.0739  0.5685 -0.1163
 8883TIP3    H248065   1.872   6.700   3.883  2.0320 -2.7137  0.5717
 8884TIP3   OH248066   5.692   0.817   4.672  0.7384 -0.2121 -0.3865
 8884TIP3    H148067   5.678   0.794   4.580 -0.4303 -2.5615  0.3112
 8884TIP3    H248068   5.781   0.787   4.691  0.0647 -2.1639 -0.1171
 8885TIP3   OH248069   3.350   6.052   4.534  0.1902  0.0172 -0.1118
 8885TIP3    H148070   3.292   6.041   4.610  0.2499 -0.8151 -0.1777
 8885TIP3    H248071   3.294   6.032   4.459  0.0798  1.0285 -0.3140
 8886TIP3   OH248072   6.790   0.363   2.853  1.0299  0.6741  0.0744
 8886TIP3    H148073   6.761   0.428   2.917  1.5707  0.9972  0.0038
 8886TIP3    H248074   6.790   0.410   2.769 -3.9427 -0.8346 -1.1192
 8887TIP3   OH248075   3.817   5.315   0.553 -0.6393 -0.1075  0.4460
 8887TIP3    H148076   3.888   5.359   0.599 -0.6572 -0.7551  1.1231
 8887TIP3    H248077   3.853   5.297   0.466  0.0613 -0.4744  0.7944
 8888TIP3   OH248078   6.572   5.115  16.897  0.2130 -0.1141  0.0509
 8888TIP3    H148079   6.665   5.133  16.887  0.0486  0.9133  0.3387
 8888TIP3    H248080   6.545   5.162  16.976 -0.6529  0.0023 -0.2959
 8889TIP3   OH248081   4.525   1.341  11.173  0.8462 -0.0282 -0.1079
 8889TIP3    H148082   4.513   1.425  11.128 -1.5912 -0.4862 -0.4855
 8889TIP3    H248083   4.473   1.279  11.121  0.8191 -1.3179  1.3917
 8890TIP3   OH248084   5.213   2.366  12.907 -0.0387  0.2806 -0.3773
 8890TIP3    H148085   5.146   2.344  12.842 -2.4199 -1.2079  2.3432
 8890TIP3    H248086   5.283   2.301  12.892 -0.0646  0.5816 -1.9946
 8891TIP3   OH248087   2.288   3.219  16.033  0.6228 -0.1558 -0.4219
 8891TIP3    H148088   2.201   3.182  16.022  0.6564 -0.7604  1.1080
 8891TIP3    H248089   2.348   3.148  16.009  0.7112  0.0836 -0.9383
 8892TIP3   OH248090   4.274   2.239  14.423 -0.2069  0.1327  0.1899
 8892TIP3    H148091   4.196   2.281  14.459  0.2786  1.0452  0.2334
 8892TIP3    H248092   4.285   2.159  14.474  0.0659  1.0356  1.6112
 8893TIP3   OH248093   0.599   2.402   3.512  0.7859  0.2364 -0.5269
 8893TIP3    H148094   0.638   2.453   3.583 -0.4111  2.4002 -1.3418
 8893TIP3    H248095   0.514   2.375   3.546  0.2968  1.1003 -1.0437
 8894TIP3   OH248096   4.582   6.518   4.826  1.0533  0.4144 -0.1544
 8894TIP3    H148097   4.507   6.464   4.800  1.7451 -0.9460  0.5703
 8894TIP3    H248098   4.633   6.529   4.745  3.5028 -4.2718  0.4224
 8895TIP3   OH248099   2.348   2.172   1.005  0.3360 -0.0693  0.0618
 8895TIP3    H148100   2.359   2.246   1.065  0.0036  1.1119 -1.2748
 8895TIP3    H248101   2.255   2.175   0.981  0.4487 -0.5697 -0.4621
 8896TIP3   OH248102   2.632   0.648  15.629 -0.0889 -0.2558  0.6000
 8896TIP3    H148103   2.655   0.703  15.704  1.0249  1.3436 -0.8395
 8896TIP3    H248104   2.716   0.617  15.595 -0.5826 -0.9798  0.0018
 8897TIP3   OH248105   0.120   3.864   0.576 -0.0575 -1.0843  0.4402
 8897TIP3    H148106   0.200   3.882   0.527 -1.0727 -1.6276 -1.5486
 8897TIP3    H248107   0.065   3.941   0.560 -0.3890 -1.2496  0.7720
 8898TIP3   OH248108   4.433   5.549   5.637 -0.1298 -0.1521 -0.2497
 8898TIP3    H148109   4.366   5.489   5.671 -1.0367  0.2029 -1.3378
 8898TIP3    H248110   4.465   5.596   5.714 -1.8489  0.3557  0.1914
 8899TIP3   OH248111   1.462   5.931   2.823 -0.9214  0.0748 -0.1383
 8899TIP3    H148112   1.410   5.864   2.866 -0.2056 -0.7999 -0.6108
 8899TIP3    H248113   1.548   5.890   2.809 -0.4301  1.1271 -0.3208
 8900TIP3   OH248114   4.245   1.903   2.749  0.2323  0.0998 -0.0033
 8900TIP3    H148115   4.226   1.812   2.771  0.2940  0.1782  0.3757
 8900TIP3    H248116   4.189   1.954   2.807  0.0193  0.3025 -0.3813
 8901TIP3   OH248117   2.933   6.647  11.273  0.3491 -0.1549 -0.2928
 8901TIP3    H148118   3.011   6.701  11.288 -1.3327  2.3425  0.0405
 8901TIP3    H248119   2.878   6.663  11.350 -0.6055 -1.7112 -0.6153
 8902TIP3   OH248120   5.924   5.261  11.007 -0.2685 -0.3536  0.4066
 8902TIP3    H148121   5.881   5.186  10.966 -0.5530  0.0405 -0.0267
 8902TIP3    H248122   5.942   5.232  11.097  0.3454 -1.2175  0.0170
 8903TIP3   OH248123   4.902   2.853  12.599 -0.7657 -0.1909 -0.1716
 8903TIP3    H148124   4.977   2.806  12.560 -0.4850 -0.4291  0.6336
 8903TIP3    H248125   4.910   2.942  12.566 -0.3939 -0.3308 -0.4703
 8904TIP3   OH248126   0.983   3.004  16.643 -0.0517  0.3042 -0.4494
 8904TIP3    H148127   1.043   2.931  16.627  0.8021  0.5922  1.2099
 8904TIP3    H248128   0.936   3.015  16.560  0.7667 -1.2302 -1.1604
 8905TIP3   OH248129   6.766   2.595   3.242 -1.0469 -0.1396 -0.3898
 8905TIP3    H148130   6.799   2.608   3.330  0.7510 -0.9644 -0.9019
 8905TIP3    H248131   6.673   2.575   3.254 -0.8249 -0.2854  1.3070
 8906TIP3   OH248132   5.115   6.700  14.312 -0.2241 -0.5371 -0.0073
 8906TIP3    H148133   5.132   6.716  14.219  0.6211 -0.1282  0.2066
 8906TIP3    H248134   5.060   6.773  14.339 -1.4513 -1.2770 -0.4487
 8907TIP3   OH248135   0.089   0.263   5.148  1.1594  0.0495  0.0149
 8907TIP3    H148136  -0.001   0.275   5.119  1.0498  0.5296  0.5442
 8907TIP3    H248137   0.123   0.192   5.094  0.6094  0.1845 -0.5094
 8908TIP3   OH248138   0.544   1.805   2.273 -0.4200 -0.0217 -0.1318
 8908TIP3    H148139   0.605   1.820   2.200  0.4347 -1.0310  0.3579
 8908TIP3    H248140   0.535   1.710   2.278 -1.6417  0.0958  0.1452
 8909TIP3   OH248141   6.168   2.081   3.129 -0.6883  0.0820 -0.3476
 8909TIP3    H148142   6.165   2.166   3.173 -0.4138  0.1672 -0.4920
 8909TIP3    H248143   6.174   2.102   3.036 -1.5866 -0.0981 -0.4562
 8910TIP3   OH248144   1.085   1.609  16.546  0.4339 -0.2739  0.3957
 8910TIP3    H148145   1.151   1.669  16.511  0.2252  0.0067  0.4814
 8910TIP3    H248146   1.117   1.522  16.523 -0.7242 -0.0535 -2.3918
 8911TIP3   OH248147   4.619   5.437  16.788 -0.1645  0.0860 -0.3687
 8911TIP3    H148148   4.540   5.411  16.836  0.9904 -1.8052  0.6319
 8911TIP3    H248149   4.667   5.493  16.849  0.9408 -1.7099  0.5134
 8912TIP3   OH248150   1.812   2.773   4.494 -0.1827 -0.4798 -0.4053
 8912TIP3    H148151   1.820   2.806   4.404 -0.0313  2.1651  0.5074
 8912TIP3    H248152   1.875   2.701   4.499 -1.3315 -1.7972 -2.8271
 8913TIP3   OH248153   0.650   2.333   5.302  0.1863  0.0677  0.0409
 8913TIP3    H148154   0.728   2.383   5.279 -0.9973  1.5126 -1.0833
 8913TIP3    H248155   0.605   2.387   5.366  0.1449 -0.7998  0.7573
 8914TIP3   OH248156   2.217   0.245  11.157  0.4498 -0.1736 -0.0718
 8914TIP3    H148157   2.305   0.245  11.118  0.5603 -0.0611  0.1752
 8914TIP3    H248158   2.218   0.172  11.218 -0.1764 -1.2209 -1.2717
 8915TIP3   OH248159   0.601   5.566   0.054 -0.6104  0.6199 -0.4614
 8915TIP3    H148160   0.526   5.581  -0.003  0.8769  2.6457 -2.0045
 8915TIP3    H248161   0.622   5.652   0.089 -0.0068 -0.1982  1.3308
 8916TIP3   OH248162   2.268   1.827  16.981 -0.2165  0.4078  0.4433
 8916TIP3    H148163   2.269   1.923  16.984  0.6284  0.4431 -0.3688
 8916TIP3    H248164   2.343   1.804  16.925 -0.1964 -0.7365  0.9080
 8917TIP3   OH248165   0.008   4.174  13.279 -0.3518  0.1282 -0.4514
 8917TIP3    H148166   0.048   4.159  13.194 -0.4618 -0.0294 -0.4767
 8917TIP3    H248167   0.040   4.102  13.334 -0.1997  0.2885 -0.3327
 8918TIP3   OH248168   5.759   6.040   1.265  0.1615 -0.4079 -0.3165
 8918TIP3    H148169   5.675   6.071   1.297  0.4730  1.8316 -1.5204
 8918TIP3    H248170   5.743   5.949   1.239 -2.1595  0.2691 -1.5038
 8919TIP3   OH248171   3.818   2.082  11.602  0.5605 -0.7886  0.6017
 8919TIP3    H148172   3.828   2.063  11.695  1.4578 -0.8205  0.5098
 8919TIP3    H248173   3.725   2.067  11.584  0.2698 -0.2484  1.6033
 8920TIP3   OH248174   1.567   3.166  16.327 -0.4125  0.3959  0.5349
 8920TIP3    H148175   1.521   3.142  16.407 -1.8486 -0.7667 -0.5611
 8920TIP3    H248176   1.622   3.241  16.351 -1.4704  0.6343  2.3657
 8921TIP3   OH248177   5.502   2.192   2.261 -0.3221 -0.0741 -0.4641
 8921TIP3    H148178   5.532   2.220   2.175  1.2354  0.2587  0.1677
 8921TIP3    H248179   5.409   2.216   2.263 -0.6446 -0.9789 -2.4026
 8922TIP3   OH248180   6.224   0.816  15.484 -0.4824 -0.0544  0.1457
 8922TIP3    H148181   6.158   0.763  15.528  0.7534 -0.8555  1.1264
 8922TIP3    H248182   6.295   0.823  15.548  0.8535 -0.1773 -1.2644
 8923TIP3   OH248183   3.982   2.705  13.116  0.5444 -0.3338  0.2128
 8923TIP3    H148184   3.921   2.777  13.136  1.0863 -0.0299  0.8019
 8923TIP3    H248185   3.930   2.626  13.128  0.2057 -0.0708  0.5134
 8924TIP3   OH248186   6.084   4.817  15.853 -0.4258 -0.2493  0.3787
 8924TIP3    H148187   6.098   4.724  15.866 -1.4965 -0.6307 -0.9996
 8924TIP3    H248188   6.060   4.826  15.761 -1.1572  1.2868  0.6757
 8925TIP3   OH248189   6.396   6.114  11.988  0.7981  0.0492 -0.0467
 8925TIP3    H148190   6.343   6.176  11.938  2.4431  1.4920 -0.0802
 8925TIP3    H248191   6.366   6.028  11.958 -1.9637  0.7323  0.4472
 8926TIP3   OH248192   3.369   4.526   5.922  0.2246 -0.0677 -0.8329
 8926TIP3    H148193   3.338   4.436   5.934  0.0927 -0.1721 -1.8694
 8926TIP3    H248194   3.464   4.516   5.910  0.3330  0.0206 -0.0764
 8927TIP3   OH248195   0.607   2.823   2.188 -0.4872  0.2045  0.3101
 8927TIP3    H148196   0.597   2.912   2.220  0.3191 -0.3507  2.2527
 8927TIP3    H248197   0.696   2.798   2.212 -0.5343 -0.9548 -0.6275
 8928TIP3   OH248198   5.376   5.059  16.286  0.3043 -0.0841  0.0987
 8928TIP3    H148199   5.379   5.117  16.210  1.6548 -1.2374 -0.7908
 8928TIP3    H248200   5.321   4.986  16.258 -0.1087  0.0165  0.6433
 8929TIP3   OH248201   4.558   5.457  10.773 -0.1185  0.2200 -0.0139
 8929TIP3    H148202   4.607   5.472  10.692 -0.2909  0.8231 -0.0149
 8929TIP3    H248203   4.478   5.510  10.762 -0.8175 -0.8145 -0.0470
 8930TIP3   OH248204   3.067   5.755  10.750 -0.2644 -0.0515  0.2245
 8930TIP3    H148205   3.000   5.759  10.682  0.4126  0.1990 -0.4405
 8930TIP3    H248206   3.116   5.837  10.741  0.0866 -0.1958  0.7485
 8931TIP3   OH248207   1.593   2.800  13.441  0.8729 -0.2983  0.7436
 8931TIP3    H148208   1.589   2.706  13.458  0.1207 -0.4335 -0.1074
 8931TIP3    H248209   1.672   2.829  13.487  1.8093 -1.5649  0.0119
 8932TIP3   OH248210   4.164   2.813  14.960 -0.2527 -0.0283 -0.4719
 8932TIP3    H148211   4.251   2.853  14.965  0.1811 -0.9201 -0.5849
 8932TIP3    H248212   4.113   2.859  15.026  0.3480  0.4277 -0.3111
 8933TIP3   OH248213   6.278   5.660  10.457 -0.1415 -0.7350  0.2066
 8933TIP3    H148214   6.326   5.597  10.403  1.0736  0.2060  0.1310
 8933TIP3    H248215   6.202   5.611  10.489  0.5891 -2.1465 -0.1019
 8934TIP3   OH248216   5.745   2.198  14.905  0.0745  0.4681  0.3575
 8934TIP3    H148217   5.770   2.235  14.820  0.3330 -2.0339 -0.7453
 8934TIP3    H248218   5.814   2.227  14.965  2.2884 -1.1019 -1.2538
 8935TIP3   OH248219   5.231   4.800  15.373  0.5184 -0.4312  0.6135
 8935TIP3    H148220   5.321   4.825  15.354  0.7402 -1.4965  0.2288
 8935TIP3    H248221   5.233   4.773  15.465  0.7526 -1.1285  0.4103
 8936TIP3   OH248222   5.287   0.549  12.306  0.5085 -0.1582  0.1713
 8936TIP3    H148223   5.355   0.594  12.256  0.3498 -0.5211 -0.3841
 8936TIP3    H248224   5.332   0.517  12.384  1.2411 -1.3440 -0.7019
 8937TIP3   OH248225   5.185   4.498  16.018  0.5443 -0.4328 -0.3153
 8937TIP3    H148226   5.135   4.466  15.943  0.3025 -0.4395 -0.1528
 8937TIP3    H248227   5.230   4.420  16.051 -0.7926 -0.8263  0.6610
 8938TIP3   OH248228   3.319   2.717  16.799 -0.6897  0.1911  0.2800
 8938TIP3    H148229   3.319   2.623  16.781 -0.6206  0.0420  1.0229
 8938TIP3    H248230   3.235   2.748  16.766  0.2327  0.3168 -2.1429
 8939TIP3   OH248231   0.084   1.626   5.262 -0.1843 -0.4615 -0.2225
 8939TIP3    H148232   0.093   1.678   5.342  2.4388  0.1441 -0.8262
 8939TIP3    H248233   0.089   1.535   5.291 -1.0406 -0.3101  0.4489
 8940TIP3   OH248234   5.876   5.710   2.083  0.1551 -0.6866  0.0694
 8940TIP3    H148235   5.871   5.744   2.172  0.6916 -1.9664  0.6158
 8940TIP3    H248236   5.847   5.619   2.090  0.0571 -0.7688 -1.0924
 8941TIP3   OH248237   5.801   5.436   2.079  0.3302  0.1048 -0.1938
 8941TIP3    H148238   5.844   5.402   2.001  2.5043 -1.6759  1.6330
 8941TIP3    H248239   5.710   5.407   2.070  0.9179 -1.5941 -1.2731
 8942TIP3   OH248240   3.579   6.666   3.629  0.0712 -0.1407 -0.7487
 8942TIP3    H148241   3.599   6.681   3.721  0.5712  0.6719 -0.9773
 8942TIP3    H248242   3.523   6.740   3.604  0.8079  0.2289 -1.3571
 8943TIP3   OH248243   2.532   5.627   4.904  0.3296 -0.0333  0.8088
 8943TIP3    H148244   2.454   5.635   4.850 -0.0041 -0.2813  1.2473
 8943TIP3    H248245   2.532   5.706   4.959  0.5555  0.1167  0.5965
 8944TIP3   OH248246   3.540   2.996  12.767 -0.3514  0.1270  0.0723
 8944TIP3    H148247   3.555   2.927  12.832 -1.6365  0.2351  0.5278
 8944TIP3    H248248   3.551   2.952  12.683  0.9371 -0.1147  0.3564
 8945TIP3   OH248249   6.763   2.035   3.791  0.2473 -0.5452 -0.1473
 8945TIP3    H148250   6.784   1.942   3.797  0.5955 -0.4292  0.4618
 8945TIP3    H248251   6.668   2.039   3.807  0.2213 -0.7995 -0.2343
 8946TIP3   OH248252   2.696   2.777   0.444 -0.3337 -0.9346  0.3122
 8946TIP3    H148253   2.612   2.804   0.479  0.8562  1.1253  1.7729
 8946TIP3    H248254   2.730   2.855   0.399  0.8167 -1.6999 -0.2075
 8947TIP3   OH248255   3.232   0.044  14.910 -0.4291  0.2976  0.2333
 8947TIP3    H148256   3.229  -0.047  14.879 -0.1476  1.3741 -3.3724
 8947TIP3    H248257   3.150   0.055  14.958 -0.4524 -1.8449  0.8122
 8948TIP3   OH248258   6.078   1.450  16.370 -0.1546  0.2257 -0.3581
 8948TIP3    H148259   6.127   1.429  16.449 -1.8117 -0.0869  0.6283
 8948TIP3    H248260   6.146   1.469  16.304  1.2472  1.1389  1.2764
 8949TIP3   OH248261   5.344   3.335  11.464  0.2253  0.3090 -0.0134
 8949TIP3    H148262   5.389   3.341  11.380 -0.1027 -0.9319 -0.3011
 8949TIP3    H248263   5.351   3.243  11.488  1.6987  0.8983  2.1134
 8950TIP3   OH248264   6.383   2.643  10.846  0.5438  0.1748  0.7685
 8950TIP3    H148265   6.342   2.644  10.933  0.8551  1.5373  0.9203
 8950TIP3    H248266   6.410   2.734  10.831 -0.9134  0.3172 -1.4432
 8951TIP3   OH248267   4.976   3.456  16.180  0.3888  0.3499 -0.0386
 8951TIP3    H148268   5.023   3.380  16.214  0.7011  0.9734  0.9715
 8951TIP3    H248269   5.021   3.531  16.218 -0.4422  1.0102 -0.3270
 8952TIP3   OH248270   5.166   1.796   4.343  0.1792  0.4793 -0.3679
 8952TIP3    H148271   5.193   1.707   4.321 -0.7713 -0.1612  0.9239
 8952TIP3    H248272   5.211   1.815   4.426 -1.4343  0.2869  0.5808
 8953TIP3   OH248273   1.675   2.061   5.885 -0.1053  0.2378  0.0478
 8953TIP3    H148274   1.662   1.998   5.814 -1.0671  1.0913 -0.5696
 8953TIP3    H248275   1.744   2.022   5.939 -0.3021 -1.0783 -0.5978
 8954TIP3   OH248276   2.817   5.102   0.134 -0.3823  0.4106  0.1492
 8954TIP3    H148277   2.806   5.033   0.069  1.1242 -0.4703  0.7659
 8954TIP3    H248278   2.837   5.180   0.083  1.4733 -0.4096 -0.4772
 8955TIP3   OH248279   1.692   0.735   3.813  0.1021  0.1871  0.3092
 8955TIP3    H148280   1.663   0.773   3.896 -0.9530  1.3125 -0.5395
 8955TIP3    H248281   1.624   0.759   3.750  0.4531 -1.3586 -0.7273
 8956TIP3   OH248282   5.280   5.563  13.743 -0.2229  0.1639 -0.4983
 8956TIP3    H148283   5.204   5.622  13.748 -0.9024 -0.5833 -1.5360
 8956TIP3    H248284   5.261   5.507  13.668  0.7146 -0.9492  0.0752
 8957TIP3   OH248285   5.717   6.580   1.012 -0.4000  0.3211  0.0626
 8957TIP3    H148286   5.765   6.540   0.940  0.0212  1.1929 -0.1588
 8957TIP3    H248287   5.706   6.510   1.076  0.4280 -0.1094 -0.2551
 8958TIP3   OH248288   6.384   5.075   4.158 -0.3186 -0.1950 -0.4831
 8958TIP3    H148289   6.456   5.016   4.134 -0.1746  0.8412 -2.7777
 8958TIP3    H248290   6.337   5.027   4.226  1.8521 -1.3983  0.2973
 8959TIP3   OH248291   1.129   1.615   1.277  0.3432 -0.5181 -0.1525
 8959TIP3    H148292   1.208   1.562   1.290  0.8294 -0.9160 -3.7379
 8959TIP3    H248293   1.161   1.702   1.254 -0.2148 -0.6303 -1.4548
 8960TIP3   OH248294   5.970   1.343   2.462  0.0509  0.1366 -0.2879
 8960TIP3    H148295   5.900   1.405   2.480  0.8191  0.5584  1.4582
 8960TIP3    H248296   6.017   1.382   2.388 -0.7449  0.5322 -0.5973
 8961TIP3   OH248297   5.752   5.791   4.354 -0.3607 -0.4713  0.6536
 8961TIP3    H148298   5.842   5.773   4.381 -1.1725 -0.8412  3.3811
 8961TIP3    H248299   5.737   5.733   4.279  1.2925 -1.2850  0.9113
 8962TIP3   OH248300   3.606   5.591  13.287 -0.4661 -0.0425 -0.7360
 8962TIP3    H148301   3.518   5.625  13.303 -0.1173  0.9279 -0.8125
 8962TIP3    H248302   3.616   5.593  13.192 -0.7170 -1.0917 -0.7915
 8963TIP3   OH248303   6.151   4.832   1.323  0.1706 -0.3486  0.0168
 8963TIP3    H148304   6.158   4.924   1.349 -1.2072  0.1379 -1.2094
 8963TIP3    H248305   6.057   4.813   1.323  0.3293 -1.2755 -1.2954
 8964TIP3   OH248306   5.665   2.759  17.052 -0.0299 -0.7403 -0.3573
 8964TIP3    H148307   5.758   2.752  17.034  0.1184 -0.2416  0.1618
 8964TIP3    H248308   5.639   2.844  17.017  0.3016  0.3235  1.7842
 8965TIP3   OH248309   5.672   2.426   5.204  0.0795 -0.3567  0.3231
 8965TIP3    H148310   5.699   2.374   5.280  0.5209  0.4766  0.7429
 8965TIP3    H248311   5.749   2.428   5.148 -0.4407 -1.5197 -0.4861
 8966TIP3   OH248312   5.777   5.115   1.970  0.0601 -0.4288  0.0200
 8966TIP3    H148313   5.754   5.120   1.877  1.2568  0.3138 -0.2542
 8966TIP3    H248314   5.697   5.083   2.012 -0.0571 -2.2142 -1.4250
 8967TIP3   OH248315   0.367   0.133  11.891  0.3600  0.5667  0.2819
 8967TIP3    H148316   0.407   0.054  11.853  1.2330  1.4310 -0.6580
 8967TIP3    H248317   0.273   0.119  11.880  0.4551 -0.6987  0.8663
 8968TIP3   OH248318   6.588   5.246  14.332 -0.1359 -0.0017 -0.5895
 8968TIP3    H148319   6.683   5.260  14.338  0.4923 -2.3918 -2.7940
 8968TIP3    H248320   6.557   5.319  14.278  0.0644  1.7513  1.5262
 8969TIP3   OH248321   3.806   0.533  12.724  0.9921  0.3153  0.2394
 8969TIP3    H148322   3.805   0.569  12.635 -1.5293  0.8374  0.4074
 8969TIP3    H248323   3.877   0.579  12.768  3.3180 -1.0109 -1.8276
 8970TIP3   OH248324   0.262   3.235   0.600  0.4496  0.0905  0.0764
 8970TIP3    H148325   0.233   3.242   0.510  0.7072  0.2506  0.0071
 8970TIP3    H248326   0.184   3.204   0.648  0.4418 -0.4435 -0.2736
 8971TIP3   OH248327   5.734   3.026  13.582  0.1589 -0.1793  0.5991
 8971TIP3    H148328   5.776   2.960  13.527 -3.0991 -1.6756 -0.3644
 8971TIP3    H248329   5.748   3.109  13.536 -0.6006 -1.0901 -1.3630
 8972TIP3   OH248330   5.735   4.686   1.258  0.6627  0.1650  0.0712
 8972TIP3    H148331   5.652   4.728   1.237 -1.3465 -3.4686  0.0592
 8972TIP3    H248332   5.734   4.673   1.352  1.6525  0.8504  0.1955
 8973TIP3   OH248333   6.356   3.649   1.017  0.4010 -0.3306  0.5994
 8973TIP3    H148334   6.416   3.656   0.942  0.2417  0.0971  0.5117
 8973TIP3    H248335   6.408   3.606   1.085  0.2011 -1.7935 -0.1292
 8974TIP3   OH248336   0.277   5.435   5.139 -0.1761 -0.0976  0.0933
 8974TIP3    H148337   0.263   5.347   5.174 -0.2436 -0.2771 -0.3796
 8974TIP3    H248338   0.343   5.474   5.197  0.7951 -0.9100 -0.4358
 8975TIP3   OH248339   1.386   3.373   4.011 -0.0373  0.2761 -0.3394
 8975TIP3    H148340   1.390   3.468   4.023  1.6986  0.3997 -1.6101
 8975TIP3    H248341   1.350   3.361   3.923 -2.0025 -0.3402  0.4814
 8976TIP3   OH248342   2.605   3.727   2.211 -0.2093  0.4745  0.7285
 8976TIP3    H148343   2.604   3.804   2.267 -2.1266  0.2550  1.0509
 8976TIP3    H248344   2.694   3.724   2.176  0.7208  1.2641  2.8638
 8977TIP3   OH248345   0.618   0.002  13.622  0.0591 -0.1123 -0.7970
 8977TIP3    H148346   0.569  -0.057  13.679  1.2628 -1.1447 -0.7758
 8977TIP3    H248347   0.592  -0.022  13.533  0.4102 -0.5533 -0.7814
 8978TIP3   OH248348   0.357   0.381  10.873 -0.3331 -0.3271  0.1225
 8978TIP3    H148349   0.437   0.330  10.866 -0.2609 -0.2652  0.4466
 8978TIP3    H248350   0.363   0.446  10.803  0.6413  0.6673  1.0740
 8979TIP3   OH248351   2.718   3.295  11.467 -0.2962 -0.9246 -0.4516
 8979TIP3    H148352   2.721   3.348  11.388 -2.1655  0.4784  0.3310
 8979TIP3    H248353   2.798   3.317  11.514 -1.7182  2.6219  0.6239
 8980TIP3   OH248354   4.628   3.879  15.144 -0.6378 -0.0712  0.3918
 8980TIP3    H148355   4.597   3.833  15.066 -0.2858  1.7732 -0.8820
 8980TIP3    H248356   4.723   3.875  15.137 -0.5797  1.8218 -0.3844
 8981TIP3   OH248357   6.762   1.825   5.468  0.0817 -0.6478  0.0450
 8981TIP3    H148358   6.829   1.894   5.466  1.1062 -1.5804  0.8871
 8981TIP3    H248359   6.706   1.847   5.542  1.3747 -1.5434  1.3487
 8982TIP3   OH248360   0.730   4.116  15.566  0.4620 -0.1281  0.3541
 8982TIP3    H148361   0.742   4.210  15.556  2.8487 -0.5037 -1.4862
 8982TIP3    H248362   0.704   4.086  15.479 -2.9306 -0.9593  1.5096
 8983TIP3   OH248363   4.265   3.841  16.986 -0.4713  0.1877  0.5813
 8983TIP3    H148364   4.227   3.753  16.986 -0.7887  0.3201  0.9452
 8983TIP3    H248365   4.259   3.869  17.077  0.2459  0.3253  0.5895
 8984TIP3   OH248366   5.198   4.486   0.334 -0.1807 -0.0516 -0.1344
 8984TIP3    H148367   5.209   4.396   0.365  1.1620  0.0358 -0.2842
 8984TIP3    H248368   5.108   4.509   0.357 -0.0018 -0.8253  1.5014
 8985TIP3   OH248369   1.432   3.101   3.131 -0.2322  0.0979 -0.1076
 8985TIP3    H148370   1.343   3.067   3.140 -0.1153 -0.4700 -0.9088
 8985TIP3    H248371   1.420   3.192   3.105 -0.5702  0.2562  0.5906
 8986TIP3   OH248372   3.657   3.108   0.532  0.0501  0.3670 -0.1599
 8986TIP3    H148373   3.745   3.099   0.496  0.2224 -1.6775  0.6386
 8986TIP3    H248374   3.600   3.108   0.455  0.6140 -0.7022 -0.6012
 8987TIP3   OH248375   6.185   2.482   5.529 -0.2064 -0.1038 -0.9536
 8987TIP3    H148376   6.259   2.427   5.501 -1.1283 -1.0562 -1.6356
 8987TIP3    H248377   6.191   2.484   5.625  0.7525 -0.0873 -1.0081
 8988TIP3   OH248378   4.669   2.118  16.928 -0.3928 -0.2891 -0.6797
 8988TIP3    H148379   4.616   2.083  17.000 -0.9174 -0.1798 -1.0109
 8988TIP3    H248380   4.680   2.045  16.868 -1.8041  0.1758 -1.5570
 8989TIP3   OH248381   6.448   6.591   2.900  0.2771  0.2346 -0.2224
 8989TIP3    H148382   6.413   6.504   2.880 -0.1168  0.1637  0.6985
 8989TIP3    H248383   6.374   6.650   2.891 -0.2723  0.0223  2.1714
 8990TIP3   OH248384   5.900   4.384   3.973  0.1959  0.7040 -0.0381
 8990TIP3    H148385   5.918   4.402   4.065 -0.1779  1.0896 -0.0364
 8990TIP3    H248386   5.862   4.465   3.940  1.1943  0.8930 -0.7722
 8991TIP3   OH248387   0.118   2.361   5.281  0.7982 -0.2696 -0.1010
 8991TIP3    H148388   0.174   2.410   5.220  0.8001  0.1260  0.2128
 8991TIP3    H248389   0.177   2.297   5.322  1.2921  0.8624  1.0269
 8992TIP3   OH248390   1.488   3.192  10.964 -0.3484  0.1919  0.1055
 8992TIP3    H148391   1.487   3.217  11.056 -0.8952  0.8708 -0.0800
 8992TIP3    H248392   1.534   3.108  10.963  1.0834  0.9240  0.8003
 8993TIP3   OH248393   1.656   4.020   4.380 -0.8271 -0.6987  0.5131
 8993TIP3    H148394   1.732   4.077   4.387 -2.1356  1.0871  0.7328
 8993TIP3    H248395   1.641   3.989   4.469 -1.7348  0.8545  0.9311
 8994TIP3   OH248396   4.870   2.521   5.024 -0.1534 -0.4120 -0.1525
 8994TIP3    H148397   4.958   2.556   5.005 -0.7822  1.3485 -0.0714
 8994TIP3    H248398   4.811   2.582   4.981 -1.3828 -0.6661  1.1005
 8995TIP3   OH248399   1.846   1.026   3.284  0.4073 -0.0121  0.3929
 8995TIP3    H148400   1.831   0.937   3.315  1.5576 -0.5443 -0.5081
 8995TIP3    H248401   1.814   1.025   3.194  2.2253 -0.0936 -0.2809
 8996TIP3   OH248402   1.225   4.686   2.230  0.5004 -0.2509 -0.6498
 8996TIP3    H148403   1.135   4.697   2.198  0.0900 -3.1344 -0.7604
 8996TIP3    H248404   1.215   4.673   2.325  1.2216  2.7915 -0.0254
 8997TIP3   OH248405   5.793   5.856   0.648 -0.1371  0.2689  0.2952
 8997TIP3    H148406   5.752   5.871   0.563  0.5006 -1.1322 -0.3039
 8997TIP3    H248407   5.720   5.845   0.709 -0.6028  0.6879 -0.1785
 8998TIP3   OH248408   1.353   4.790  12.234  0.2642  0.1361 -0.5480
 8998TIP3    H148409   1.313   4.785  12.320 -1.1133  0.2056 -1.1587
 8998TIP3    H248410   1.406   4.870  12.236 -0.4936  0.6341 -0.0557
 8999TIP3   OH248411   5.881   1.916   0.749  0.3279 -0.5026 -0.1177
 8999TIP3    H148412   5.786   1.911   0.757  0.4837 -1.7198  1.5944
 8999TIP3    H248413   5.910   1.825   0.761  1.7688  0.0481  0.7456
 9000TIP3   OH248414   3.829   5.899  12.445 -0.1099 -0.0888  0.5333
 9000TIP3    H148415   3.785   5.984  12.433 -1.1214 -0.4951  1.2446
 9000TIP3    H248416   3.878   5.909  12.527  0.8851  0.2522 -0.0885
 9001TIP3   OH248417   2.405   5.527  12.278 -0.0165 -0.2726 -0.0273
 9001TIP3    H148418   2.351   5.590  12.324 -1.4002 -0.1859 -1.6638
 9001TIP3    H248419   2.389   5.545  12.185 -0.2292 -2.8197 -0.5589
 9002TIP3   OH248420   1.132   2.506   1.870  0.3253  0.0587  0.7096
 9002TIP3    H148421   1.043   2.541   1.882  1.2475  2.5794  0.9135
 9002TIP3    H248422   1.132   2.471   1.782 -0.8543  0.1408  0.6611
 9003TIP3   OH248423   2.111   5.512  14.024 -0.1483 -0.1227 -0.1789
 9003TIP3    H148424   2.147   5.459  13.953 -0.1209  0.9557 -0.9964
 9003TIP3    H248425   2.166   5.591  14.025 -2.4954  1.6354 -1.5216
 9004TIP3   OH248426   6.405   1.292   0.854 -0.1096  0.2548  0.6924
 9004TIP3    H148427   6.332   1.237   0.827 -0.3650  0.6524  0.5824
 9004TIP3    H248428   6.469   1.230   0.891 -0.1343 -0.1859  0.0059
 9005TIP3   OH248429   1.398   0.555   2.055 -0.0532 -0.1341 -0.1034
 9005TIP3    H148430   1.423   0.502   1.979 -2.1189  0.1979 -1.0749
 9005TIP3    H248431   1.403   0.645   2.025  1.7106  0.1966  1.0132
 9006TIP3   OH248432   6.094   3.388   2.280 -0.6135  0.0820  0.0388
 9006TIP3    H148433   6.112   3.297   2.254  2.8276  0.5055  0.3624
 9006TIP3    H248434   6.049   3.380   2.364 -1.0538 -1.3278 -0.3047
 9007TIP3   OH248435   0.629   2.459   2.825  0.2069 -0.2047  0.1437
 9007TIP3    H148436   0.581   2.462   2.742 -2.6109 -3.1486  1.4601
 9007TIP3    H248437   0.618   2.547   2.862  1.4130  1.1398 -2.3923
 9008TIP3   OH248438   5.077   1.626  13.534  0.1836 -0.7715  0.2216
 9008TIP3    H148439   5.134   1.619  13.610  0.6253  1.1714  0.1153
 9008TIP3    H248440   5.128   1.591  13.461  2.3022  2.9464 -0.3363
 9009TIP3   OH248441   3.633   3.380  14.259 -0.9553 -0.4897 -0.4793
 9009TIP3    H148442   3.714   3.431  14.258 -0.9164 -0.5594 -1.2778
 9009TIP3    H248443   3.622   3.356  14.351  0.2178 -0.9309 -0.4327
 9010TIP3   OH248444   0.282   1.534   3.482  0.3036  0.2958  0.6679
 9010TIP3    H148445   0.370   1.503   3.506  0.3198  0.3120  0.6285
 9010TIP3    H248446   0.296   1.591   3.407  0.2491  0.2242  0.6030
 9011TIP3   OH248447   0.686   2.101  11.508  0.2871  0.1499 -0.4596
 9011TIP3    H148448   0.688   2.192  11.536  1.6399  0.3008 -0.9564
 9011TIP3    H248449   0.739   2.100  11.428  1.7379 -1.3507  0.4518
 9012TIP3   OH248450   4.415   2.172   0.288  0.1628 -1.0169  0.0870
 9012TIP3    H148451   4.335   2.131   0.255 -0.2643 -2.6788  2.8780
 9012TIP3    H248452   4.392   2.264   0.297 -1.0433 -1.2662 -0.2355
 9013TIP3   OH248453   0.876   5.236   2.197 -0.2612  0.1663 -0.0772
 9013TIP3    H148454   0.815   5.310   2.200 -2.0505 -1.2446  0.7446
 9013TIP3    H248455   0.891   5.213   2.289  2.6891  1.2929 -0.1667
 9014TIP3   OH248456   3.466   1.038  12.887 -0.1748  0.5439  0.0391
 9014TIP3    H148457   3.555   1.036  12.923  0.0363  1.1722 -0.4277
 9014TIP3    H248458   3.452   1.129  12.862 -0.4150  0.1975 -1.1701
 9015TIP3   OH248459   1.766   1.318   5.901 -0.0779  0.4650 -0.5595
 9015TIP3    H148460   1.818   1.370   5.962 -0.8962 -0.0267  0.6003
 9015TIP3    H248461   1.689   1.292   5.951  0.1457 -1.5981 -1.1765
 9016TIP3   OH248462   6.665   6.562   2.670  0.7208 -0.2469  0.7352
 9016TIP3    H148463   6.604   6.556   2.744 -1.4853  0.3323 -0.9440
 9016TIP3    H248464   6.653   6.651   2.637  1.4648 -0.5871 -0.5004
 9017TIP3   OH248465   3.921   3.054  15.006  0.2329 -0.2203 -0.0164
 9017TIP3    H148466   3.910   2.995  14.932  0.4932  0.5020 -0.6358
 9017TIP3    H248467   3.936   2.996  15.081  0.6102 -0.9357 -0.6370
 9018TIP3   OH248468   2.089   3.112  15.022  0.1737  0.0307 -0.0732
 9018TIP3    H148469   2.023   3.081  15.084 -0.9895 -1.3917 -1.9001
 9018TIP3    H248470   2.153   3.040  15.018 -1.0730 -1.0469 -2.2832
 9019TIP3   OH248471   3.267   1.794  13.415  0.4459  0.0010 -0.0265
 9019TIP3    H148472   3.306   1.805  13.328  1.9822  0.5772  0.6937
 9019TIP3    H248473   3.328   1.839  13.474 -1.5747  1.3715  1.1333
 9020TIP3   OH248474   5.647   0.773   2.728  0.6336  0.2995  0.2642
 9020TIP3    H148475   5.600   0.848   2.765  1.1923  0.1025  1.4093
 9020TIP3    H248476   5.643   0.706   2.797  2.3971  0.2013  0.3170
 9021TIP3   OH248477   5.349   0.506   1.958 -0.5104  0.0442  0.4558
 9021TIP3    H148478   5.263   0.495   1.917 -0.2658 -0.0632 -0.0360
 9021TIP3    H248479   5.411   0.490   1.888 -0.0871  0.5186  0.7182
 9022TIP3   OH248480   0.410   1.114   4.326 -0.6099  0.2482 -0.0673
 9022TIP3    H148481   0.376   1.052   4.262 -1.1972  1.5445 -1.0702
 9022TIP3    H248482   0.332   1.162   4.355 -0.1847  0.4636  0.7428
 9023TIP3   OH248483   0.625   4.857   4.920 -0.1695  0.3978 -0.6898
 9023TIP3    H148484   0.632   4.795   4.847 -1.5981  0.5195 -0.9661
 9023TIP3    H248485   0.693   4.922   4.903  0.8158 -0.6411 -0.8328
 9024TIP3   OH248486   6.309   0.831   2.131  0.1869  0.7470 -0.7780
 9024TIP3    H148487   6.352   0.913   2.155  0.8266  0.2481 -0.1606
 9024TIP3    H248488   6.253   0.811   2.206  0.2849  0.4479 -0.7842
 9025TIP3   OH248489   4.954   6.019  10.570 -0.1137  0.5104  0.3890
 9025TIP3    H148490   4.996   6.073  10.637 -1.3385  1.9473  0.0528
 9025TIP3    H248491   4.961   6.071  10.490 -3.0653  1.1686  0.4476
 9026TIP3   OH248492   0.169   3.450  12.213  0.0708  0.0561  0.7300
 9026TIP3    H148493   0.153   3.356  12.204 -1.9745  0.4918 -1.2972
 9026TIP3    H248494   0.105   3.480  12.277 -0.1949  0.2734  0.3632
 9027TIP3   OH248495   5.650   2.840   1.948 -0.0438  0.7614  0.5338
 9027TIP3    H148496   5.673   2.752   1.977 -2.2027 -0.0530 -0.0511
 9027TIP3    H248497   5.670   2.841   1.854 -1.4263  0.3678  0.2236
 9028TIP3   OH248498   1.997   3.436   4.603 -0.0693 -0.5323  0.0208
 9028TIP3    H148499   1.983   3.471   4.515  0.0040  1.5681  0.7793
 9028TIP3    H248500   1.924   3.471   4.654 -0.4310 -2.1960  0.6997
 9029TIP3   OH248501   2.263   5.884  16.171  0.2794  0.0614  0.3971
 9029TIP3    H148502   2.327   5.945  16.134  0.0538  1.1774  1.7494
 9029TIP3    H248503   2.189   5.887  16.110  0.3605  0.9969  0.3323
 9030TIP3   OH248504   1.636   3.103   4.216  0.2162  0.0548  0.5151
 9030TIP3    H148505   1.689   3.028   4.190  0.4688  0.5005 -0.2888
 9030TIP3    H248506   1.619   3.151   4.134 -2.6075 -0.7955  0.5006
 9031TIP3   OH248507   1.767   2.825   4.198 -0.5929  0.2193  0.2571
 9031TIP3    H148508   1.691   2.791   4.152 -0.7329  0.3007  0.4287
 9031TIP3    H248509   1.842   2.790   4.149 -0.7136  1.6307 -1.0266
 9032TIP3   OH248510   2.279   2.228  13.184 -0.1781 -0.1945 -0.1513
 9032TIP3    H148511   2.352   2.290  13.182  0.1786 -0.6223 -0.5663
 9032TIP3    H248512   2.266   2.208  13.277 -0.4413  0.6651  0.0009
 9033TIP3   OH248513   0.484   2.850  15.949 -0.0151  0.5718  0.2060
 9033TIP3    H148514   0.530   2.767  15.942  2.0290  1.6609 -0.0291
 9033TIP3    H248515   0.475   2.881  15.858 -1.1955  0.4227  0.2472
 9034TIP3   OH248516   1.834   0.137   3.994 -0.6122 -0.5002  0.3478
 9034TIP3    H148517   1.747   0.099   3.979 -1.1209  0.5009  0.6963
 9034TIP3    H248518   1.852   0.190   3.917  0.2403 -1.6576 -0.2849
 9035TIP3   OH248519   6.132   5.130   0.501 -1.2482 -0.1885  0.0040
 9035TIP3    H148520   6.081   5.128   0.421  0.2520  0.9062 -1.0335
 9035TIP3    H248521   6.195   5.058   0.492 -1.2209 -0.2103  0.3252
 9036TIP3   OH248522   4.875   0.184  13.287  0.1381  0.5498  0.5749
 9036TIP3    H148523   4.838   0.134  13.361  1.0979  0.1424  0.7880
 9036TIP3    H248524   4.866   0.275  13.314  2.4529  0.3945  2.2343
 9037TIP3   OH248525   4.359   5.108  11.825  0.4888  0.4461  0.5609
 9037TIP3    H148526   4.314   5.030  11.858  1.4528  0.0674  0.9963
 9037TIP3    H248527   4.409   5.077  11.750 -0.8705  1.1034 -0.6543
 9038TIP3   OH248528   1.764   4.076  11.983 -0.3385  0.4014 -0.3238
 9038TIP3    H148529   1.808   4.117  12.058 -0.3924  1.7351 -0.9948
 9038TIP3    H248530   1.817   3.998  11.965  0.8439  1.1437 -0.1477
 9039TIP3   OH248531   6.657   0.576  14.943  0.7489 -0.1969  0.1475
 9039TIP3    H148532   6.697   0.519  14.876  0.5910 -0.5127  0.3195
 9039TIP3    H248533   6.613   0.515  15.003 -0.7004  0.1741 -0.4885
 9040TIP3   OH248534   6.668   3.954  12.962  0.4844 -0.4506  0.9983
 9040TIP3    H148535   6.761   3.961  12.986  0.6935  0.5378 -0.0241
 9040TIP3    H248536   6.621   3.987  13.039  1.0389  0.3883  0.9833
 9041TIP3   OH248537   1.630   1.594  11.591  0.3226 -0.0027 -0.7060
 9041TIP3    H148538   1.647   1.512  11.545 -2.1619 -1.3265  0.5535
 9041TIP3    H248539   1.552   1.577  11.644  1.2075  2.3789  1.6161
 9042TIP3   OH248540   2.733   3.175  15.612  0.4687  0.3963  0.0194
 9042TIP3    H148541   2.719   3.115  15.539 -2.9150  0.8901  0.1048
 9042TIP3    H248542   2.758   3.258  15.571 -0.3958  0.3937 -0.5431
 9043TIP3   OH248543   6.653   5.561   0.041  0.2642  0.5707 -0.1081
 9043TIP3    H148544   6.638   5.582  -0.051 -1.2853  1.8233  0.3738
 9043TIP3    H248545   6.732   5.610   0.064 -1.2302  3.1235  0.0258
 9044TIP3   OH248546   0.870   6.130   0.019 -0.6028  0.2969  0.5440
 9044TIP3    H148547   0.929   6.158  -0.051 -0.4733 -0.2167  0.4458
 9044TIP3    H248548   0.907   6.048   0.051 -1.2691 -0.0411  0.4745
 9045TIP3   OH248549   2.067   4.253   3.151  0.3764 -0.1494 -0.1248
 9045TIP3    H148550   2.005   4.265   3.223 -0.7210 -1.1541 -0.8625
 9045TIP3    H248551   2.029   4.302   3.078  1.4123  0.7521 -0.0897
 9046TIP3   OH248552   2.146   6.619   2.327  0.4176 -0.3363  0.4450
 9046TIP3    H148553   2.208   6.549   2.348  0.4323 -0.4618 -0.0116
 9046TIP3    H248554   2.194   6.700   2.349  0.2116 -0.4784  1.4607
 9047TIP3   OH248555   4.018   5.886  15.341  0.2776 -0.3829 -0.5576
 9047TIP3    H148556   4.034   5.914  15.432  2.0745 -1.8909 -0.3273
 9047TIP3    H248557   3.942   5.828  15.347 -0.1047  0.1517 -0.1536
 9048TIP3   OH248558   4.364   4.860   1.207 -0.0779 -0.4704 -0.2407
 9048TIP3    H148559   4.413   4.935   1.174  0.0963 -0.3270  0.3418
 9048TIP3    H248560   4.289   4.897   1.252  1.2271 -0.4927  2.1270
 9049TIP3   OH248561   0.659   6.130  12.358 -0.4090 -0.1470 -0.6754
 9049TIP3    H148562   0.694   6.149  12.270 -1.4682 -1.1408 -1.3349
 9049TIP3    H248563   0.648   6.035  12.359  0.3950 -0.2519  0.8714
 9050TIP3   OH248564   4.030   6.129  13.880  0.3059 -0.4087  0.0535
 9050TIP3    H148565   4.116   6.087  13.889  1.2034  1.5989  1.6883
 9050TIP3    H248566   3.987   6.114  13.964 -0.4216 -0.2837 -0.2922
 9051TIP3   OH248567   3.160   5.900  14.413  0.3919  0.1907  0.2278
 9051TIP3    H148568   3.224   5.840  14.452  0.3657  0.0052 -0.0119
 9051TIP3    H248569   3.151   5.870  14.323 -0.8019 -0.4513  0.5345
 9052TIP3   OH248570   5.303   2.668   4.980  0.5493 -0.0943  0.2110
 9052TIP3    H148571   5.339   2.618   5.054 -0.3297  0.8816  1.3364
 9052TIP3    H248572   5.364   2.742   4.970  0.9034 -0.4521 -0.3384
 9053TIP3   OH248573   0.722   2.139  12.128  0.4886  0.8560 -0.1123
 9053TIP3    H148574   0.748   2.087  12.204 -0.9098 -0.9226 -0.7720
 9053TIP3    H248575   0.631   2.115  12.112  0.7808  1.0177 -2.4451
 9054TIP3   OH248576   0.973   6.141  11.017 -0.2164  0.7803 -0.6979
 9054TIP3    H148577   0.899   6.100  10.973 -0.7561  0.4418  0.4808
 9054TIP3    H248578   1.007   6.203  10.953 -0.6630 -0.0236 -1.7624
 9055TIP3   OH248579   6.345   3.263  14.961 -0.1097 -0.4557  0.3921
 9055TIP3    H148580   6.324   3.191  15.021  0.6842 -1.1526 -0.1476
 9055TIP3    H248581   6.439   3.256  14.948 -0.1078  0.3787 -0.0635
 9056TIP3   OH248582   6.470   1.864  16.693 -0.1230 -0.3223  0.1717
 9056TIP3    H148583   6.384   1.848  16.731  0.1089 -1.7233  0.1693
 9056TIP3    H248584   6.458   1.853  16.599  0.2172 -1.4590  0.2397
 9057TIP3   OH248585   2.050   6.267   4.681 -0.4699 -0.2771 -0.0489
 9057TIP3    H148586   1.970   6.237   4.723 -0.9783 -1.3536 -1.6894
 9057TIP3    H248587   2.029   6.354   4.648 -0.7862 -0.3394 -0.0135
 9058TIP3   OH248588   4.938   0.847   4.615  0.7289 -0.1090  0.0656
 9058TIP3    H148589   5.016   0.796   4.637  1.7354  0.7082 -1.4098
 9058TIP3    H248590   4.902   0.803   4.538  0.8906  0.6747 -0.4656
 9059TIP3   OH248591   2.729   2.184  13.601  0.4150  0.0178 -0.0244
 9059TIP3    H148592   2.738   2.105  13.547 -0.8403 -0.7028  0.7439
 9059TIP3    H248593   2.671   2.157  13.672 -0.4345  1.7644  0.0090
 9060TIP3   OH248594   0.231   3.672   0.780  0.2999 -0.0857 -0.3511
 9060TIP3    H148595   0.186   3.718   0.709 -0.4408 -0.6168 -0.2437
 9060TIP3    H248596   0.281   3.604   0.736  1.1407  0.6061 -0.4845
 9061TIP3   OH248597   5.004   0.128   5.251 -0.0729 -0.0417 -0.8409
 9061TIP3    H148598   4.925   0.178   5.272 -0.5532 -0.6928 -1.0472
 9061TIP3    H248599   5.026   0.084   5.333  1.4277  1.8994 -0.1243
 9062TIP3   OH248600   6.256   3.108  16.268  0.1271  0.4298  0.1044
 9062TIP3    H148601   6.321   3.091  16.200  1.3695  2.1341  0.8110
 9062TIP3    H248602   6.242   3.022  16.309  0.2235 -0.3871 -1.5261
 9063TIP3   OH248603   4.670   0.092  11.210  0.0461 -0.1838  0.1596
 9063TIP3    H148604   4.736   0.141  11.161 -0.1313  1.3395  1.3571
 9063TIP3    H248605   4.618   0.048  11.143  2.5612 -1.9078 -0.8074
 9064TIP3   OH248606   2.679   1.263  12.776  0.0371 -0.1795  0.0981
 9064TIP3    H148607   2.608   1.200  12.775  2.4212 -3.1418 -1.9964
 9064TIP3    H248608   2.743   1.227  12.837  0.5583  1.4732  0.6026
 9065TIP3   OH248609   2.121   6.166   4.447 -0.1586  0.7566  0.6723
 9065TIP3    H148610   2.117   6.180   4.542 -0.3629  0.2088  0.7449
 9065TIP3    H248611   2.030   6.179   4.418 -0.2065  0.3269  0.6337
 9066TIP3   OH248612   0.980   5.151   4.609  0.1695  0.3121 -0.2005
 9066TIP3    H148613   1.067   5.142   4.569  0.1130  2.2458 -0.8653
 9066TIP3    H248614   0.920   5.117   4.543  0.4106 -1.9695  0.6486
 9067TIP3   OH248615   0.923   1.155  13.865  0.2499 -0.1903  0.7811
 9067TIP3    H148616   0.840   1.107  13.858  0.1214  0.2478 -1.2260
 9067TIP3    H248617   0.899   1.247  13.856  1.0577 -0.1433 -1.6023
 9068TIP3   OH248618   5.474   0.539   0.692 -0.7713  0.2571  0.1143
 9068TIP3    H148619   5.427   0.503   0.768 -1.6978 -2.0414 -1.4305
 9068TIP3    H248620   5.453   0.632   0.693 -0.8206  0.2840  2.6039
 9069TIP3   OH248621   5.435   1.416   2.860 -0.5701 -0.5449 -0.4417
 9069TIP3    H148622   5.514   1.362   2.860 -0.1170  0.1088  0.3469
 9069TIP3    H248623   5.372   1.366   2.913 -0.7112 -1.0785 -1.0932
 9070TIP3   OH248624   5.373   5.312   4.318 -0.3015  0.6593 -0.2674
 9070TIP3    H148625   5.408   5.339   4.403  0.6281  0.0234 -0.4332
 9070TIP3    H248626   5.303   5.251   4.340  0.3937 -0.0454  0.0554
 9071TIP3   OH248627   0.094   1.432  11.112  0.4288  0.0826 -0.3393
 9071TIP3    H148628   0.081   1.501  11.047 -0.5671  0.9621  0.7609
 9071TIP3    H248629   0.065   1.352  11.068 -0.0275  0.6263 -1.0469
 9072TIP3   OH248630   4.413   2.107  15.517  0.7731 -0.0832 -0.6675
 9072TIP3    H148631   4.377   2.133  15.432 -0.1279 -1.7090 -0.8319
 9072TIP3    H248632   4.457   2.024  15.499  0.5721 -0.4429  0.4561
 9073TIP3   OH248633   4.907   2.015  13.103  0.7228 -1.1855 -0.7474
 9073TIP3    H148634   4.859   2.035  13.023 -0.9003 -0.2477  0.3877
 9073TIP3    H248635   4.925   2.101  13.142 -5.4260 -1.1989  3.7121
 9074TIP3   OH248636   4.803   2.496   3.137  0.4723  0.1680  0.4614
 9074TIP3    H148637   4.788   2.563   3.203 -0.1529  0.5518 -0.0606
 9074TIP3    H248638   4.754   2.525   3.061  1.8382  0.1603 -0.4670
 9075TIP3   OH248639   6.244   5.795   3.387  0.2702  0.1970 -0.2312
 9075TIP3    H148640   6.253   5.717   3.442  1.9242  0.3843 -0.1789
 9075TIP3    H248641   6.192   5.765   3.311  3.0025 -1.7203 -1.5175
 9076TIP3   OH248642   2.227   2.577  13.797  0.3393  0.0143  0.0315
 9076TIP3    H148643   2.194   2.523  13.869  0.3089 -1.1781 -0.8425
 9076TIP3    H248644   2.276   2.647  13.840  0.3647 -0.7023  1.2136
 9077TIP3   OH248645   1.764   5.848   2.798  0.3832 -0.2420 -0.3881
 9077TIP3    H148646   1.852   5.887   2.806 -0.8123  2.5170  0.7662
 9077TIP3    H248647   1.757   5.822   2.707  2.4904 -0.8449 -0.4337
 9078TIP3   OH248648   0.109   2.374  15.750 -0.3124  0.3880 -0.0717
 9078TIP3    H148649   0.174   2.384  15.680  0.0321 -0.4310  0.1102
 9078TIP3    H248650   0.137   2.436  15.817  1.4824 -1.2958  0.8449
 9079TIP3   OH248651   3.495   4.624   3.455  0.4385  0.5753  0.3354
 9079TIP3    H148652   3.567   4.656   3.400  0.1720  0.2313 -0.2233
 9079TIP3    H248653   3.416   4.658   3.412  0.0394 -1.9522 -1.1217
 9080TIP3   OH248654   5.969   5.924  11.191 -0.5388  0.2227 -0.3776
 9080TIP3    H148655   6.032   5.908  11.120  0.1810  1.0578  0.0464
 9080TIP3    H248656   6.010   5.993  11.244 -0.9805 -0.4895  0.9400
 9081TIP3   OH248657   1.496   0.256  15.533  0.4313 -1.1182  0.1816
 9081TIP3    H148658   1.508   0.195  15.605  0.4645 -0.3733  0.8136
 9081TIP3    H248659   1.507   0.343  15.572 -1.0327 -0.6422 -0.4053
 9082TIP3   OH248660   4.225   2.909  14.270  0.0533  0.5136 -0.4038
 9082TIP3    H148661   4.175   2.861  14.335  1.3424 -0.1483  0.1360
 9082TIP3    H248662   4.202   2.868  14.186 -1.1570  0.9813 -0.3153
 9083TIP3   OH248663   2.770   0.544  11.536  0.1709 -0.2909  0.1444
 9083TIP3    H148664   2.729   0.563  11.451  0.8131  0.0589 -0.0881
 9083TIP3    H248665   2.801   0.454  11.528 -2.4754 -1.4014  1.0911
 9084TIP3   OH248666   0.717   5.445   2.858 -0.1841 -0.2777  0.1915
 9084TIP3    H148667   0.719   5.362   2.906  1.7267 -0.6148 -0.3802
 9084TIP3    H248668   0.794   5.492   2.888  0.1761  0.1832 -1.3507
 9085TIP3   OH248669   6.615   6.236   2.176 -0.3236  0.0454 -0.0898
 9085TIP3    H148670   6.528   6.267   2.202  0.3734  2.0621  0.0049
 9085TIP3    H248671   6.605   6.210   2.085 -0.9706  0.5805 -0.1824
 9086TIP3   OH248672   3.199   3.241   2.350  0.2586  0.3126 -0.1554
 9086TIP3    H148673   3.203   3.181   2.424  0.8347  0.4748 -0.0497
 9086TIP3    H248674   3.221   3.187   2.274 -2.3139 -0.3317 -0.5278
 9087TIP3   OH248675   1.760   6.049   0.601 -0.4237  0.3721 -0.4124
 9087TIP3    H148676   1.813   6.118   0.561  2.1599 -0.6242  1.0689
 9087TIP3    H248677   1.750   5.983   0.532  1.1795  0.1303 -0.4471
 9088TIP3   OH248678   2.113   2.880  16.558  0.0785  0.1193  0.1867
 9088TIP3    H148679   2.095   2.808  16.497 -1.0197  1.2340 -0.8720
 9088TIP3    H248680   2.204   2.903  16.540  0.8762 -1.7884  1.4512
 9089TIP3   OH248681   4.926   5.498  12.903  0.0856  0.0154  0.0961
 9089TIP3    H148682   5.017   5.527  12.893 -0.3273  1.2105 -0.4427
 9089TIP3    H248683   4.915   5.484  12.997  0.2980  1.7566  0.4127
 9090TIP3   OH248684   5.190   0.328  14.125 -0.6718  0.0716 -0.2678
 9090TIP3    H148685   5.201   0.354  14.034 -0.3975 -0.5392 -0.4129
 9090TIP3    H248686   5.265   0.271  14.143  1.1726  2.7749  1.3341
 9091TIP3   OH248687   5.800   0.851  15.751  0.0582 -0.2075  0.0415
 9091TIP3    H148688   5.734   0.916  15.777  0.8175  0.4067  0.4984
 9091TIP3    H248689   5.828   0.811  15.833 -0.0766 -0.7997 -0.1982
 9092TIP3   OH248690   3.209   0.791  15.531  0.5422 -0.3398  0.2977
 9092TIP3    H148691   3.137   0.742  15.491  2.2997 -3.1450  0.2787
 9092TIP3    H248692   3.229   0.860  15.469 -2.3223  0.7802  0.4933
 9093TIP3   OH248693   4.743   5.819  15.102 -0.3316 -0.1386 -1.0291
 9093TIP3    H148694   4.727   5.753  15.170  2.6349 -2.1235 -2.0662
 9093TIP3    H248695   4.776   5.895  15.149 -1.3617 -0.2714 -0.0332
 9094TIP3   OH248696   4.729   4.497  12.031  0.2783  0.2125 -0.4668
 9094TIP3    H148697   4.702   4.425  12.088 -1.6746 -0.3910 -2.0435
 9094TIP3    H248698   4.817   4.521  12.062 -0.5088 -0.3247  2.4771
 9095TIP3   OH248699   0.618   5.592  16.739 -0.1553 -0.0150 -0.0549
 9095TIP3    H148700   0.606   5.613  16.647 -0.6515  0.9666  0.2172
 9095TIP3    H248701   0.549   5.640  16.784  0.7626  0.4306  0.9291
 9096TIP3   OH248702   6.128   2.912   0.776 -0.5232 -0.0332  0.0688
 9096TIP3    H148703   6.214   2.909   0.818 -0.2851 -0.5439 -0.4456
 9096TIP3    H248704   6.066   2.895   0.847 -0.0735 -1.8184  0.0637
 9097TIP3   OH248705   5.367   4.775  14.598  0.3689  0.1740  0.4630
 9097TIP3    H148706   5.353   4.836  14.526  1.7588 -0.2590 -0.2104
 9097TIP3    H248707   5.396   4.830  14.671 -0.5138  0.5550  0.5302
 9098TIP3   OH248708   0.173   2.248  17.140  0.6086  0.1571 -0.3309
 9098TIP3    H148709   0.157   2.199  17.059  0.7781 -0.2343 -0.1291
 9098TIP3    H248710   0.268   2.261  17.142  0.4039  2.2242 -1.3809
 9099TIP3   OH248711   3.482   3.522   3.168 -0.0006 -0.0034  0.1936
 9099TIP3    H148712   3.393   3.488   3.166 -0.6599  1.6988 -0.4880
 9099TIP3    H248713   3.496   3.559   3.081  1.7002 -0.9893 -0.0005
 9100TIP3   OH248714   4.895   2.576  13.880  0.3492 -0.4435 -0.6418
 9100TIP3    H148715   4.885   2.547  13.790  0.6935 -2.5805 -0.0458
 9100TIP3    H248716   4.814   2.549  13.923  0.9501 -1.1347  0.0819
 9101TIP3   OH248717   6.612   0.181   0.571  0.0885 -0.0335  0.0786
 9101TIP3    H148718   6.673   0.221   0.632  0.4224  1.0141 -0.9056
 9101TIP3    H248719   6.562   0.118   0.624 -1.5821  2.7820  2.1055
 9102TIP3   OH248720   4.140   0.783  17.093  0.3515  0.0624  0.4772
 9102TIP3    H148721   4.206   0.781  17.025  1.5060 -0.2867  1.5766
 9102TIP3    H248722   4.135   0.693  17.126 -0.7571  0.0557  0.3493
 9103TIP3   OH248723   0.765   5.077   4.449  0.1825 -0.1635  0.3630
 9103TIP3    H148724   0.750   5.140   4.379  0.4778 -0.1926  0.2720
 9103TIP3    H248725   0.680   5.068   4.493  0.5536  1.7667  1.6117
 9104TIP3   OH248726   2.362   5.708   0.154 -0.1287 -0.7150 -0.5024
 9104TIP3    H148727   2.396   5.628   0.195  1.3259 -0.1151 -0.4546
 9104TIP3    H248728   2.432   5.772   0.167 -0.2452 -0.0897 -2.5964
 9105TIP3   OH248729   4.658   0.045  16.436  0.5415  0.2863  0.0843
 9105TIP3    H148730   4.646   0.139  16.427 -1.0818  0.2159  1.1338
 9105TIP3    H248731   4.669   0.013  16.346 -2.3856  1.0650 -0.6397
 9106TIP3   OH248732   6.409   2.511  15.277  0.5831  0.2195 -0.3351
 9106TIP3    H148733   6.438   2.526  15.187 -1.2481 -0.6336 -1.0974
 9106TIP3    H248734   6.314   2.513  15.273  0.4649  0.6494  1.6882
 9107TIP3   OH248735   3.291   3.670   5.934 -0.4156 -0.1423  0.3065
 9107TIP3    H148736   3.215   3.674   5.992  0.3315  0.5770  1.2654
 9107TIP3    H248737   3.256   3.637   5.852 -1.5892 -0.7887  1.0279
 9108TIP3   OH248738   3.906   1.199  11.250 -0.2580  0.0610 -0.2220
 9108TIP3    H148739   3.926   1.127  11.191  1.6393 -1.4304  2.0642
 9108TIP3    H248740   3.981   1.258  11.242 -0.0434 -0.0957  0.5836
 9109TIP3   OH248741   1.002   4.217   6.199 -0.2402  0.3154  0.1743
 9109TIP3    H148742   1.037   4.199   6.286  1.1843  1.5559 -0.0940
 9109TIP3    H248743   1.011   4.135   6.151  0.3494  0.0306  0.7631
 9110TIP3   OH248744   1.175   3.160  15.996 -0.3284 -0.0305  0.4324
 9110TIP3    H148745   1.111   3.113  15.943 -1.4081  1.3584  0.4557
 9110TIP3    H248746   1.211   3.093  16.054 -0.1260 -1.2926 -1.0798
 9111TIP3   OH248747   3.319   4.273  15.524 -0.2665  0.3985 -0.1453
 9111TIP3    H148748   3.411   4.283  15.503 -0.3581  1.5492 -0.0441
 9111TIP3    H248749   3.303   4.179  15.518  1.2203  0.0329  1.2106
 9112TIP3   OH248750   6.478   0.806   0.500 -0.3237 -0.4118  0.5293
 9112TIP3    H148751   6.391   0.792   0.538 -0.7592 -1.3994 -0.7438
 9112TIP3    H248752   6.531   0.842   0.572 -2.0474  1.2587  1.0438
 9113TIP3   OH248753   2.069   0.519  15.499 -0.0923 -0.0594 -0.4277
 9113TIP3    H148754   2.160   0.497  15.518 -0.0128 -0.1787 -0.9159
 9113TIP3    H248755   2.020   0.440  15.521 -0.4796  0.8956  2.5411
 9114TIP3   OH248756   2.342   2.524  12.781  0.3370  0.5592 -0.2769
 9114TIP3    H148757   2.335   2.488  12.693 -3.2207  2.4389 -0.9764
 9114TIP3    H248758   2.364   2.616  12.767 -0.2718  0.8797  0.7710
 9115TIP3   OH248759   5.239   1.789   6.188  0.3259  0.1173  0.7529
 9115TIP3    H148760   5.195   1.765   6.269 -1.2576 -0.8399 -0.3132
 9115TIP3    H248761   5.296   1.862   6.211 -0.8100  0.4982  2.5247
 9116TIP3   OH248762   2.596   5.515   1.834 -0.8376  0.1267 -0.5227
 9116TIP3    H148763   2.608   5.575   1.907  2.5911 -2.1643  1.0235
 9116TIP3    H248764   2.501   5.501   1.829 -1.3306  1.9448  2.0852
 9117TIP3   OH248765   6.638   5.847   0.268  0.3294 -0.0441 -0.2371
 9117TIP3    H148766   6.710   5.801   0.224 -1.4283 -0.4986 -2.9040
 9117TIP3    H248767   6.567   5.782   0.271 -1.4767  1.7166 -2.0398
 9118TIP3   OH248768   6.098   5.210  15.671 -0.0219 -0.4320  0.0454
 9118TIP3    H148769   6.168   5.223  15.608 -0.6705 -2.6351 -1.2386
 9118TIP3    H248770   6.019   5.240  15.626 -0.3294 -0.9058  0.2635
 9119TIP3   OH248771   2.577   1.852   5.304 -0.0653 -0.4233  0.7321
 9119TIP3    H148772   2.498   1.891   5.268 -0.3963 -1.6247  0.0946
 9119TIP3    H248773   2.642   1.862   5.235 -0.2136 -1.1774  0.4769
 9120TIP3   OH248774   5.231   5.148   2.263 -0.2331 -0.3177  0.4983
 9120TIP3    H148775   5.216   5.231   2.218 -1.6447 -0.3072  0.9311
 9120TIP3    H248776   5.315   5.117   2.230 -0.4226  0.5290 -0.8268
 9121TIP3   OH248777   3.771   6.201   4.036 -0.1274  0.1176 -0.1652
 9121TIP3    H148778   3.809   6.223   3.951 -0.7293  1.9063 -0.0077
 9121TIP3    H248779   3.699   6.140   4.015 -0.0686  0.2906 -0.8983
 9122TIP3   OH248780   3.703   4.979   2.951 -0.2030  0.1298  0.1795
 9122TIP3    H148781   3.761   4.926   2.897  0.9091  0.7784  0.6981
 9122TIP3    H248782   3.663   5.041   2.890 -0.3779 -0.3312 -0.1839
 9123TIP3   OH248783   2.650   4.659  14.069  0.3267  0.0026 -0.0338
 9123TIP3    H148784   2.680   4.676  14.158  0.3352 -0.6265  0.0889
 9123TIP3    H248785   2.606   4.574  14.074 -0.6598  0.4808 -0.3992
 9124TIP3   OH248786   4.125   3.104   1.459  0.1526  0.2231 -0.1433
 9124TIP3    H148787   4.157   3.022   1.497 -0.4256  0.8437  1.8042
 9124TIP3    H248788   4.130   3.090   1.364  1.0957 -1.6415  0.1287
 9125TIP3   OH248789   1.306   4.847  14.432 -0.4068  0.2560  0.3075
 9125TIP3    H148790   1.294   4.910  14.361  0.4810 -1.8030 -1.8068
 9125TIP3    H248791   1.395   4.813  14.420 -1.2790 -2.3473  0.4558
 9126TIP3   OH248792   0.801   3.250   0.817  0.3154 -0.3439 -0.0118
 9126TIP3    H148793   0.750   3.245   0.737  0.1813 -2.8675  0.1406
 9126TIP3    H248794   0.840   3.163   0.826  0.7944  0.0406  2.3559
 9127TIP3   OH248795   1.032   1.967   0.639  0.1526  0.0029 -0.1749
 9127TIP3    H148796   1.050   2.041   0.582  0.4761  0.0365 -0.0328
 9127TIP3    H248797   0.938   1.951   0.629  0.3212 -0.4321 -1.2460
 9128TIP3   OH248798   6.004   0.806   5.011  0.5358  0.2278  0.0481
 9128TIP3    H148799   6.055   0.729   5.037 -1.5397 -0.6375  1.9126
 9128TIP3    H248800   5.925   0.802   5.065 -1.8889  1.0847 -3.1053
 9129TIP3   OH248801   3.256   2.424   4.382  0.1027 -0.0328 -0.3226
 9129TIP3    H148802   3.242   2.360   4.312 -0.2348 -0.2818 -0.0362
 9129TIP3    H248803   3.187   2.489   4.369 -0.3333 -0.3952  0.1244
 9130TIP3   OH248804   0.181   1.181  16.759 -0.1812  0.0028  0.2852
 9130TIP3    H148805   0.237   1.200  16.683 -1.9442  0.3678 -0.9827
 9130TIP3    H248806   0.185   1.261  16.811 -0.7372  0.6267 -0.5997
 9131TIP3   OH248807   4.971   1.686   2.124 -0.8828  0.2649  0.2140
 9131TIP3    H148808   4.934   1.604   2.092 -1.8513  0.2217  1.3633
 9131TIP3    H248809   4.896   1.735   2.156 -0.2387  1.3478  0.1149
 9132TIP3   OH248810   4.651   6.289   6.075  0.3007 -0.1551  0.0992
 9132TIP3    H148811   4.569   6.240   6.088 -0.3687  0.1435 -2.3636
 9132TIP3    H248812   4.639   6.331   5.990  2.7894  0.4117 -0.0244
 9133TIP3   OH248813   2.480   3.959  15.042  0.3062 -0.0876 -0.2483
 9133TIP3    H148814   2.407   3.946  15.102  0.0236 -2.0487 -0.9502
 9133TIP3    H248815   2.553   3.913  15.083  0.5705  0.0321 -0.5809
 9134TIP3   OH248816   5.541   2.155  11.246  0.1533 -0.3361 -0.0895
 9134TIP3    H148817   5.511   2.211  11.175 -2.1844 -0.5400  0.6547
 9134TIP3    H248818   5.635   2.174  11.253 -0.3640  2.9092 -0.3558
 9135TIP3   OH248819   4.727   1.650   2.912  0.7094 -0.2934 -0.0046
 9135TIP3    H148820   4.793   1.652   2.982  1.1389  1.1410 -0.4154
 9135TIP3    H248821   4.673   1.728   2.928 -0.1264 -0.7737 -0.4060
 9136TIP3   OH248822   3.768   0.402   6.131  0.5414  0.8754  0.3142
 9136TIP3    H148823   3.813   0.317   6.132 -0.5171  0.2963  0.5811
 9136TIP3    H248824   3.690   0.386   6.078  0.4074  1.7266  0.2507
 9137TIP3   OH248825   4.695   1.771   2.224 -0.0755  0.2756 -0.2682
 9137TIP3    H148826   4.661   1.822   2.151 -2.6535  2.3217  2.1350
 9137TIP3    H248827   4.714   1.836   2.292 -0.3999 -1.7104  1.8364
 9138TIP3   OH248828   5.883   1.387  10.914 -0.3485 -0.5359 -0.4045
 9138TIP3    H148829   5.927   1.458  10.960  1.5126 -2.1602  0.4484
 9138TIP3    H248830   5.795   1.386  10.952  0.3805 -0.2706  1.4116
 9139TIP3   OH248831   2.118   3.557   1.117  0.6530 -0.1800 -0.5173
 9139TIP3    H148832   2.146   3.520   1.033 -0.0591 -2.7898  0.2962
 9139TIP3    H248833   2.101   3.481   1.172  0.7330  1.4349  1.9069
 9140TIP3   OH248834   4.100   6.609  15.172 -0.2607 -0.4464 -0.3290
 9140TIP3    H148835   4.058   6.625  15.257  3.0237  0.7783  1.2434
 9140TIP3    H248836   4.155   6.685  15.157  1.5436 -1.9739 -2.0846
 9141TIP3   OH248837   5.054   0.663  13.153  0.8073  1.1133  0.1291
 9141TIP3    H148838   4.987   0.672  13.221  1.4521  0.1913  0.9284
 9141TIP3    H248839   5.017   0.601  13.090  1.3967 -0.4675  1.2683
 9142TIP3   OH248840   4.311   4.194  16.473 -0.2420 -0.1614  0.2085
 9142TIP3    H148841   4.229   4.226  16.510 -0.8555  1.1141 -2.0483
 9142TIP3    H248842   4.365   4.273  16.465  0.5105 -0.6900 -0.0164
 9143TIP3   OH248843   1.982   2.937   1.148  0.0865  0.3492  0.0080
 9143TIP3    H148844   1.910   2.947   1.085  0.0076 -0.1400  0.0151
 9143TIP3    H248845   1.943   2.958   1.233  0.3126  1.4856 -0.1548
 9144TIP3   OH248846   4.683   4.307   3.437 -0.5248  0.6660 -0.0085
 9144TIP3    H148847   4.674   4.378   3.374 -0.2153  1.0498  0.3730
 9144TIP3    H248848   4.613   4.321   3.501  0.1393  1.2135  0.6181
 9145TIP3   OH248849   3.643   6.511  13.796 -0.2604  0.5555 -0.1840
 9145TIP3    H148850   3.632   6.426  13.753  1.0845 -0.7539  1.9097
 9145TIP3    H248851   3.665   6.571  13.725  0.2170 -1.1397 -1.5265
 9146TIP3   OH248852   2.739   4.169  11.744  0.3604  0.5359  0.4507
 9146TIP3    H148853   2.657   4.202  11.782  0.4542  1.0289  0.2380
 9146TIP3    H248854   2.776   4.245  11.699  1.1207  0.4123  0.8628
 9147TIP3   OH248855   6.382   5.634  13.874 -0.1376  0.3945 -0.2632
 9147TIP3    H148856   6.410   5.651  13.965 -1.5979 -2.8294  0.9286
 9147TIP3    H248857   6.447   5.572  13.841 -0.4465  0.4107 -0.9090
 9148TIP3   OH248858   3.995   1.855  16.193  0.0774 -0.1407  0.1347
 9148TIP3    H148859   3.983   1.797  16.118 -1.4019  0.3426 -0.0437
 9148TIP3    H248860   3.991   1.797  16.269 -0.8004 -0.3507 -0.0642
 9149TIP3   OH248861   2.887   4.681  15.254  0.2090  0.3459  0.4202
 9149TIP3    H148862   2.815   4.622  15.234  1.4689 -0.7706 -1.1060
 9149TIP3    H248863   2.873   4.707  15.345 -1.1738 -1.1654  0.6747
 9150TIP3   OH248864   3.602   1.340  16.495 -0.2811  0.4000  0.1868
 9150TIP3    H148865   3.528   1.344  16.554 -0.2165  0.3497  0.2716
 9150TIP3    H248866   3.613   1.246  16.476  0.7696  0.2293  1.4635
 9151TIP3   OH248867   5.944   5.566   1.460  0.1285 -0.5211 -0.0365
 9151TIP3    H148868   5.926   5.474   1.443 -1.0585 -0.1399 -1.0552
 9151TIP3    H248869   5.857   5.606   1.465  0.6317  0.5936  0.0010
 9152TIP3   OH248870   4.432   2.729  16.872  0.1705 -0.1831 -0.2281
 9152TIP3    H148871   4.482   2.775  16.940 -0.2377 -1.1485  0.7666
 9152TIP3    H248872   4.395   2.798  16.818  0.8157  0.6016  0.3090
 9153TIP3   OH248873   6.371   1.991   2.772  0.0394 -0.1118  0.0407
 9153TIP3    H148874   6.390   2.023   2.860  0.4679  0.6754 -0.3287
 9153TIP3    H248875   6.450   1.942   2.747  0.8188  1.4480 -0.7057
 9154TIP3   OH248876   4.070   0.546   2.152  0.6367  0.4935 -0.4470
 9154TIP3    H148877   4.112   0.478   2.100  0.3122  1.3689 -1.9242
 9154TIP3    H248878   3.978   0.542   2.127  0.6452  1.5758 -0.7033
 9155TIP3   OH248879   1.744   3.589  13.889  0.7918  0.1351 -0.1159
 9155TIP3    H148880   1.652   3.576  13.914  1.1349 -1.1624  0.5408
 9155TIP3    H248881   1.763   3.516  13.830  1.4430  0.3535 -0.1842
 9156TIP3   OH248882   4.395   1.237   4.540 -0.8700 -0.2325 -0.4030
 9156TIP3    H148883   4.412   1.229   4.634 -0.1336  0.0654 -0.5048
 9156TIP3    H248884   4.474   1.278   4.505 -1.3443  0.1300 -1.0739
 9157TIP3   OH248885   3.417   1.303  13.245  0.1410  0.2999 -0.4121
 9157TIP3    H148886   3.393   1.212  13.264 -2.2107  0.7356 -0.9638
 9157TIP3    H248887   3.361   1.355  13.303  0.9571  1.4124 -0.6056
 9158TIP3   OH248888   6.690   4.513  16.007 -0.2131 -0.1069 -0.1087
 9158TIP3    H148889   6.742   4.493  16.085 -0.4573  0.1097  0.1091
 9158TIP3    H248890   6.623   4.575  16.037  0.0870  0.4808 -0.6247
 9159TIP3   OH248891   0.377   3.332   5.051  0.4985 -0.2703  0.2409
 9159TIP3    H148892   0.438   3.266   5.017  0.6377  0.3202 -0.6729
 9159TIP3    H248893   0.396   3.411   5.001  0.5233  0.5634  1.5053
 9160TIP3   OH248894   4.936   0.224  11.858  0.3028  0.0494  0.0079
 9160TIP3    H148895   4.857   0.175  11.885 -0.3711  1.0377 -0.1284
 9160TIP3    H248896   4.987   0.230  11.939  0.9299 -1.8030 -0.1984
 9161TIP3   OH248897   6.244   4.640   4.437 -0.6719  0.3768 -0.4993
 9161TIP3    H148898   6.241   4.544   4.433 -1.7100  0.2988  1.3760
 9161TIP3    H248899   6.176   4.664   4.499 -0.8631  2.3940 -1.4067
 9162TIP3   OH248900   1.707   2.787  15.999 -0.1349 -0.2572  0.7096
 9162TIP3    H148901   1.787   2.786  15.945 -0.6775 -1.4489 -0.1372
 9162TIP3    H248902   1.735   2.750  16.083  0.3225 -0.1711  0.6012
 9163TIP3   OH248903   1.476   5.008   2.704  0.3933 -0.5046 -0.5047
 9163TIP3    H148904   1.406   4.943   2.691 -0.6130  0.3082  0.6319
 9163TIP3    H248905   1.538   4.991   2.633 -0.3328 -2.0643 -0.8074
 9164TIP3   OH248906   5.429   6.800  12.505 -0.2862  0.3784 -0.4992
 9164TIP3    H148907   5.370   6.726  12.520  0.4427 -0.3581 -1.1475
 9164TIP3    H248908   5.517   6.762  12.507  0.1363  1.3299 -0.2718
 9165TIP3   OH248909   1.194   3.143   4.440 -0.0312 -0.7957 -0.0526
 9165TIP3    H148910   1.219   3.050   4.437 -0.0008 -0.8072  0.4838
 9165TIP3    H248911   1.245   3.183   4.369 -1.4459 -1.5017 -1.5155
 9166TIP3   OH248912   0.825   6.292  16.753 -0.1201 -0.3128  0.2648
 9166TIP3    H148913   0.792   6.205  16.776  0.1531 -0.7917 -1.0669
 9166TIP3    H248914   0.913   6.276  16.719 -0.5355  0.3076 -1.1746
 9167TIP3   OH248915   6.001   4.863  12.630  0.1465  0.2451  0.5452
 9167TIP3    H148916   6.062   4.937  12.631  0.2879  0.2077 -1.3448
 9167TIP3    H248917   6.032   4.808  12.558  0.1694 -1.8017  2.0525
 9168TIP3   OH248918   4.435   3.451  16.419 -0.7285 -0.5373 -0.0793
 9168TIP3    H148919   4.470   3.471  16.506 -0.4498 -1.8323  0.1252
 9168TIP3    H248920   4.340   3.445  16.433 -0.7598 -0.0007 -0.0291
 9169TIP3   OH248921   0.873   1.864  16.805 -0.1687  0.4382  0.1420
 9169TIP3    H148922   0.876   1.916  16.885 -0.4589  1.2406 -0.3612
 9169TIP3    H248923   0.958   1.879  16.763  1.1252 -2.1250  1.5862
 9170TIP3   OH248924   0.061   2.063  16.974  0.2233  0.2481  0.3967
 9170TIP3    H148925   0.022   2.068  16.886  1.3755  0.2591 -0.1246
 9170TIP3    H248926   0.126   1.994  16.968  0.6566  0.5865  1.1089
 9171TIP3   OH248927   0.071   6.610   3.747  0.1027 -0.1733  0.7651
 9171TIP3    H148928   0.037   6.525   3.720  1.1594 -0.8558  1.5076
 9171TIP3    H248929   0.007   6.673   3.714 -0.7527 -1.2547  0.2958
 9172TIP3   OH248930   3.088   1.517   5.297 -0.2318 -0.1966  0.0407
 9172TIP3    H148931   3.080   1.593   5.354 -1.2099 -1.0085  1.0219
 9172TIP3    H248932   2.998   1.490   5.280  0.0951 -2.0468  0.9815
 9173TIP3   OH248933   6.512   3.966  11.320  0.2962 -0.3943  0.2756
 9173TIP3    H148934   6.452   3.911  11.269 -2.2651  3.2629 -1.0964
 9173TIP3    H248935   6.493   3.944  11.412 -1.2140 -1.2301 -0.2060
 9174TIP3   OH248936   0.479   2.448  11.771  0.3596  0.5752 -0.3421
 9174TIP3    H148937   0.478   2.542  11.790  1.5090  0.3503  0.9835
 9174TIP3    H248938   0.531   2.440  11.691  1.0984  1.0096  0.0780
 9175TIP3   OH248939   4.157   3.334   1.240 -0.4949 -0.0553  0.3203
 9175TIP3    H148940   4.156   3.246   1.200 -1.0724  0.7714 -1.5874
 9175TIP3    H248941   4.223   3.382   1.190 -2.2595  1.4518 -0.6698
 9176TIP3   OH248942   5.407   2.882   3.876  0.4602 -0.3238  0.0409
 9176TIP3    H148943   5.480   2.867   3.936  2.1675  0.1142 -1.8341
 9176TIP3    H248944   5.346   2.811   3.895  1.9169 -1.4197  0.8515
 9177TIP3   OH248945   3.893   3.156   0.403  0.4881 -0.1731  0.2727
 9177TIP3    H148946   3.982   3.141   0.433  0.2510  1.7532  2.1009
 9177TIP3    H248947   3.882   3.251   0.404 -1.3208 -0.3188 -0.7522
 9178TIP3   OH248948   4.060   1.811  14.703 -1.0406 -0.1107 -0.3008
 9178TIP3    H148949   4.125   1.868  14.744  0.8222 -1.0324 -1.7879
 9178TIP3    H248950   3.984   1.867  14.691 -0.6486  0.9455  1.7503
 9179TIP3   OH248951   6.655   5.922   2.433 -0.1506 -0.0440 -0.3665
 9179TIP3    H148952   6.673   5.938   2.340 -0.7579 -1.3227 -0.7187
 9179TIP3    H248953   6.574   5.969   2.450 -0.6874 -0.8005 -0.8018
 9180TIP3   OH248954   2.272   3.562   1.737  0.2920  0.3080 -0.3261
 9180TIP3    H148955   2.208   3.607   1.791  0.6222  0.5086 -0.0963
 9180TIP3    H248956   2.330   3.518   1.799  0.0675 -0.3113 -0.5434
 9181TIP3   OH248957   2.887   0.671  13.076 -0.3304  0.6798  0.3941
 9181TIP3    H148958   2.870   0.741  13.013 -0.8890  0.7310  0.5904
 9181TIP3    H248959   2.895   0.592  13.022  1.5988  1.0637  0.0572
 9182TIP3   OH248960   0.409   3.665  15.655  0.0799 -0.2275  0.0494
 9182TIP3    H148961   0.488   3.700  15.695  0.4826  0.9407 -1.6482
 9182TIP3    H248962   0.344   3.735  15.661  0.5689  0.5529 -2.4352
 9183TIP3   OH248963   3.115   2.637  15.108 -0.2441  0.3303 -0.0682
 9183TIP3    H148964   3.079   2.642  15.196  0.9858  0.3545  0.4570
 9183TIP3    H248965   3.080   2.714  15.063  0.1056  1.0102  0.7943
 9184TIP3   OH248966   1.962   4.705  12.062  0.1787 -0.8472  0.8764
 9184TIP3    H148967   1.954   4.627  12.116  0.2383 -0.6055  1.2413
 9184TIP3    H248968   1.997   4.673  11.979  1.2231 -1.0818  1.3797
 9185TIP3   OH248969   1.096   3.824   2.187 -0.2582 -0.7245  0.3327
 9185TIP3    H148970   1.012   3.812   2.143 -1.1441 -1.7350  2.1988
 9185TIP3    H248971   1.103   3.749   2.245  2.1283 -0.8451 -0.0261
 9186TIP3   OH248972   2.781   5.684   6.379 -0.1325  0.5711  0.0186
 9186TIP3    H148973   2.809   5.599   6.344  1.6753  2.4717 -3.6748
 9186TIP3    H248974   2.689   5.691   6.353  0.1726  0.3743 -1.1960
 9187TIP3   OH248975   4.617   3.503  16.206  0.0888  1.0211  0.0504
 9187TIP3    H148976   4.549   3.494  16.272  1.2622 -3.4679  0.9174
 9187TIP3    H248977   4.570   3.510  16.123 -1.4088  0.5882  0.8434
 9188TIP3   OH248978   4.374   2.848   3.901 -0.0365 -0.5134  0.7701
 9188TIP3    H148979   4.340   2.807   3.822  1.0430 -1.0365  0.5594
 9188TIP3    H248980   4.331   2.801   3.973  0.1009 -1.0579  0.5050
 9189TIP3   OH248981   2.485   4.291  11.786  0.6801 -0.3528  0.1473
 9189TIP3    H148982   2.393   4.267  11.798  0.5536 -1.1419 -1.9454
 9189TIP3    H248983   2.482   4.382  11.757  0.5956 -0.2068  0.6143
 9190TIP3   OH248984   6.297   3.369  16.346 -0.5101  0.3199 -0.4248
 9190TIP3    H148985   6.291   3.278  16.318 -1.1721  0.6361 -1.3308
 9190TIP3    H248986   6.372   3.371  16.406  1.6881 -0.1730 -2.9684
 9191TIP3   OH248987   1.060   2.682   5.725 -0.5733 -0.6506  0.1717
 9191TIP3    H148988   1.119   2.740   5.773  0.3293 -1.0125 -0.4674
 9191TIP3    H248989   1.004   2.741   5.675 -0.5409 -0.3101  0.5271
 9192TIP3   OH248990   6.511   0.078  13.555 -0.3152 -0.3176  0.0492
 9192TIP3    H148991   6.436   0.102  13.609 -1.0511 -1.1376 -0.5581
 9192TIP3    H248992   6.553   0.161  13.534 -0.2096  0.0374  1.5785
 9193TIP3   OH248993   1.523   0.594  13.066 -0.0774  0.2515  0.0200
 9193TIP3    H148994   1.560   0.580  13.153  0.5965  0.1602 -0.2770
 9193TIP3    H248995   1.574   0.667  13.029  0.1689 -0.2234 -0.5953
 9194TIP3   OH248996   3.535   4.824  13.084 -0.2543 -0.0613  0.3704
 9194TIP3    H148997   3.518   4.891  13.151 -2.0333 -0.3448  0.2744
 9194TIP3    H248998   3.505   4.742  13.125  0.7482 -0.6060  0.0369
 9195TIP3   OH248999   6.342   6.534  16.257 -0.3588  0.0376  0.4846
 9195TIP3    H149000   6.371   6.523  16.166 -0.3898 -1.9042  0.6685
 9195TIP3    H249001   6.422   6.544  16.307 -0.2706 -0.1102  0.3744
 9196TIP3   OH249002   4.430   1.492  15.807 -0.1517  0.1607  0.4032
 9196TIP3    H149003   4.416   1.425  15.874  1.1622 -1.3993 -0.7946
 9196TIP3    H249004   4.365   1.559  15.827 -1.1591 -1.1964  2.0159
 9197TIP3   OH249005   4.736   3.939   1.371  0.1097 -0.1132  0.4286
 9197TIP3    H149006   4.694   3.954   1.287  2.4341  2.1748 -0.4470
 9197TIP3    H249007   4.721   3.846   1.389 -2.3729 -0.1576 -1.3496
 9198TIP3   OH249008   1.683   3.961   3.521  0.3082  0.1318  0.0688
 9198TIP3    H149009   1.639   3.910   3.589 -1.5236  2.4906  0.7853
 9198TIP3    H249010   1.760   3.998   3.564 -0.7571  1.4819  0.8532
 9199TIP3   OH249011   5.623   3.417   5.889  0.3524  0.3991 -0.0994
 9199TIP3    H149012   5.563   3.385   5.821 -0.0447  1.7380 -0.4189
 9199TIP3    H249013   5.578   3.398   5.972  0.9601 -1.4856 -0.1619
 9200TIP3   OH249014   5.594   3.263  16.297  0.1669 -0.5306 -0.4129
 9200TIP3    H149015   5.563   3.194  16.238 -0.4925  0.0188 -0.7204
 9200TIP3    H249016   5.514   3.305  16.329  0.5101 -0.8595  0.9439
 9201TIP3   OH249017   2.130   4.384  16.716 -0.2408 -0.4228  0.3878
 9201TIP3    H149018   2.068   4.364  16.787  0.5825 -1.4252  0.8529
 9201TIP3    H249019   2.151   4.298  16.679 -0.3505  0.0593 -0.8178
 9202TIP3   OH249020   3.858   1.010  10.307  0.3430  0.3379  0.3721
 9202TIP3    H149021   3.767   1.017  10.278  0.8431  0.7057 -1.1863
 9202TIP3    H249022   3.852   0.977  10.397 -1.3226  0.4363  0.3268
 9203TIP3   OH249023   3.063   5.743  15.740  0.2418 -0.2947  0.3264
 9203TIP3    H149024   2.972   5.738  15.768 -0.8485 -1.2299 -2.9976
 9203TIP3    H249025   3.100   5.658  15.768 -0.0690 -0.2092  1.0361
 9204TIP3   OH249026   3.626   1.719  16.147  0.0015  0.3206 -0.2668
 9204TIP3    H149027   3.659   1.650  16.204  0.3125  1.3478  0.8465
 9204TIP3    H249028   3.643   1.800  16.195  0.6756  1.2765 -2.0071
 9205TIP3   OH249029   3.831   5.432  14.528 -0.7638  0.2935  0.1274
 9205TIP3    H149030   3.894   5.468  14.465  0.0561  0.9257  1.2467
 9205TIP3    H249031   3.781   5.508  14.558  0.2769  0.4084  1.7437
 9206TIP3   OH249032   3.736   1.282   1.710  0.8700  0.5945  0.2362
 9206TIP3    H149033   3.811   1.303   1.766  1.0189  0.5700  0.0437
 9206TIP3    H249034   3.762   1.310   1.622  1.1201 -0.5048 -0.0476
 9207TIP3   OH249035   0.639   4.401   3.652  0.2658  0.2492 -0.1076
 9207TIP3    H149036   0.678   4.422   3.737 -0.3379  0.2827  0.1645
 9207TIP3    H249037   0.670   4.470   3.594  0.6824  0.2259  0.0819
 9208TIP3   OH249038   2.519   4.855  15.609 -0.0679  0.4113 -0.1196
 9208TIP3    H149039   2.503   4.861  15.703 -1.2792  3.2324 -0.4152
 9208TIP3    H249040   2.552   4.941  15.584  0.6915 -0.4241 -2.2256
 9209TIP3   OH249041   5.203   2.949   5.495 -0.5518  0.7196  0.0933
 9209TIP3    H149042   5.185   2.859   5.469  0.2634  0.8613 -1.0202
 9209TIP3    H249043   5.143   3.002   5.441  0.3106  0.9388 -0.6897
 9210TIP3   OH249044   4.937   1.102   2.200  0.5341  0.9881 -0.0365
 9210TIP3    H149045   5.024   1.102   2.158  0.4934 -0.7674 -0.2016
 9210TIP3    H249046   4.953   1.069   2.288 -0.1003 -0.7054 -0.5048
 9211TIP3   OH249047   1.343   4.639   1.189 -0.0588 -0.5857  0.2580
 9211TIP3    H149048   1.389   4.589   1.257 -1.6044 -1.8141  0.4404
 9211TIP3    H249049   1.414   4.677   1.136  1.1671 -1.1532  1.4269
 9212TIP3   OH249050   0.923   2.644  13.352  0.0091  0.3056 -0.5819
 9212TIP3    H149051   0.986   2.677  13.288  0.2227 -0.4307 -0.7684
 9212TIP3    H249052   0.877   2.721  13.384 -0.0829  0.6860 -1.6092
 9213TIP3   OH249053   4.715   2.091  15.721  0.7022  0.1121  0.0949
 9213TIP3    H149054   4.709   2.090  15.817 -0.5631 -0.8546  0.0361
 9213TIP3    H249055   4.657   2.162  15.694 -0.1609 -0.6005  0.0137
 9214TIP3   OH249056   5.442   6.562  16.855  0.3852 -0.1798 -0.5497
 9214TIP3    H149057   5.407   6.504  16.921  1.5073  2.0141  2.1823
 9214TIP3    H249058   5.412   6.525  16.772 -1.9256 -2.5428  1.1728
 9215TIP3   OH249059   4.602   5.709  11.630 -0.4783  0.1924  0.3495
 9215TIP3    H149060   4.562   5.691  11.545  0.4726  1.0765 -0.3095
 9215TIP3    H249061   4.668   5.776  11.612  2.2280 -2.1001  1.1541
 9216TIP3   OH249062   5.964   4.977  16.480  0.8289  0.8029 -0.5146
 9216TIP3    H149063   5.920   5.049  16.435 -1.2386  0.6996  1.1755
 9216TIP3    H249064   6.036   5.018  16.527  0.0205  1.7262 -0.0338
 9217TIP3   OH249065   2.398   0.780  15.902  0.2359 -0.4167 -0.1167
 9217TIP3    H149066   2.360   0.833  15.972 -2.6275 -2.4629  0.0790
 9217TIP3    H249067   2.400   0.837  15.826  0.2646  0.8745  0.8280
 9218TIP3   OH249068   6.624   2.194   1.968  0.2496 -0.3477 -0.0954
 9218TIP3    H149069   6.661   2.217   1.883 -0.8005 -0.5946 -0.6300
 9218TIP3    H249070   6.542   2.244   1.973  0.6761  0.2876  1.1197
 9219TIP3   OH249071   5.387   5.006  17.004 -0.2034  0.0182  0.3875
 9219TIP3    H149072   5.291   5.005  17.013 -0.2737 -0.1448 -0.3290
 9219TIP3    H249073   5.402   5.041  16.917  0.3725 -0.5668  0.2474
 9220TIP3   OH249074   6.242   5.028  15.029  0.6084  0.5056  0.2021
 9220TIP3    H149075   6.147   5.022  15.019  0.7951  0.7574 -2.2980
 9220TIP3    H249076   6.278   4.971  14.961  2.3220 -1.3228  2.4476
 9221TIP3   OH249077   1.182   6.509  12.256  0.0808 -0.0933  0.1463
 9221TIP3    H149078   1.090   6.494  12.275  0.2117 -0.3090  0.6142
 9221TIP3    H249079   1.182   6.558  12.174 -0.4620  0.1624  0.2954
 9222TIP3   OH249080   1.240   1.082   5.544  0.2236  0.0599 -0.2712
 9222TIP3    H149081   1.251   1.063   5.452 -2.0846 -0.5173 -0.4967
 9222TIP3    H249082   1.197   1.168   5.545  0.1225  0.0060  0.2570
 9223TIP3   OH249083   6.179   2.401  11.844 -0.1659 -0.4952  0.9765
 9223TIP3    H149084   6.239   2.358  11.783 -0.5177 -1.5744  1.3637
 9223TIP3    H249085   6.152   2.332  11.904 -2.6288 -0.3440  0.1762
 9224TIP3   OH249086   2.036   5.473  12.476  0.6458 -0.2157  0.2542
 9224TIP3    H149087   2.024   5.485  12.381  0.6233  0.2776  0.3171
 9224TIP3    H249088   2.059   5.559  12.508  1.5775 -0.5729  0.5716
 9225TIP3   OH249089   4.340   1.706  13.411 -0.3565 -0.5103 -0.1656
 9225TIP3    H149090   4.361   1.760  13.487 -0.0393 -0.9388  0.0575
 9225TIP3    H249091   4.245   1.713  13.401 -0.5986 -1.5414  1.1102
 9226TIP3   OH249092   2.894   3.540  14.178 -0.1818 -0.2513 -0.4136
 9226TIP3    H149093   2.831   3.610  14.198 -0.7766 -0.9423  0.2290
 9226TIP3    H249094   2.881   3.476  14.249  0.0749 -1.1876 -1.1953
 9227TIP3   OH249095   2.694   4.214   4.784  0.6962  0.0725 -0.0232
 9227TIP3    H149096   2.661   4.172   4.863 -1.2034 -2.1641 -1.8951
 9227TIP3    H249097   2.788   4.223   4.800  0.6064 -1.6963  1.8732
 9228TIP3   OH249098   0.439   4.416  13.192 -1.0870  0.3011 -0.1501
 9228TIP3    H149099   0.371   4.398  13.127 -1.2669 -1.9064  0.5732
 9228TIP3    H249100   0.422   4.354  13.263  1.8563 -0.5414 -0.0702
 9229TIP3   OH249101   1.866   3.928  16.174  0.0849 -0.3466 -0.5985
 9229TIP3    H149102   1.835   3.986  16.243  1.3445 -1.0554  0.6152
 9229TIP3    H249103   1.796   3.863  16.163 -0.0938 -0.2679  0.0647
 9230TIP3   OH249104   5.642   6.119  13.186  0.1820  0.3581 -0.5910
 9230TIP3    H149105   5.717   6.154  13.234 -0.1907 -1.0936  1.1697
 9230TIP3    H249106   5.681   6.078  13.109  1.0054  1.1730 -0.6313
 9231TIP3   OH249107   0.782   3.775   1.558  0.1638  0.5475  0.2892
 9231TIP3    H149108   0.813   3.809   1.474 -1.9385 -0.7130 -1.0623
 9231TIP3    H249109   0.835   3.821   1.623  1.7091  1.7167 -1.6922
 9232TIP3   OH249110   5.054   4.567  14.590  0.0727 -0.2006  0.0680
 9232TIP3    H149111   5.089   4.620  14.519  0.7355  0.1061  0.6185
 9232TIP3    H249112   5.079   4.477  14.569 -0.8137 -0.2837 -0.7215
 9233TIP3   OH249113   5.781   4.506  15.975 -0.3043  0.4057 -0.5435
 9233TIP3    H149114   5.797   4.594  16.009 -1.1958  0.0667  0.8341
 9233TIP3    H249115   5.694   4.484  16.008 -0.0826 -0.9938 -0.8669
 9234TIP3   OH249116   2.262   2.181  14.489  0.2944  0.5774  0.0937
 9234TIP3    H149117   2.301   2.094  14.497 -0.4446  0.2204 -0.0599
 9234TIP3    H249118   2.239   2.189  14.397 -1.3474  0.1522  0.4223
 9235TIP3   OH249119   3.181   5.100   0.717 -0.2991 -0.2521 -0.8964
 9235TIP3    H149120   3.234   5.042   0.772 -0.4372  0.3783 -0.0798
 9235TIP3    H249121   3.225   5.098   0.631 -1.0814 -2.6392 -1.3311
 9236TIP3   OH249122   5.615   6.272  12.123  0.1224  0.3158  0.3453
 9236TIP3    H149123   5.699   6.318  12.118 -0.9624  2.3740  0.1578
 9236TIP3    H249124   5.619   6.225  12.207  1.1417  1.0148  0.7117
 9237TIP3   OH249125   4.512   6.514  14.634 -0.1276  0.4207 -0.4253
 9237TIP3    H149126   4.569   6.437  14.629 -0.3747  0.2262 -0.2270
 9237TIP3    H249127   4.431   6.482  14.675  0.3525  1.1269  1.1466
 9238TIP3   OH249128   3.937   3.760   4.736 -0.2779 -0.2791  0.6450
 9238TIP3    H149129   3.966   3.671   4.717 -0.5023 -0.1539 -0.3739
 9238TIP3    H249130   4.017   3.806   4.762 -0.5000 -1.2860  3.3791
 9239TIP3   OH249131   1.652   4.855  15.138  0.1143 -0.0090 -0.2346
 9239TIP3    H149132   1.730   4.804  15.159 -1.1619 -2.8640 -1.8097
 9239TIP3    H249133   1.636   4.836  15.045 -1.5619  1.7805 -0.3674
 9240TIP3   OH249134   6.758   0.160   4.745  0.1002 -0.3891  0.3298
 9240TIP3    H149135   6.836   0.110   4.721 -0.3381 -1.1435  0.4428
 9240TIP3    H249136   6.709   0.102   4.803  0.1128  0.6039  1.3668
 9241TIP3   OH249137   3.378   5.503   3.528 -0.4707  0.2901  0.6275
 9241TIP3    H149138   3.357   5.588   3.565 -2.3248  1.3060 -2.4173
 9241TIP3    H249139   3.299   5.476   3.481  0.8166 -2.0411 -0.4186
 9242TIP3   OH249140   6.538   5.146   3.857 -0.6627  0.0381 -0.1887
 9242TIP3    H149141   6.523   5.091   3.934  1.7376 -0.5170 -0.0267
 9242TIP3    H249142   6.581   5.089   3.794  0.8713  1.3868 -0.4539
 9243TIP3   OH249143   5.013   5.567  12.104  0.1821 -0.0513  0.1748
 9243TIP3    H149144   5.004   5.558  12.199 -2.2897  1.5590  0.1881
 9243TIP3    H249145   5.051   5.484  12.076  0.9605 -0.5783  2.5569
 9244TIP3   OH249146   0.096   4.917  10.498  0.3341 -0.4003  0.4963
 9244TIP3    H149147   0.146   4.954  10.425 -0.3433 -1.8897 -0.7724
 9244TIP3    H249148   0.048   4.992  10.533  0.5924  0.3441 -0.6581
 9245TIP3   OH249149   2.256   5.721  12.102 -0.0241  0.1320  0.3912
 9245TIP3    H149150   2.330   5.763  12.146 -1.0474  2.7522 -0.1907
 9245TIP3    H249151   2.287   5.702  12.014 -0.3464  2.4580 -0.2878
 9246TIP3   OH249152   1.616   1.751   4.971  0.6311 -0.5217 -0.3320
 9246TIP3    H149153   1.654   1.672   5.011 -2.1860 -1.0145  1.6311
 9246TIP3    H249154   1.551   1.717   4.909 -1.3698  0.1748  1.3032
 9247TIP3   OH249155   6.334   3.759  15.379  0.8227 -0.2736  0.1936
 9247TIP3    H149156   6.390   3.707  15.437 -0.3101 -0.4171  1.1900
 9247TIP3    H249157   6.245   3.743  15.410  0.3030  0.7860 -0.6778
 9248TIP3   OH249158   6.211   0.296  16.200  0.3119  0.3257  0.4241
 9248TIP3    H149159   6.301   0.270  16.220  0.3862  0.9768  0.9900
 9248TIP3    H249160   6.158   0.254  16.268  0.1369 -0.3159 -0.0910
 9249TIP3   OH249161   0.413   3.303  12.660  0.2626 -0.0412 -0.2082
 9249TIP3    H149162   0.367   3.380  12.626 -0.8348 -0.7952 -0.4820
 9249TIP3    H249163   0.501   3.309  12.622  0.2098  1.0957 -0.1816
 9250TIP3   OH249164   5.990   0.525  14.797  0.0509  0.2085  0.3880
 9250TIP3    H149165   6.079   0.543  14.766  0.1363 -0.7136  0.0547
 9250TIP3    H249166   5.943   0.606  14.782  0.2865  0.0504 -1.4855
 9251TIP3   OH249167   4.651   0.110   4.247  0.5947 -0.0854  0.3518
 9251TIP3    H149168   4.726   0.151   4.204 -0.9256  1.8289 -0.6620
 9251TIP3    H249169   4.575   0.153   4.209 -1.0008 -0.8846  2.4091
 9252TIP3   OH249170   4.337   4.080  15.064  0.5880  0.0066  0.3722
 9252TIP3    H149171   4.332   4.036  14.980  0.1399  0.1137  0.3414
 9252TIP3    H249172   4.422   4.123  15.063  0.5221  0.1346 -0.0917
 9253TIP3   OH249173   5.353   0.008  13.814 -0.1422  0.0073 -0.1185
 9253TIP3    H149174   5.395   0.090  13.788  1.8305 -1.6203 -2.5539
 9253TIP3    H249175   5.425  -0.054  13.823 -1.7328 -2.0832 -0.9806
 9254TIP3   OH249176   6.179   2.132   4.973 -0.3548  0.5684  0.1978
 9254TIP3    H149177   6.095   2.177   4.964 -0.5041  0.1606 -0.4921
 9254TIP3    H249178   6.159   2.055   5.027 -0.4443  0.4369 -0.0198
 9255TIP3   OH249179   6.137   6.716  12.387  0.6038 -0.3252  0.0852
 9255TIP3    H149180   6.230   6.701  12.399  1.1637  1.1286 -1.9361
 9255TIP3    H249181   6.103   6.634  12.352  1.3916 -0.4422 -0.4314
 9256TIP3   OH249182   3.757   5.707  17.055 -0.2149  0.3187  0.1940
 9256TIP3    H149183   3.671   5.687  17.017 -0.0318  0.7026 -0.4405
 9256TIP3    H249184   3.743   5.700  17.149 -1.4167  2.0649  0.2059
 9257TIP3   OH249185   0.816   3.129  12.538  0.5227  0.0826  0.0367
 9257TIP3    H149186   0.801   3.224  12.531  0.4496  0.0606 -0.1293
 9257TIP3    H249187   0.751   3.099  12.601  0.8908  0.2211  0.4879
 9258TIP3   OH249188   0.557   2.229  11.145  0.1882  0.4229  0.2363
 9258TIP3    H149189   0.612   2.180  11.083  0.9589 -0.6718  1.7272
 9258TIP3    H249190   0.493   2.165  11.176  1.4286  0.1500  2.4711
 9259TIP3   OH249191   0.499   0.577  11.309 -0.0201  0.3980 -0.2449
 9259TIP3    H149192   0.560   0.505  11.294 -0.3002 -0.4227  2.1118
 9259TIP3    H249193   0.541   0.631  11.376 -0.9507  0.9760 -0.1005
 9260TIP3   OH249194   5.892   1.961   1.340 -0.2398  0.4701 -0.4720
 9260TIP3    H149195   5.877   1.872   1.373  1.3136  0.2269 -0.3184
 9260TIP3    H249196   5.950   1.948   1.265  1.6621  1.4421  0.7463
 9261TIP3   OH249197   6.379   4.131   5.244 -0.1469 -0.1074  0.3290
 9261TIP3    H149198   6.379   4.189   5.321  0.7911 -1.3041  1.2723
 9261TIP3    H249199   6.409   4.047   5.278 -2.8680 -1.5912 -0.7229
 9262TIP3   OH249200   6.178   6.216   0.846  0.0713 -0.4456 -0.0479
 9262TIP3    H149201   6.266   6.183   0.863  0.3170  1.1272  2.2118
 9262TIP3    H249202   6.185   6.262   0.762  1.5659  0.1501  0.3811
 9263TIP3   OH249203   0.819   0.653  13.121  0.7174  0.4842  0.1647
 9263TIP3    H149204   0.817   0.565  13.083 -0.2029  0.5495  0.0524
 9263TIP3    H249205   0.816   0.639  13.215 -1.5039  0.4244  0.1263
 9264TIP3   OH249206   1.341   1.658   1.025  0.8421 -0.2766 -0.3897
 9264TIP3    H149207   1.352   1.679   0.932  0.4128 -1.3617 -0.7058
 9264TIP3    H249208   1.323   1.564   1.026 -1.0811  0.0523  0.6425
 9265TIP3   OH249209   6.689   5.816   2.799  0.0187 -0.0341 -0.1298
 9265TIP3    H149210   6.659   5.736   2.842  0.3199  0.7840  1.7057
 9265TIP3    H249211   6.618   5.838   2.738  0.1006 -1.8570 -0.9475
 9266TIP3   OH249212   1.299   1.532  14.750 -0.1434  0.8826  0.3172
 9266TIP3    H149213   1.353   1.572  14.819  0.9167 -0.0101  0.0393
 9266TIP3    H249214   1.337   1.445  14.738 -1.1411  0.5397 -0.4907
 9267TIP3   OH249215   5.805   0.086  12.918  0.1832  0.0626  0.0568
 9267TIP3    H149216   5.798   0.009  12.862 -0.0026  0.5225 -0.5585
 9267TIP3    H249217   5.891   0.077  12.960 -0.8286 -1.7872  1.9731
 9268TIP3   OH249218   5.124   4.579   4.892 -0.3998 -0.7563 -0.2144
 9268TIP3    H149219   5.146   4.559   4.802 -2.3331 -0.8234 -0.7203
 9268TIP3    H249220   5.179   4.654   4.915  0.8273 -1.3616 -1.0825
 9269TIP3   OH249221   5.200   5.707   2.468 -0.1077  0.0615 -0.3022
 9269TIP3    H149222   5.232   5.784   2.515 -0.5772  0.1867 -0.1800
 9269TIP3    H249223   5.107   5.703   2.489  0.3172 -1.9013  1.6546
 9270TIP3   OH249224   2.400   1.908  10.908  0.2475  0.1141  0.6955
 9270TIP3    H149225   2.446   1.836  10.952  0.6000  0.4247  0.8450
 9270TIP3    H249226   2.460   1.937  10.839  0.1136  0.2713  0.6428
 9271TIP3   OH249227   4.032   2.054  10.604  0.5128 -0.8844 -0.4003
 9271TIP3    H149228   3.985   2.058  10.688  1.4224 -1.9294  0.1864
 9271TIP3    H249229   4.109   2.110  10.616  1.1102 -1.7233 -0.2064
 9272TIP3   OH249230   0.590   2.069   1.507  0.3788 -0.0274  0.1072
 9272TIP3    H149231   0.657   2.116   1.557  2.0873 -3.4037  1.3227
 9272TIP3    H249232   0.576   1.988   1.555  0.1850 -2.3766 -3.4671
 9273TIP3   OH249233   2.238   4.042  16.681 -0.2787 -0.4004  0.0050
 9273TIP3    H149234   2.273   3.982  16.615 -2.4516 -1.5421 -0.1939
 9273TIP3    H249235   2.215   3.986  16.755  0.2739  0.5992  0.9748
 9274TIP3   OH249236   1.051   2.743   0.227  0.3102 -0.8727  0.0805
 9274TIP3    H149237   1.121   2.779   0.281  0.6692 -0.9502 -0.3227
 9274TIP3    H249238   1.045   2.803   0.153 -0.0101 -0.9022  0.0817
 9275TIP3   OH249239   3.326   6.757   4.427 -0.2295 -0.3195  0.2715
 9275TIP3    H149240   3.358   6.824   4.487 -1.9719 -0.5119  1.5007
 9275TIP3    H249241   3.279   6.806   4.359 -1.0329 -0.2322  0.8717
 9276TIP3   OH249242   1.979   1.584   4.366  0.1460 -0.1042 -0.2759
 9276TIP3    H149243   1.917   1.611   4.434 -1.3043 -2.0485 -0.7272
 9276TIP3    H249244   1.968   1.648   4.296  1.8510  2.0777  1.3247
 9277TIP3   OH249245   1.256   6.751  13.558 -0.0037  0.5781  0.1026
 9277TIP3    H149246   1.313   6.823  13.532  1.1157 -0.8392 -1.6719
 9277TIP3    H249247   1.186   6.750  13.493 -0.3302  0.4089  0.4473
 9278TIP3   OH249248   2.707   2.139  12.102  0.1648  0.1730 -0.2185
 9278TIP3    H149249   2.729   2.055  12.141 -0.7969  0.2999  0.6494
 9278TIP3    H249250   2.754   2.204  12.154 -0.3199  0.2697  0.1103
 9279TIP3   OH249251   1.819   5.871   2.028 -0.3184 -0.0242 -0.0665
 9279TIP3    H149252   1.761   5.924   1.973  0.8187  1.5256  0.1782
 9279TIP3    H249253   1.797   5.781   2.005 -3.3810  0.4438  0.5774
 9280TIP3   OH249254   5.299   2.304  16.864 -0.4346 -0.6638 -0.0547
 9280TIP3    H149255   5.244   2.330  16.790 -1.3939 -3.1266 -0.3115
 9280TIP3    H249256   5.245   2.323  16.942 -0.1297  0.2981 -0.0626
 9281TIP3   OH249257   4.793   5.520   5.212 -0.2578  0.3634  0.1502
 9281TIP3    H149258   4.862   5.463   5.246  0.4783  0.3169 -1.3365
 9281TIP3    H249259   4.835   5.604   5.199 -0.5140  0.3855 -0.5962
 9282TIP3   OH249260   6.069   0.055   2.447  0.3679  0.2992 -0.2680
 9282TIP3    H149261   6.054   0.131   2.390  0.0821 -1.5440 -2.8229
 9282TIP3    H249262   6.161   0.060   2.472  0.7048  0.7909 -1.5435
 9283TIP3   OH249263   6.608   2.842   1.770 -0.5598 -0.1707 -0.4047
 9283TIP3    H149264   6.528   2.894   1.767 -0.8041 -0.5879 -1.1918
 9283TIP3    H249265   6.578   2.751   1.775 -0.1335 -0.3410 -0.8835
 9284TIP3   OH249266   3.416   4.109  11.402 -0.2515 -0.1859 -0.0225
 9284TIP3    H149267   3.385   4.023  11.431  1.0066 -0.5177  0.3920
 9284TIP3    H249268   3.447   4.152  11.482 -0.5769  0.5395 -0.2753
 9285TIP3   OH249269   5.342   3.786   2.530 -0.2750  0.3877  0.5033
 9285TIP3    H149270   5.394   3.706   2.540 -1.9093 -0.6942  0.7918
 9285TIP3    H249271   5.371   3.843   2.601  1.2950  0.2971 -0.0284
 9286TIP3   OH249272   4.342   5.340  13.704 -0.5382  0.5258 -0.0207
 9286TIP3    H149273   4.431   5.310  13.723 -0.7598 -0.1934 -0.1076
 9286TIP3    H249274   4.303   5.270  13.651 -1.5874  0.2333  1.0927
 9287TIP3   OH249275   5.081   6.794   2.890  0.8037  0.7386  0.0383
 9287TIP3    H149276   5.050   6.872   2.936 -0.2517 -0.3944  1.3298
 9287TIP3    H249277   5.023   6.786   2.814 -0.6716 -0.0722  1.1945
 9288TIP3   OH249278   0.567   1.417   1.829  0.3090 -0.2204 -0.4411
 9288TIP3    H149279   0.595   1.349   1.768 -0.2788 -0.1474 -0.7979
 9288TIP3    H249280   0.648   1.446   1.870  0.8190  0.1784 -1.6555
 9289TIP3   OH249281   2.155   6.444   3.281 -0.3363  0.2049 -0.2420
 9289TIP3    H149282   2.224   6.491   3.235  1.6798 -1.8054  0.5282
 9289TIP3    H249283   2.162   6.474   3.372  1.0903 -1.5241  0.2958
 9290TIP3   OH249284   5.626   0.684   3.421 -0.0323  0.2138  0.2443
 9290TIP3    H149285   5.589   0.761   3.379 -1.5163  0.0319  1.1228
 9290TIP3    H249286   5.569   0.669   3.497  0.6471 -1.3166  0.4903
 9291TIP3   OH249287   3.461   5.409  16.930 -0.8314  0.0001  0.1489
 9291TIP3    H149288   3.419   5.326  16.904 -0.7985  0.2665 -0.7775
 9291TIP3    H249289   3.553   5.386  16.944 -0.2453  0.3236 -2.6077
 9292TIP3   OH249290   1.857   1.262   5.427  0.1902 -0.3431 -0.0603
 9292TIP3    H149291   1.928   1.243   5.488 -0.5450 -0.5393  0.7537
 9292TIP3    H249292   1.824   1.348   5.454 -0.2201 -0.4833 -0.1009
 9293TIP3   OH249293   2.362   0.831   1.137  0.3545  0.4638  0.4936
 9293TIP3    H149294   2.455   0.834   1.157  0.0474 -1.3916  2.5865
 9293TIP3    H249295   2.357   0.786   1.053  1.3283 -0.7333  1.0389
 9294TIP3   OH249296   2.590   0.850  16.459 -0.6328  0.4558  0.0848
 9294TIP3    H149297   2.558   0.922  16.405  1.4202  0.6995 -0.8963
 9294TIP3    H249298   2.551   0.771  16.420 -2.4767  0.9465  0.8494
 9295TIP3   OH249299   0.275   5.206  12.693  0.1017 -0.0874 -0.4857
 9295TIP3    H149300   0.292   5.132  12.635  0.5065 -0.3863  0.0078
 9295TIP3    H249301   0.183   5.227  12.678  0.4881  0.6029 -2.0982
 9296TIP3   OH249302   6.042   5.502   4.117  0.0512 -0.2874 -0.5246
 9296TIP3    H149303   5.992   5.540   4.189 -1.8431 -2.5874 -0.4988
 9296TIP3    H249304   6.100   5.573   4.088 -1.3793  1.7109  1.1673
 9297TIP3   OH249305   4.316   1.140   6.048  0.4114 -0.0475 -0.6507
 9297TIP3    H149306   4.316   1.143   6.144  2.1560 -0.3381 -0.6160
 9297TIP3    H249307   4.241   1.084   6.026  1.3607 -1.9461  0.6587
 9298TIP3   OH249308   3.874   3.921   5.543  0.2173  0.0671  0.6295
 9298TIP3    H149309   3.883   3.899   5.636 -1.7320 -0.6639  0.6992
 9298TIP3    H249310   3.804   3.863   5.512  1.6530 -0.5786 -1.6084
 9299TIP3   OH249311   4.601   2.677   4.989 -0.3426 -0.3351 -0.1859
 9299TIP3    H149312   4.611   2.732   5.067  2.1373  1.8944 -1.8979
 9299TIP3    H249313   4.574   2.592   5.023  1.1866  0.3496  3.1502
 9300TIP3   OH249314   4.817   0.030   3.001  0.2271 -0.0234  0.4046
 9300TIP3    H149315   4.882   0.047   3.069 -1.4776  0.2267  2.0564
 9300TIP3    H249316   4.739   0.003   3.049 -1.0147  0.0170 -1.4881
 9301TIP3   OH249317   2.584   0.530   3.282 -0.3149 -0.3477 -0.2725
 9301TIP3    H149318   2.665   0.556   3.326 -0.9353  1.1179  0.0660
 9301TIP3    H249319   2.563   0.605   3.226 -1.9254 -0.3006  0.3573
 9302TIP3   OH249320   2.753   5.417   3.437 -0.1503  0.7432  0.4539
 9302TIP3    H149321   2.787   5.368   3.362  2.6395  1.0625  1.3847
 9302TIP3    H249322   2.774   5.361   3.512 -2.2273  0.7665  1.1050
 9303TIP3   OH249323   5.159   1.971   3.561 -0.9988  0.2607  0.0832
 9303TIP3    H149324   5.171   2.031   3.634 -0.8742  0.6095 -0.2216
 9303TIP3    H249325   5.184   1.885   3.596 -1.5020  0.3264  0.6110
 9304TIP3   OH249326   5.873   0.758   4.434  0.3577  0.1285 -0.3377
 9304TIP3    H149327   5.798   0.760   4.375  0.7684 -1.7396 -0.9877
 9304TIP3    H249328   5.917   0.676   4.414  2.2380  0.8815  0.4606
 9305TIP3   OH249329   2.127   5.088   4.778 -0.4407 -0.1685 -0.3715
 9305TIP3    H149330   2.081   5.025   4.834  1.7039  0.5322  2.3660
 9305TIP3    H249331   2.057   5.141   4.740 -2.0291 -0.1665  2.2932
 9306TIP3   OH249332   2.884   5.093   2.322  0.3222 -0.4777 -0.0796
 9306TIP3    H149333   2.870   5.121   2.231  0.2019 -1.2573 -0.3021
 9306TIP3    H249334   2.936   5.013   2.315 -0.1462 -0.8448  0.5181
 9307TIP3   OH249335   3.678   6.223  13.345 -0.0888  0.4964 -0.2315
 9307TIP3    H149336   3.615   6.250  13.278 -0.9257 -1.1871 -0.1700
 9307TIP3    H249337   3.763   6.251  13.311 -0.7480  1.9703 -0.7592
 9308TIP3   OH249338   6.079   1.670  13.498  0.0955 -0.6225  0.4751
 9308TIP3    H149339   6.149   1.604  13.501  0.0504 -0.7230 -0.4771
 9308TIP3    H249340   6.095   1.725  13.575  0.4560 -1.4179  0.9834
 9309TIP3   OH249341   2.383   2.442  11.566  0.2512  0.3193 -0.3324
 9309TIP3    H149342   2.332   2.444  11.647 -0.6343 -0.2346 -0.8577
 9309TIP3    H249343   2.470   2.472  11.592 -0.6562  2.6016  0.3638
 9310TIP3   OH249344   5.536   2.962   1.540  0.5390  0.2112 -0.0366
 9310TIP3    H149345   5.492   2.884   1.505 -0.3991 -0.0108  1.5367
 9310TIP3    H249346   5.475   3.033   1.523  1.4788  0.6880 -1.6452
 9311TIP3   OH249347   0.473   1.307   5.189 -0.3231  0.4297 -0.5117
 9311TIP3    H149348   0.413   1.280   5.259  0.5951  0.3973  0.2869
 9311TIP3    H249349   0.504   1.393   5.216  1.5050 -0.3897  0.1316
 9312TIP3   OH249350   6.290   5.238   3.064  0.0079  0.2243  1.1513
 9312TIP3    H149351   6.250   5.317   3.100 -0.0299  0.3917  0.7451
 9312TIP3    H249352   6.372   5.267   3.025  1.2955 -0.3311  3.2264
 9313TIP3   OH249353   5.585   2.243  14.118 -0.1691 -0.0624  0.1067
 9313TIP3    H149354   5.572   2.167  14.174 -1.2843 -0.9455 -1.2882
 9313TIP3    H249355   5.638   2.210  14.045 -2.7458 -0.2152 -1.8172
 9314TIP3   OH249356   5.398   4.067  14.479 -0.6254  0.3696  0.0864
 9314TIP3    H149357   5.452   3.993  14.451  0.3616  1.3993 -0.8175
 9314TIP3    H249358   5.435   4.142  14.433 -1.8814  1.3600  0.6523
 9315TIP3   OH249359   1.568   6.237   2.685  0.1991  0.3817  0.4756
 9315TIP3    H149360   1.647   6.249   2.739 -0.2524 -0.5820  1.3873
 9315TIP3    H249361   1.497   6.227   2.749 -0.1002 -2.7230 -0.1989
 9316TIP3   OH249362   1.576   1.917  14.844 -0.2310 -0.1641  0.5567
 9316TIP3    H149363   1.640   1.881  14.783  1.1238  4.1393 -0.8541
 9316TIP3    H249364   1.509   1.956  14.789 -1.8340 -0.7501  1.9909
 9317TIP3   OH249365   4.977   1.123  13.443 -0.0610  0.2441 -0.3575
 9317TIP3    H149366   5.036   1.051  13.419  0.5810  0.8933 -0.7994
 9317TIP3    H249367   4.925   1.138  13.364  0.4134  0.8275 -0.5687
 9318TIP3   OH249368   3.813   0.563  13.863 -0.0674  0.1383 -0.0026
 9318TIP3    H149369   3.897   0.520  13.844 -2.2361 -3.3979 -3.0879
 9318TIP3    H249370   3.799   0.622  13.790  0.8216  2.9655  1.9475
 9319TIP3   OH249371   2.425   2.125  13.458 -0.1380 -0.3423 -0.1966
 9319TIP3    H149372   2.489   2.107  13.526 -1.5899 -0.4174  1.2080
 9319TIP3    H249373   2.407   2.040  13.418 -0.8747 -0.6888  0.8258
 9320TIP3   OH249374   3.723   3.615   4.616  0.8659  0.0085  0.2925
 9320TIP3    H149375   3.805   3.665   4.620  1.1450 -0.5249  1.8101
 9320TIP3    H249376   3.655   3.680   4.636  0.9815  0.2697 -0.1333
 9321TIP3   OH249377   5.580   6.126   0.513 -0.3399 -0.1771  0.0650
 9321TIP3    H149378   5.666   6.168   0.511  0.2456 -1.0206  2.7281
 9321TIP3    H249379   5.593   6.049   0.569 -2.5035 -1.1467 -0.6747
 9322TIP3   OH249380   6.556   1.073  13.773 -0.1465 -0.3794  0.2138
 9322TIP3    H149381   6.487   1.052  13.836  1.7602 -2.0596  1.8866
 9322TIP3    H249382   6.572   0.992  13.726  0.4887  0.0676 -0.3673
 9323TIP3   OH249383   4.124   6.226  14.880 -0.5099  0.1127 -0.3653
 9323TIP3    H149384   4.085   6.142  14.906 -1.2383  0.2406 -0.9894
 9323TIP3    H249385   4.133   6.274  14.962  1.9751 -1.3778  0.3221
 9324TIP3   OH249386   5.807   2.913   2.301  0.3107  0.4821  0.0530
 9324TIP3    H149387   5.741   2.848   2.280  0.2732  0.6493 -0.3630
 9324TIP3    H249388   5.890   2.869   2.280  0.2123  1.5599 -3.2801
 9325TIP3   OH249389   0.057   1.940   0.725  0.3782 -0.2908  0.2480
 9325TIP3    H149390   0.115   1.949   0.801  1.1365  0.0003 -0.3459
 9325TIP3    H249391   0.070   2.022   0.676  0.2734 -0.6873 -0.4491
 9326TIP3   OH249392   3.018   5.591   3.674 -0.3989  0.0650 -0.5719
 9326TIP3    H149393   3.088   5.649   3.704 -0.5912  0.0411 -0.0606
 9326TIP3    H249394   2.960   5.646   3.622  1.7357 -0.5575 -3.9538
 9327TIP3   OH249395   4.304   5.413  11.469 -0.4692 -0.3797  0.5079
 9327TIP3    H149396   4.268   5.501  11.481  1.3535  0.3401  0.9626
 9327TIP3    H249397   4.368   5.423  11.398 -0.7856 -1.5191  0.0366
 9328TIP3   OH249398   5.018   4.629   0.130 -0.7534 -0.6757 -0.1961
 9328TIP3    H149399   5.099   4.588   0.101  0.5950  0.2105  2.0883
 9328TIP3    H249400   4.975   4.657   0.049  0.7589 -1.9544 -1.5004
 9329TIP3   OH249401   2.546   5.834  13.212  0.1080  0.0525  0.1613
 9329TIP3    H149402   2.548   5.794  13.125 -0.9633  0.0941  0.1133
 9329TIP3    H249403   2.486   5.779  13.262  1.8633 -0.8702  1.3384
 9330TIP3   OH249404   4.682   6.055  10.597 -0.0815 -0.0719 -0.4630
 9330TIP3    H149405   4.768   6.019  10.618 -0.3143 -0.3351  0.0468
 9330TIP3    H249406   4.689   6.081  10.505  1.0525  1.3805 -0.0097
 9331TIP3   OH249407   4.733   5.145  11.441 -0.0539  0.1999 -0.0927
 9331TIP3    H149408   4.701   5.057  11.424  1.6021 -0.0012 -2.8161
 9331TIP3    H249409   4.810   5.133  11.497  0.7014 -0.2045 -1.1934
 9332TIP3   OH249410   3.041   1.318   1.897 -0.1832  0.1862  0.3142
 9332TIP3    H149411   3.085   1.375   1.959 -0.1055  0.3699  0.0898
 9332TIP3    H249412   2.951   1.350   1.894 -0.1886  0.1732  0.3358
 9333TIP3   OH249413   5.013   2.894   1.443 -0.2953 -0.2682 -0.1929
 9333TIP3    H149414   4.931   2.939   1.464 -0.6419 -0.0358 -1.9665
 9333TIP3    H249415   4.986   2.817   1.393  0.5640 -0.2547 -0.6851
 9334TIP3   OH249416   1.034   5.687  16.117 -0.4239 -0.3655  0.3363
 9334TIP3    H149417   1.089   5.619  16.156  1.1623 -0.5580 -2.0491
 9334TIP3    H249418   1.090   5.765  16.117 -0.4308 -0.3244 -1.2586
 9335TIP3   OH249419   1.057   1.158   0.941  0.0936  0.6065 -0.1664
 9335TIP3    H149420   1.070   1.246   0.976 -0.2640  1.0810 -1.2110
 9335TIP3    H249421   1.136   1.110   0.968  0.7526  1.5168 -0.4292
 9336TIP3   OH249422   3.889   2.607   2.129  0.0681  0.0826 -0.7633
 9336TIP3    H149423   3.800   2.572   2.120 -0.2698  0.5656  0.5184
 9336TIP3    H249424   3.925   2.604   2.040 -0.5071 -1.9651 -0.9904
 9337TIP3   OH249425   1.488   5.470  14.547 -0.2209 -0.1338 -0.1960
 9337TIP3    H149426   1.561   5.465  14.486 -1.2591 -0.8724 -1.4395
 9337TIP3    H249427   1.455   5.559  14.539 -0.3864 -0.2435 -0.7887
 9338TIP3   OH249428   2.601   1.824  15.094 -0.3184  0.3808 -0.1519
 9338TIP3    H149429   2.674   1.772  15.062  0.1096  1.5886 -1.2067
 9338TIP3    H249430   2.589   1.892  15.028  0.4357  2.8504  2.0767
 9339TIP3   OH249431   5.499   3.978  11.416 -0.1584 -0.4483 -0.5589
 9339TIP3    H149432   5.549   4.046  11.461 -2.5370  0.8672  0.2658
 9339TIP3    H249433   5.497   3.905  11.478 -1.6526  0.5875  0.6899
 9340TIP3   OH249434   4.605   4.518   3.964 -0.2256 -0.0434  0.0578
 9340TIP3    H149435   4.567   4.501   3.877  1.1654 -0.8773 -0.4138
 9340TIP3    H249436   4.628   4.611   3.962  1.2837 -0.4040 -1.1065
 9341TIP3   OH249437   2.680   6.363  13.459 -0.4086  0.1403 -0.1760
 9341TIP3    H149438   2.757   6.392  13.509 -0.8055 -0.0531  0.5536
 9341TIP3    H249439   2.665   6.434  13.396  1.0777 -0.3525 -1.1463
 9342TIP3   OH249440   4.615   0.079   5.156 -0.4036 -0.7907 -0.3353
 9342TIP3    H149441   4.678   0.080   5.228  0.0694  0.2893 -0.7327
 9342TIP3    H249442   4.636   0.000   5.106  1.2277 -0.0205 -0.9418
 9343TIP3   OH249443   3.775   0.292   4.144  0.6498 -0.0334  0.7171
 9343TIP3    H149444   3.797   0.372   4.097  0.8709 -0.9928 -0.8758
 9343TIP3    H249445   3.812   0.222   4.091 -1.9418 -1.3808  0.5382
 9344TIP3   OH249446   1.299   1.722   1.815 -0.7021  0.0498 -0.0321
 9344TIP3    H149447   1.378   1.674   1.791 -0.4703 -0.1836  1.1325
 9344TIP3    H249448   1.234   1.695   1.749  0.0560 -0.0778 -0.7452
 9345TIP3   OH249449   0.598   5.582   3.956 -0.4189 -0.2868 -0.0606
 9345TIP3    H149450   0.536   5.585   3.883 -1.0404 -1.5523  0.3715
 9345TIP3    H249451   0.601   5.489   3.980  1.1950 -0.1603  0.3266
 9346TIP3   OH249452   1.733   4.038  16.419  0.4336  0.4730  0.5561
 9346TIP3    H149453   1.726   4.130  16.396 -0.7112  0.0580 -0.8729
 9346TIP3    H249454   1.644   4.003  16.411  0.8048 -0.7212  1.2552
 9347TIP3   OH249455   1.749   1.902   4.035  0.0113  0.3285 -0.0505
 9347TIP3    H149456   1.715   1.814   4.052 -0.5947  0.4439 -0.5998
 9347TIP3    H249457   1.729   1.917   3.942  0.8500  0.7220 -0.1703
 9348TIP3   OH249458   4.385   2.005   3.070  0.3568  0.0312 -0.4720
 9348TIP3    H149459   4.371   1.950   3.147  0.8626  0.5126 -0.0208
 9348TIP3    H249460   4.297   2.021   3.036  0.1617 -0.5669 -0.2661
 9349TIP3   OH249461   3.944   1.258   0.157 -0.0694 -0.6493 -0.2442
 9349TIP3    H149462   4.019   1.311   0.131 -0.3709 -0.1597 -0.1318
 9349TIP3    H249463   3.891   1.316   0.210  0.1406 -1.4022  0.8123
 9350TIP3   OH249464   2.330   0.947  10.815 -0.9272 -0.4980  0.5188
 9350TIP3    H149465   2.282   1.030  10.808 -3.2472 -1.4439  3.2932
 9350TIP3    H249466   2.303   0.897  10.738 -1.7574  0.2781  0.2878
 9351TIP3   OH249467   6.509   1.337  14.392  0.6998 -0.0968  0.0146
 9351TIP3    H149468   6.555   1.254  14.386  0.3954 -0.4253  1.7549
 9351TIP3    H249469   6.559   1.388  14.456  0.0631  0.4997  0.0504
 9352TIP3   OH249470   3.481   6.666  12.695  0.0921  0.2813  0.0699
 9352TIP3    H149471   3.485   6.575  12.664 -0.1153  0.3646 -0.2061
 9352TIP3    H249472   3.524   6.716  12.625  0.1533  0.4023  0.1940
 9353TIP3   OH249473   0.423   5.198   1.075 -0.3957 -0.7044 -0.8814
 9353TIP3    H149474   0.333   5.173   1.097 -0.0973  0.0041  1.4475
 9353TIP3    H249475   0.474   5.169   1.150  1.1310  0.0772 -1.5795
 9354TIP3   OH249476   2.600   4.646   4.753  0.0751 -0.3393  0.3843
 9354TIP3    H149477   2.662   4.597   4.807  0.1114  1.5507  2.2068
 9354TIP3    H249478   2.516   4.603   4.768  0.1480 -0.0695  1.7633
 9355TIP3   OH249479   3.998   5.699  12.290 -0.3667 -0.4195 -0.0527
 9355TIP3    H149480   4.013   5.748  12.370 -1.3632 -0.4923  0.1967
 9355TIP3    H249481   4.085   5.688  12.251  0.1112 -0.3037  0.9629
 9356TIP3   OH249482   6.290   3.108  14.477  0.6327 -0.3414 -0.2522
 9356TIP3    H149483   6.260   3.017  14.465 -0.3242 -0.2470  1.1560
 9356TIP3    H249484   6.210   3.157  14.493  1.3163  0.3899  1.0097
 9357TIP3   OH249485   2.875   2.408   4.851  0.0682 -0.3607  0.1941
 9357TIP3    H149486   2.835   2.364   4.776 -0.7977  0.4368  0.1729
 9357TIP3    H249487   2.861   2.347   4.925 -1.6780  0.1228  0.2973
 9358TIP3   OH249488   5.446   2.613  16.854  0.3439 -0.1798  0.0284
 9358TIP3    H149489   5.448   2.580  16.944 -2.2057  0.5249  0.4209
 9358TIP3    H249490   5.518   2.567  16.811 -1.1115 -4.1020  1.2554
 9359TIP3   OH249491   5.060   3.563  16.771 -0.0198  0.6497 -1.0112
 9359TIP3    H149492   5.091   3.496  16.711  2.1734  0.9472 -0.2787
 9359TIP3    H249493   5.062   3.644  16.721 -2.6822  0.2823 -1.8993
 9360TIP3   OH249494   3.885   2.783  16.658 -0.4108 -0.3673  0.6199
 9360TIP3    H149495   3.975   2.764  16.686 -0.2711  0.4889  0.7606
 9360TIP3    H249496   3.878   2.742  16.572  0.4260  0.3464  0.1946
 9361TIP3   OH249497   6.369   2.771  11.399  0.2319 -0.2019 -0.2542
 9361TIP3    H149498   6.403   2.860  11.388  0.7832 -0.5542 -1.4977
 9361TIP3    H249499   6.283   2.784  11.439  1.2849  0.7544  1.8636
 9362TIP3   OH249500   3.051   6.265   4.529 -0.6036 -0.0201 -0.2463
 9362TIP3    H149501   3.130   6.289   4.482 -0.2176  2.5892  1.4959
 9362TIP3    H249502   3.065   6.174   4.556  0.8391 -0.2795 -1.7382
 9363TIP3   OH249503   1.509   6.243   0.756 -0.4572 -0.6073  0.3352
 9363TIP3    H149504   1.600   6.242   0.786 -0.2990 -1.3997 -0.1269
 9363TIP3    H249505   1.460   6.201   0.827 -0.3951 -0.5465  0.4133
 9364TIP3   OH249506   3.907   4.170   0.746 -0.0020  0.7345 -0.5737
 9364TIP3    H149507   3.925   4.108   0.675 -0.2299  0.9312 -0.8061
 9364TIP3    H249508   3.985   4.225   0.749  0.9458 -0.5918  0.7458
 9365TIP3   OH249509   1.639   2.290   0.580 -0.2765 -0.0775 -0.4317
 9365TIP3    H149510   1.722   2.336   0.578 -0.5039  0.3436 -0.3340
 9365TIP3    H249511   1.576   2.355   0.612 -0.1311 -1.2106  2.4318
 9366TIP3   OH249512   2.558   4.126  14.080 -0.1214  0.7207 -0.0436
 9366TIP3    H149513   2.640   4.164  14.111  0.6506 -0.0665 -1.0508
 9366TIP3    H249514   2.522   4.081  14.157  0.9916  0.0906  0.1275
 9367TIP3   OH249515   3.009   0.400   3.432 -0.1016 -0.1572 -0.0432
 9367TIP3    H149516   2.983   0.352   3.353 -1.4841 -0.3120  0.4866
 9367TIP3    H249517   2.993   0.492   3.409 -0.6962 -0.2174  0.1223
 9368TIP3   OH249518   2.809   1.696   5.714 -0.0790  0.1399  0.1817
 9368TIP3    H149519   2.742   1.750   5.672  1.8068  0.7015 -2.3871
 9368TIP3    H249520   2.892   1.737   5.688  1.3445 -1.8673  1.2713
 9369TIP3   OH249521   3.624   2.135   0.444  0.3222  0.0351 -0.4255
 9369TIP3    H149522   3.608   2.055   0.395 -1.1752  0.1718 -0.2112
 9369TIP3    H249523   3.565   2.199   0.404  0.9478  0.8301 -0.0970
 9370TIP3   OH249524   6.480   6.104  12.959  0.8332 -0.1517  0.1196
 9370TIP3    H149525   6.548   6.104  12.892  0.9888 -1.0200  0.2761
 9370TIP3    H249526   6.508   6.172  13.021  1.6377 -0.6131  0.2650
 9371TIP3   OH249527   2.816   3.414  14.779 -0.0588  0.2355 -0.2044
 9371TIP3    H149528   2.872   3.346  14.742  0.7841  0.0620  1.3078
 9371TIP3    H249529   2.727   3.381  14.768  0.3709 -2.0592  2.1205
 9372TIP3   OH249530   4.513   0.731   2.655  0.3308  0.2306 -0.2467
 9372TIP3    H149531   4.578   0.772   2.711  2.8593 -2.2225 -1.1588
 9372TIP3    H249532   4.501   0.792   2.583  1.3459  0.8933  0.1369
 9373TIP3   OH249533   6.247   0.180   3.438  0.4185 -0.1420  0.0236
 9373TIP3    H149534   6.224   0.141   3.354 -2.5082  1.3138  0.0291
 9373TIP3    H249535   6.265   0.272   3.417  0.5550  0.0358  0.8857
 9374TIP3   OH249536   0.743   1.928   2.109 -0.8950  0.1641 -0.0798
 9374TIP3    H149537   0.801   2.004   2.104  0.4467 -0.9097 -1.7368
 9374TIP3    H249538   0.674   1.946   2.045 -0.4384 -0.1005 -0.6561
 9375TIP3   OH249539   1.436   1.272   0.777  0.1323  0.3082 -0.0603
 9375TIP3    H149540   1.365   1.210   0.763 -0.6594  0.7994  1.5443
 9375TIP3    H249541   1.437   1.325   0.697 -2.0098  0.9489  0.2706
 9376TIP3   OH249542   5.154   5.981  11.771  0.6181  0.2479 -0.5142
 9376TIP3    H149543   5.073   6.030  11.782  1.3447  1.3562  0.0541
 9376TIP3    H249544   5.223   6.046  11.783  1.6455 -1.1037  1.3619
 9377TIP3   OH249545   4.025   2.818   0.721 -0.2632 -0.0847 -0.2415
 9377TIP3    H149546   4.087   2.775   0.662 -0.4400 -1.5880  0.6076
 9377TIP3    H249547   4.076   2.885   0.766  0.3234 -0.1985 -0.7322
 9378TIP3   OH249548   6.089   0.921   1.185  0.5226 -0.2729 -0.1258
 9378TIP3    H149549   6.105   0.829   1.209  0.1254 -0.8231 -1.8422
 9378TIP3    H249550   6.058   0.917   1.095  1.1524  1.6297 -0.4632
 9379TIP3   OH249551   1.260   1.889  12.608 -0.1851  0.5631 -0.0658
 9379TIP3    H149552   1.206   1.810  12.617  0.7653 -0.0067  0.8671
 9379TIP3    H249553   1.203   1.961  12.634 -1.1647  0.2326 -1.2348
 9380TIP3   OH249554   1.474   2.768  17.158 -0.8278 -0.0782  0.8827
 9380TIP3    H149555   1.444   2.748  17.247  0.7173  1.1225  1.7462
 9380TIP3    H249556   1.436   2.854  17.139 -1.3052 -0.4172  0.2973
 9381TIP3   OH249557   0.613   3.927  13.669 -0.3442  0.2906 -0.3507
 9381TIP3    H149558   0.562   3.992  13.717 -0.8108  0.7260 -1.3989
 9381TIP3    H249559   0.661   3.879  13.736 -1.0150  0.8445  0.5439
 9382TIP3   OH249560   1.871   2.199   1.926 -0.0103 -0.2600  0.0735
 9382TIP3    H149561   1.958   2.179   1.891 -1.0358 -2.1713 -1.6304
 9382TIP3    H249562   1.855   2.290   1.901  1.0974 -0.1996 -0.4831
 9383TIP3   OH249563   1.266   1.633  13.325 -0.6031 -0.1166 -0.1030
 9383TIP3    H149564   1.357   1.603  13.317 -0.8344 -0.5339 -1.2640
 9383TIP3    H249565   1.274   1.728  13.339  0.0755 -0.4539  2.2402
 9384TIP3   OH249566   6.141   5.991  15.468 -0.3834 -0.1472 -0.1303
 9384TIP3    H149567   6.087   5.921  15.506  1.0704 -1.4226 -0.2952
 9384TIP3    H249568   6.178   6.036  15.544 -3.1026  2.0323  0.0582
 9385TIP3   OH249569   4.885   6.541  12.585 -0.0776  0.5605 -0.4742
 9385TIP3    H149570   4.837   6.615  12.548 -2.6657 -0.4004  0.7224
 9385TIP3    H249571   4.820   6.493  12.636  2.4713 -0.0963  2.4734
 9386TIP3   OH249572   0.381   5.730   0.462 -0.0099 -0.0325  0.5410
 9386TIP3    H149573   0.377   5.651   0.516 -1.7120  0.7620  1.7068
 9386TIP3    H249574   0.444   5.786   0.507  2.5045 -1.2867 -1.2216
 9387TIP3   OH249575   6.361   6.376   0.081  0.3073 -0.0709  0.1304
 9387TIP3    H149576   6.394   6.300   0.032 -0.4510 -0.0808 -0.3778
 9387TIP3    H249577   6.298   6.417   0.022  0.1361  0.5109  0.7064
 9388TIP3   OH249578   6.475   2.571  11.952  0.0671 -0.5418  0.4920
 9388TIP3    H149579   6.543   2.635  11.974 -1.7708  0.7966  2.8293
 9388TIP3    H249580   6.408   2.623  11.907  0.4021 -1.7805 -1.5435
 9389TIP3   OH249581   4.355   2.968   2.220  0.3830 -0.3784 -0.2583
 9389TIP3    H149582   4.409   3.045   2.235 -2.2315  1.5672 -0.0399
 9389TIP3    H249583   4.270   3.003   2.192 -0.2843 -3.2788 -2.3902
 9390TIP3   OH249584   6.279   6.506  11.218 -0.3538  0.1583 -0.2659
 9390TIP3    H149585   6.258   6.465  11.135  1.4862 -0.5158 -0.4209
 9390TIP3    H249586   6.236   6.592  11.214 -0.2746  0.1354 -1.8876
 9391TIP3   OH249587   4.431   1.340   0.274  0.4674  0.6130  0.1037
 9391TIP3    H149588   4.369   1.287   0.324 -0.2025  3.4241  2.4770
 9391TIP3    H249589   4.392   1.347   0.186  0.5534 -2.5809 -0.3289
 9392TIP3   OH249590   4.563   5.627  12.325  0.3027 -0.2199  0.4819
 9392TIP3    H149591   4.538   5.635  12.233 -0.7105 -0.6800  0.7110
 9392TIP3    H249592   4.603   5.540  12.332 -2.4769 -1.5701  1.0742
 9393TIP3   OH249593   4.935   5.705   2.602  0.0417 -0.6246 -0.5396
 9393TIP3    H149594   4.855   5.659   2.577 -0.2808 -0.1398 -0.4272
 9393TIP3    H249595   4.939   5.697   2.698 -1.6623  2.1101 -0.1275
 9394TIP3   OH249596   5.646   3.771   4.271 -0.1088 -0.3473 -0.1070
 9394TIP3    H149597   5.628   3.757   4.178  0.3501  0.3686 -0.3102
 9394TIP3    H249598   5.630   3.864   4.285  1.1643 -0.1646  0.2226
 9395TIP3   OH249599   2.382   3.442  16.459 -0.5319 -0.5097  0.0237
 9395TIP3    H149600   2.430   3.362  16.437  1.0741  0.4913 -0.3368
 9395TIP3    H249601   2.342   3.470  16.377 -1.7562 -1.3298  0.3174
 9396TIP3   OH249602   2.662   2.328  16.446 -0.1282  0.1861  0.2889
 9396TIP3    H149603   2.756   2.344  16.448 -0.2734  1.0237  0.7933
 9396TIP3    H249604   2.636   2.322  16.538 -0.5059 -0.4790  0.1506
 9397TIP3   OH249605   3.691   4.651  12.379 -0.4836 -0.6044 -0.5362
 9397TIP3    H149606   3.732   4.566  12.367 -0.7150 -0.8901  0.6053
 9397TIP3    H249607   3.626   4.657  12.309 -0.6172 -1.4558 -0.4875
 9398TIP3   OH249608   1.007   5.231   1.527 -0.2241 -0.1449  0.1408
 9398TIP3    H149609   0.962   5.193   1.452 -1.0018 -1.6337  1.2840
 9398TIP3    H249610   1.064   5.161   1.558 -0.1831  0.3061  1.1328
 9399TIP3   OH249611   1.174   5.875   2.867 -0.2595 -0.0505  0.3024
 9399TIP3    H149612   1.132   5.900   2.949 -1.2440 -1.2699  0.2154
 9399TIP3    H249613   1.123   5.918   2.799 -0.5694 -0.4784  0.2585
 9400TIP3   OH249614   4.767   0.563  16.075 -0.0889 -0.2943 -0.3099
 9400TIP3    H149615   4.712   0.485  16.085 -1.2871  0.3656 -1.4499
 9400TIP3    H249616   4.714   0.635  16.109  0.0090  0.3623 -1.4809
 9401TIP3   OH249617   4.992   5.097  12.036 -0.0736 -0.2527  0.1637
 9401TIP3    H149618   4.909   5.050  12.044  0.6775 -2.1447 -1.9227
 9401TIP3    H249619   5.004   5.140  12.120 -2.3710 -1.2501  1.0854
 9402TIP3   OH249620   2.065   2.832   3.718  0.5552 -0.5129 -0.4726
 9402TIP3    H149621   2.136   2.799   3.773 -0.0284 -0.5971  0.2465
 9402TIP3    H249622   2.002   2.761   3.714 -0.6076  0.3762  0.9030
 9403TIP3   OH249623   2.959   2.708  17.051  0.1902 -0.1532 -0.0503
 9403TIP3    H149624   2.917   2.775  16.997  0.7302 -1.0194 -1.6027
 9403TIP3    H249625   3.016   2.661  16.991  1.8123 -0.3521  1.5633
 9404TIP3   OH249626   1.015   4.023   3.484 -0.2552  0.5013  0.9396
 9404TIP3    H149627   1.006   4.112   3.519 -0.3159  0.9872 -0.2733
 9404TIP3    H249628   0.966   4.024   3.402 -0.9846 -0.9175  1.3331
 9405TIP3   OH249629   6.450   2.985   5.396  0.7304  0.2305 -0.3378
 9405TIP3    H149630   6.391   2.913   5.416  0.3692  0.3238 -1.0191
 9405TIP3    H249631   6.453   3.037   5.476 -0.4023  0.4152 -0.3894
 9406TIP3   OH249632   5.203   3.490  11.957  0.1156 -0.1280 -0.3246
 9406TIP3    H149633   5.163   3.572  11.926 -0.5047 -0.5878 -0.7550
 9406TIP3    H249634   5.291   3.516  11.985 -1.0899  1.2958  2.5967
 9407TIP3   OH249635   0.116   6.502   0.217 -0.3418  0.1217  0.1653
 9407TIP3    H149636   0.188   6.542   0.168  0.3447 -1.5305 -0.2605
 9407TIP3    H249637   0.043   6.499   0.155 -0.0917 -0.1463 -0.1220
 9408TIP3   OH249638   6.467   1.253  16.073  0.0931  0.2233  0.0354
 9408TIP3    H149639   6.406   1.328  16.076 -0.2595 -0.0781  0.6195
 9408TIP3    H249640   6.553   1.293  16.087 -0.1039  0.5162  0.4711
 9409TIP3   OH249641   2.975   3.798  11.424 -0.0333  0.9297 -0.0608
 9409TIP3    H149642   2.915   3.847  11.481 -0.9933 -1.0751  0.7408
 9409TIP3    H249643   3.032   3.752  11.484  0.3524  0.4633 -0.7736
 9410TIP3   OH249644   1.617   6.016  12.526  0.7818 -0.1111  0.2031
 9410TIP3    H149645   1.558   5.959  12.477  2.5568 -1.8749  0.0230
 9410TIP3    H249646   1.663   6.067  12.459 -1.0210  1.8859  0.3718
 9411TIP3   OH249647   6.685   3.516   0.147 -0.0356 -0.1866  0.2561
 9411TIP3    H149648   6.590   3.512   0.133  0.1950  0.6611 -1.9383
 9411TIP3    H249649   6.708   3.430   0.183 -1.3714 -1.2036 -1.1702
 9412TIP3   OH249650   0.596   6.578  13.427 -0.5093 -0.4799  0.1439
 9412TIP3    H149651   0.691   6.582  13.424 -0.4822 -1.1385 -0.0692
 9412TIP3    H249652   0.571   6.528  13.349 -1.1444  1.1583 -0.7449
 9413TIP3   OH249653   4.317   6.460  15.530 -0.1308  0.0652 -0.7344
 9413TIP3    H149654   4.291   6.440  15.620  0.6314 -1.4077 -0.8027
 9413TIP3    H249655   4.380   6.532  15.539  0.9531 -0.9408  0.0690
 9414TIP3   OH249656   3.141   3.830   5.534 -0.5116 -0.3429  0.5490
 9414TIP3    H149657   3.234   3.823   5.513 -0.3350 -0.1477  1.2389
 9414TIP3    H249658   3.121   3.924   5.525 -0.3338 -0.1863  1.5970
 9415TIP3   OH249659   1.970   5.033   6.081  0.0393 -0.0296  0.2361
 9415TIP3    H149660   2.057   5.072   6.074  1.1871 -1.9965  2.2204
 9415TIP3    H249661   1.917   5.100   6.124  1.7792 -0.2619  2.9512
 9416TIP3   OH249662   1.233   0.624  14.770  0.1384 -0.1247 -0.8197
 9416TIP3    H149663   1.228   0.597  14.862  1.0481  1.4926 -0.2460
 9416TIP3    H249664   1.146   0.656  14.749 -0.4239 -1.6661 -0.9376
 9417TIP3   OH249665   3.367   0.202   4.210 -0.2817 -0.0271  0.3714
 9417TIP3    H149666   3.443   0.225   4.264  0.7886 -2.2601 -0.0845
 9417TIP3    H249667   3.383   0.246   4.127 -0.3284  0.8392  0.8095
 9418TIP3   OH249668   0.942   0.440  16.227  0.2982 -0.1357  0.3052
 9418TIP3    H149669   0.857   0.481  16.241 -1.0878 -2.6027 -0.2700
 9418TIP3    H249670   0.954   0.441  16.132 -0.1505 -1.7268  0.2149
 9419TIP3   OH249671   3.272   2.518  10.862 -0.0284  1.1731 -0.1686
 9419TIP3    H149672   3.292   2.566  10.781 -0.8991  2.6699  0.4461
 9419TIP3    H249673   3.328   2.441  10.860 -0.2539  1.0065 -2.3501
 9420TIP3   OH249674   5.310   3.763   5.054  0.0274 -0.5598 -0.4772
 9420TIP3    H149675   5.310   3.694   4.988 -0.3587 -0.5401 -0.5017
 9420TIP3    H249676   5.223   3.801   5.049 -0.7882 -1.9696  1.4978
 9421TIP3   OH249677   1.261   3.442   4.434 -0.6486  0.1016  0.2407
 9421TIP3    H149678   1.178   3.438   4.388 -0.5171  1.9023 -0.2167
 9421TIP3    H249679   1.239   3.422   4.525 -1.4282 -0.2788 -0.0246
 9422TIP3   OH249680   6.691   1.280   0.938 -0.5288 -0.8094  0.2421
 9422TIP3    H149681   6.763   1.232   0.979 -0.2455 -1.4388 -0.9741
 9422TIP3    H249682   6.612   1.245   0.981 -0.2931 -2.0115 -0.2750
 9423TIP3   OH249683   4.588   2.513  11.125 -0.5201 -0.4233  1.0685
 9423TIP3    H149684   4.583   2.590  11.068  0.5469 -1.2753 -0.2462
 9423TIP3    H249685   4.679   2.513  11.157 -0.8474 -0.4829  2.0109
 9424TIP3   OH249686   3.594   2.879  14.152  0.6165  0.2937 -0.4832
 9424TIP3    H149687   3.588   2.845  14.242  0.8083  0.7666 -0.2866
 9424TIP3    H249688   3.503   2.896  14.127  0.6406  1.6876  0.2341
 9425TIP3   OH249689   0.380   3.236  15.249 -0.1454  0.3351 -0.0723
 9425TIP3    H149690   0.366   3.197  15.162 -1.1742 -1.1923  0.7203
 9425TIP3    H249691   0.424   3.319  15.231 -3.1350  1.6747 -2.3516
 9426TIP3   OH249692   5.233   3.720   3.827 -0.0959 -0.1791 -0.0016
 9426TIP3    H149693   5.236   3.773   3.747  0.5342 -0.4461 -0.1664
 9426TIP3    H249694   5.286   3.643   3.806 -2.0174 -1.5186 -0.2078
 9427TIP3   OH249695   2.069   4.999   0.756  0.1754 -0.2833  0.8453
 9427TIP3    H149696   2.128   4.925   0.740 -2.1726 -1.7554 -1.9851
 9427TIP3    H249697   2.089   5.060   0.686 -0.4422  0.0145  0.9251
 9428TIP3   OH249698   3.510   2.679  15.589  0.5628  0.5502 -0.5758
 9428TIP3    H149699   3.600   2.662  15.560  0.2829  1.4391 -2.1146
 9428TIP3    H249700   3.491   2.767  15.555 -0.7479  0.5546  0.1136
 9429TIP3   OH249701   4.555   2.217  12.608 -0.0289  0.3821  0.0354
 9429TIP3    H149702   4.555   2.237  12.702 -0.2259  1.6058 -0.2079
 9429TIP3    H249703   4.474   2.168  12.594  0.1528 -0.0760  0.5547
 9430TIP3   OH249704   2.279   4.558   2.614  0.0586 -0.1733  0.0883
 9430TIP3    H149705   2.290   4.536   2.522 -0.0996  2.1369 -0.5332
 9430TIP3    H249706   2.293   4.475   2.660  1.0695 -1.1925 -1.9255
 9431TIP3   OH249707   4.806   2.496  13.270 -0.0442  0.3756  0.1779
 9431TIP3    H149708   4.734   2.550  13.239 -1.2553 -1.0614  0.3379
 9431TIP3    H249709   4.839   2.451  13.192 -0.9262 -0.7555  0.4223
 9432TIP3   OH249710   1.019   6.791  15.543  0.0062  0.0716 -0.4705
 9432TIP3    H149711   1.102   6.836  15.529  1.7133 -3.0424 -1.4817
 9432TIP3    H249712   0.992   6.816  15.631  0.8275  2.8568 -0.9342
 9433TIP3   OH249713   5.864   0.474  15.690  0.0516 -0.4209 -0.4061
 9433TIP3    H149714   5.803   0.475  15.764 -0.9140  2.0610 -1.1288
 9433TIP3    H249715   5.829   0.408  15.630 -1.4239  0.3012 -0.3807
 9434TIP3   OH249716   0.171   6.249  11.768 -0.4902 -0.5517  0.3588
 9434TIP3    H149717   0.162   6.212  11.680 -1.3759  1.4587 -0.4798
 9434TIP3    H249718   0.160   6.175  11.827 -2.3722 -1.5985 -1.1810
 9435TIP3   OH249719   3.990   3.220   6.399 -0.4189 -0.2936  0.0057
 9435TIP3    H149720   3.920   3.164   6.432 -0.1806  0.1149  1.2491
 9435TIP3    H249721   3.946   3.302   6.378 -0.7091 -0.8078 -1.4962
 9436TIP3   OH249722   5.661   3.327  11.576  0.4872 -0.0373 -0.1768
 9436TIP3    H149723   5.566   3.336  11.569  0.2968 -1.8246 -0.1730
 9436TIP3    H249724   5.679   3.338  11.669  0.1540 -0.7404 -0.0253
 9437TIP3   OH249725   2.581   4.305  12.053 -0.0036 -0.2179 -0.1335
 9437TIP3    H149726   2.584   4.392  12.092  0.0547  0.0793 -0.7819
 9437TIP3    H249727   2.558   4.321  11.961 -0.8061 -0.9444 -0.0681
 9438TIP3   OH249728   3.156   4.432   4.742 -0.1364 -0.2673 -0.0115
 9438TIP3    H149729   3.113   4.508   4.704 -2.4352 -0.9799  1.0224
 9438TIP3    H249730   3.133   4.359   4.684  1.2910 -0.3801 -0.4862
 9439TIP3   OH249731   0.650   4.550  11.835  0.2088  0.3434 -0.2294
 9439TIP3    H149732   0.632   4.484  11.768  0.5064  0.1355 -0.1091
 9439TIP3    H249733   0.585   4.534  11.903 -1.0063  1.4490 -1.0755
 9440TIP3   OH249734   3.880   5.898   5.342 -0.0965 -0.0327 -0.0273
 9440TIP3    H149735   3.874   5.861   5.430 -0.6068 -0.5757 -0.2806
 9440TIP3    H249736   3.969   5.880   5.314  0.5321  1.3880  0.9013
 9441TIP3   OH249737   4.794   3.051   3.364 -0.0525  0.6690  0.6686
 9441TIP3    H149738   4.878   3.073   3.324 -0.3516  1.1364  0.2879
 9441TIP3    H249739   4.764   3.134   3.403 -0.7378  0.7109  0.0566
 9442TIP3   OH249740   2.970   0.381  14.565 -0.2067  0.4720 -0.6485
 9442TIP3    H149741   2.978   0.459  14.619  0.7008  1.0495 -1.5801
 9442TIP3    H249742   3.026   0.398  14.489  0.4332 -1.3032 -0.6142
 9443TIP3   OH249743   2.413   0.318   0.180 -0.2075  0.4046  0.4266
 9443TIP3    H149744   2.320   0.296   0.186 -0.2494  0.4110 -0.1893
 9443TIP3    H249745   2.431   0.324   0.086  0.0195  2.1519  0.5492
 9444TIP3   OH249746   6.661   4.392  15.134 -1.0729 -0.3088  0.3495
 9444TIP3    H149747   6.577   4.435  15.151 -1.4021 -1.2806  1.2195
 9444TIP3    H249748   6.725   4.463  15.140 -1.4599 -0.1046  3.0038
 9445TIP3   OH249749   5.403   0.328  13.143  0.0953 -0.2835 -0.0064
 9445TIP3    H149750   5.341   0.331  13.215  0.1836  3.3469  0.1113
 9445TIP3    H249751   5.361   0.378  13.073  1.5291 -0.5413 -1.0975
 9446TIP3   OH249752   0.603   0.510   2.809  0.1947 -0.1170  0.2384
 9446TIP3    H149753   0.686   0.466   2.792 -0.8001 -1.9794 -0.0124
 9446TIP3    H249754   0.558   0.510   2.725 -0.0972  0.8362  0.3843
 9447TIP3   OH249755   5.944   3.937   1.261  0.3676 -0.2015 -0.7678
 9447TIP3    H149756   6.038   3.920   1.264  0.4318  0.2229  1.0268
 9447TIP3    H249757   5.913   3.917   1.349 -1.6681 -2.5022 -1.8919
 9448TIP3   OH249758   5.537   4.587   0.169  0.2520  0.3063  0.2500
 9448TIP3    H149759   5.558   4.522   0.235  1.2510 -1.1549 -1.4258
 9448TIP3    H249760   5.443   4.575   0.152  0.1244  0.2924  0.9311
 9449TIP3   OH249761   2.595   1.373  17.089 -0.2339  0.2585  0.1467
 9449TIP3    H149762   2.500   1.376  17.096 -0.1963 -0.6638  1.4658
 9449TIP3    H249763   2.619   1.453  17.043 -1.6967  0.1145 -0.9200
 9450TIP3   OH249764   4.601   2.830  17.050 -0.1611  0.0632  0.4361
 9450TIP3    H149765   4.677   2.779  17.074 -0.5173 -0.1410  1.1616
 9450TIP3    H249766   4.625   2.921  17.070  1.2448  0.5123 -2.7736
 9451TIP3   OH249767   0.935   5.946  15.311  0.1772  0.0942 -0.1347
 9451TIP3    H149768   1.005   5.905  15.261  0.7539  0.2637  0.5091
 9451TIP3    H249769   0.914   6.026  15.262 -0.7521 -0.7970 -1.2345
 9452TIP3   OH249770   3.749   5.481   3.889 -0.1014 -0.5610  0.2059
 9452TIP3    H149771   3.772   5.520   3.805  0.6254 -3.0543 -0.8651
 9452TIP3    H249772   3.661   5.513   3.907  0.4749  1.5706 -0.4924
 9453TIP3   OH249773   0.212   6.093   1.125  0.0921  0.5795 -0.2172
 9453TIP3    H149774   0.187   6.036   1.197 -1.5821  2.0290  0.4152
 9453TIP3    H249775   0.141   6.084   1.061  0.5261  0.8759 -0.7520
 9454TIP3   OH249776   5.693   3.136   4.806 -0.5540  0.1617  0.1826
 9454TIP3    H149777   5.692   3.053   4.760  1.0404 -0.2766  0.8649
 9454TIP3    H249778   5.694   3.202   4.736  0.5917 -0.4638 -0.4283
 9455TIP3   OH249779   4.192   2.894  13.193  0.4206 -0.1660 -0.3670
 9455TIP3    H149780   4.105   2.856  13.202 -0.4051  1.5042 -1.0256
 9455TIP3    H249781   4.251   2.826  13.228 -0.9875 -1.8825 -1.1785
 9456TIP3   OH249782   0.613   4.770   1.618  0.4260  0.0006  0.7073
 9456TIP3    H149783   0.570   4.738   1.698  3.9025  1.0285  3.2262
 9456TIP3    H249784   0.667   4.698   1.589 -0.3106 -0.1295 -0.4066
 9457TIP3   OH249785   0.323   3.647   5.816  0.3047  0.5731 -0.2018
 9457TIP3    H149786   0.301   3.562   5.854  3.0568 -0.0958  0.1375
 9457TIP3    H249787   0.334   3.629   5.723 -1.0241  1.0276 -0.4693
 9458TIP3   OH249788   3.410   2.945  11.790 -0.2436  0.1491 -0.1141
 9458TIP3    H149789   3.410   2.858  11.751 -0.0311 -0.1960  0.6446
 9458TIP3    H249790   3.463   2.998  11.730 -3.1035  0.6415 -2.4300
 9459TIP3   OH249791   6.359   4.025  12.508  0.1047  0.1593  0.0024
 9459TIP3    H149792   6.356   4.121  12.506  0.0498  0.1554 -0.1263
 9459TIP3    H249793   6.420   4.004  12.578 -0.1922  0.2858  0.2991
 9460TIP3   OH249794   0.844   4.077  11.008 -0.5398 -0.1700 -0.0727
 9460TIP3    H149795   0.824   3.985  11.022 -2.7137  0.1379 -0.7377
 9460TIP3    H249796   0.814   4.095  10.918 -2.5942  1.7203  0.8806
 9461TIP3   OH249797   4.561   4.735  16.769 -0.0783 -0.3022 -0.0772
 9461TIP3    H149798   4.522   4.719  16.683 -3.0281  2.1243  0.6192
 9461TIP3    H249799   4.654   4.744  16.751 -0.7257  1.7390 -3.3684
 9462TIP3   OH249800   1.471   4.409  11.801 -0.3473  0.3050  0.1701
 9462TIP3    H149801   1.541   4.386  11.861  0.5345  0.2919 -0.8324
 9462TIP3    H249802   1.471   4.339  11.735 -0.6917  0.7860 -0.3537
 9463TIP3   OH249803   3.011   0.151  13.277 -0.0786 -0.0819  0.1570
 9463TIP3    H149804   3.103   0.129  13.289 -0.0027  0.2505  0.1859
 9463TIP3    H249805   2.998   0.230  13.329 -0.6258 -0.6904  0.9609
 9464TIP3   OH249806   4.640   0.212  15.428 -0.1962 -0.0183 -0.0432
 9464TIP3    H149807   4.566   0.206  15.488 -1.4077  0.8180 -1.3751
 9464TIP3    H249808   4.648   0.306  15.411 -0.2063 -0.2685 -1.5345
 9465TIP3   OH249809   6.652   5.560  13.800 -0.3376 -0.6231  0.2905
 9465TIP3    H149810   6.735   5.528  13.834 -1.1228 -2.3428  0.7151
 9465TIP3    H249811   6.676   5.616  13.727  1.2064 -0.7273  0.6783
 9466TIP3   OH249812   3.400   3.233   0.970 -0.2754 -0.5061 -0.3963
 9466TIP3    H149813   3.417   3.197   0.883  0.5364  0.7502 -0.7826
 9466TIP3    H249814   3.323   3.288   0.958  0.1332  0.0589 -0.4358
 9467TIP3   OH249815   6.073   0.314  17.035  0.2682  0.2975 -0.0958
 9467TIP3    H149816   6.042   0.228  17.006 -1.7888  1.1110 -0.4653
 9467TIP3    H249817   6.042   0.322  17.125  0.0023  0.8613 -0.2356
 9468TIP3   OH249818   5.571   3.459  14.369 -0.6412 -0.1484  0.2825
 9468TIP3    H149819   5.595   3.479  14.278 -0.8356 -1.6177 -0.1290
 9468TIP3    H249820   5.475   3.464  14.370 -0.5970  0.6915  0.6263
 9469TIP3   OH249821   5.561   5.824   5.221  0.5158  0.1714  0.3728
 9469TIP3    H149822   5.536   5.897   5.163 -2.6113 -1.0401 -0.0194
 9469TIP3    H249823   5.547   5.746   5.168  1.3840 -0.8310  1.5655
 9470TIP3   OH249824   4.544   0.475   0.388 -0.2015 -0.3679  0.3078
 9470TIP3    H149825   4.636   0.453   0.405 -0.3799  0.0650  1.9420
 9470TIP3    H249826   4.545   0.570   0.373 -0.3617 -0.4006  0.0769
 9471TIP3   OH249827   4.567   3.626   4.126  0.9062 -0.1400 -0.1418
 9471TIP3    H149828   4.499   3.672   4.077  0.2193 -1.6121 -0.6250
 9471TIP3    H249829   4.602   3.562   4.064  2.0180 -0.1150  0.4294
 9472TIP3   OH249830   6.210   2.044   2.548  0.8110 -0.1861  0.1605
 9472TIP3    H149831   6.141   2.100   2.586  1.8571  1.5187 -0.3285
 9472TIP3    H249832   6.273   2.032   2.619 -0.7197 -3.2434  1.1872
 9473TIP3   OH249833   3.768   0.673   3.389  0.0711  0.3576 -0.1425
 9473TIP3    H149834   3.757   0.762   3.356 -0.8719  0.6945  1.0320
 9473TIP3    H249835   3.714   0.619   3.331 -1.5197  0.9331  0.7496
 9474TIP3   OH249836   2.593   2.195  15.293 -0.3400  0.6863  0.6284
 9474TIP3    H149837   2.503   2.209  15.264 -0.2598 -0.1258 -0.0477
 9474TIP3    H249838   2.585   2.157  15.380 -0.6343  1.1279  0.7963
 9475TIP3   OH249839   5.465   6.493  12.416 -1.1978  0.1415 -0.0409
 9475TIP3    H149840   5.459   6.527  12.505  0.4182  0.4097 -0.0018
 9475TIP3    H249841   5.552   6.452  12.412 -1.9403 -1.4468 -0.9588
 9476TIP3   OH249842   3.882   1.677   3.481 -0.0522  0.0498  0.2499
 9476TIP3    H149843   3.883   1.736   3.556 -2.8971 -0.4935  0.8358
 9476TIP3    H249844   3.833   1.723   3.414 -0.5166 -0.8190 -0.0231
 9477TIP3   OH249845   0.332   4.646   1.007  0.1158 -0.1083 -0.2987
 9477TIP3    H149846   0.302   4.598   0.929  0.5307 -0.9306  0.0331
 9477TIP3    H249847   0.265   4.627   1.073  1.3937 -2.1030  0.5004
 9478TIP3   OH249848   0.206   0.821  14.578  0.4303 -0.8069 -0.0424
 9478TIP3    H149849   0.158   0.745  14.546  1.6034 -0.8650 -1.7833
 9478TIP3    H249850   0.254   0.853  14.501 -0.5390  2.0942  0.4375
 9479TIP3   OH249851   1.034   4.881  12.303 -0.2628  0.2107 -0.1175
 9479TIP3    H149852   1.034   4.790  12.333  0.3105  0.4441  0.6214
 9479TIP3    H249853   1.076   4.929  12.374 -2.4483  1.3708  0.4744
 9480TIP3   OH249854   2.204   1.717   5.249  0.8401  0.5105 -0.4802
 9480TIP3    H149855   2.254   1.789   5.212  0.8711  0.0393 -1.3817
 9480TIP3    H249856   2.268   1.646   5.258  0.6489  0.3617 -0.2846
 9481TIP3   OH249857   5.901   1.116  11.376 -0.4737  0.1391  0.2614
 9481TIP3    H149858   5.962   1.177  11.335 -0.5052  0.1734  0.2661
 9481TIP3    H249859   5.882   1.052  11.308  0.9621 -0.9005  0.7829
 9482TIP3   OH249860   4.219   4.412   3.891 -0.2926  0.3329  0.0832
 9482TIP3    H149861   4.233   4.342   3.954  1.8539  0.6056 -0.0389
 9482TIP3    H249862   4.185   4.485   3.943 -0.6173 -0.1340  0.5365
 9483TIP3   OH249863   0.528   0.225   4.439 -0.3479  0.0518 -0.0890
 9483TIP3    H149864   0.492   0.165   4.504 -3.3360 -0.4767 -2.0645
 9483TIP3    H249865   0.467   0.300   4.439  1.9438  2.0634  0.5876
 9484TIP3   OH249866   1.654   2.467  12.781 -0.4060  0.0492  0.8805
 9484TIP3    H149867   1.650   2.393  12.841  1.7669 -1.1355 -0.2808
 9484TIP3    H249868   1.647   2.544  12.837 -0.8952 -1.0254  2.3511
 9485TIP3   OH249869   6.475   1.772   4.293  0.4044 -0.4073  0.2731
 9485TIP3    H149870   6.568   1.769   4.269  0.4977  0.9910  0.3650
 9485TIP3    H249871   6.474   1.812   4.380 -0.2878 -0.4912  0.3081
 9486TIP3   OH249872   3.563   4.194  12.631 -0.1127 -0.5571  0.7376
 9486TIP3    H149873   3.657   4.175  12.638 -0.1784 -0.9833  0.4712
 9486TIP3    H249874   3.556   4.248  12.552  0.0605  0.5134  1.4364
 9487TIP3   OH249875   0.733   2.031   2.407  0.7071 -0.8206  0.5688
 9487TIP3    H149876   0.771   2.027   2.319 -2.2735 -1.3782 -0.8019
 9487TIP3    H249877   0.728   2.124   2.427 -2.4772 -0.3061 -1.8195
 9488TIP3   OH249878   3.289   0.167  16.899 -0.2091  0.5302  0.0200
 9488TIP3    H149879   3.263   0.259  16.906  2.5105  1.2805  1.6219
 9488TIP3    H249880   3.279   0.133  16.988  0.8460 -0.0948 -0.0937
 9489TIP3   OH249881   2.678   5.785  14.548  0.3919  0.0813  0.1579
 9489TIP3    H149882   2.737   5.840  14.495 -0.8809  1.4849  0.1518
 9489TIP3    H249883   2.721   5.781  14.633 -0.1008  2.1979  0.5544
 9490TIP3   OH249884   5.734   1.738  16.483 -0.1514  0.4023  0.6920
 9490TIP3    H149885   5.698   1.806  16.425 -1.0319  0.1608  0.9453
 9490TIP3    H249886   5.658   1.684  16.505  0.4729 -0.4226  0.8217
 9491TIP3   OH249887   2.017   1.692  14.717  0.5393 -0.6253 -0.4431
 9491TIP3    H149888   1.933   1.735  14.704  0.1303 -1.3991 -0.4438
 9491TIP3    H249889   2.072   1.759  14.758  0.3458  0.3069 -1.6602
 9492TIP3   OH249890   4.421   1.940   1.339 -0.4888 -0.0707 -0.6660
 9492TIP3    H149891   4.460   1.991   1.268 -1.2372  1.4006 -0.0844
 9492TIP3    H249892   4.379   2.006   1.395 -0.5684 -1.2441  0.7321
 9493TIP3   OH249893   5.050   2.646   4.870 -0.0191  0.2726  0.0485
 9493TIP3    H149894   5.022   2.735   4.893 -1.0758  0.3355 -1.4056
 9493TIP3    H249895   5.140   2.641   4.903  0.2015  2.0053 -0.1861
 9494TIP3   OH249896   2.248   6.078   2.588  0.2024 -0.0156  0.2163
 9494TIP3    H149897   2.188   6.044   2.654  0.4341 -0.7633  0.0549
 9494TIP3    H249898   2.193   6.104   2.515  0.0287 -0.1949  0.2836
 9495TIP3   OH249899   0.165   0.482  14.666  0.0999 -0.0037 -0.1026
 9495TIP3    H149900   0.240   0.539  14.679  1.8523 -1.9704 -1.1170
 9495TIP3    H249901   0.185   0.432  14.587 -1.2108 -2.1939  0.8440
 9496TIP3   OH249902   3.477   5.508   3.171 -0.6214  0.2391 -0.0139
 9496TIP3    H149903   3.382   5.502   3.169 -0.6495  0.2504 -2.7996
 9496TIP3    H249904   3.508   5.435   3.118  0.8667  0.8663 -0.0818
 9497TIP3   OH249905   2.334   4.748  13.057 -0.0252 -0.0010  0.0770
 9497TIP3    H149906   2.400   4.685  13.025  0.4843  0.3608  0.3967
 9497TIP3    H249907   2.286   4.700  13.124 -0.5514 -0.4949 -0.6374
 9498TIP3   OH249908   0.192   5.147  11.537 -0.3850 -0.3867  0.0287
 9498TIP3    H149909   0.226   5.064  11.505 -0.1038 -1.4183  2.7362
 9498TIP3    H249910   0.262   5.182  11.592 -0.0542  2.2580 -1.8560
 9499TIP3   OH249911   3.592   3.349  13.978  0.1558  0.0105 -0.0338
 9499TIP3    H149912   3.514   3.404  13.974  1.1304  1.4312 -0.6114
 9499TIP3    H249913   3.619   3.351  14.069  0.7547  1.3840 -0.2190
 9500TIP3   OH249914   4.971   2.950   2.482 -0.0988 -0.3389  0.1122
 9500TIP3    H149915   4.965   2.954   2.577 -0.3982  0.2890  0.0714
 9500TIP3    H249916   5.018   3.030   2.457  0.4695 -0.7658 -0.2326
 9501TIP3   OH249917   2.058   1.991  17.160  0.5905 -0.2794 -0.2141
 9501TIP3    H149918   1.981   2.021  17.209  0.1424 -0.5388 -0.7507
 9501TIP3    H249919   2.022   1.957  17.078  1.1973 -1.2844 -0.0659
 9502TIP3   OH249920   3.664   6.085  11.295 -0.0635  0.2620  0.6801
 9502TIP3    H149921   3.745   6.137  11.293 -0.5438  1.0129  0.2107
 9502TIP3    H249922   3.611   6.127  11.362 -0.2633  0.0839  0.6333
 9503TIP3   OH249923   4.630   1.793   3.110 -0.0705 -0.0516  0.2201
 9503TIP3    H149924   4.588   1.714   3.144  0.3632  0.3185  1.6882
 9503TIP3    H249925   4.642   1.849   3.187  3.1795 -0.1712 -0.0525
 9504TIP3   OH249926   4.972   2.562  11.602  0.4670  0.4828 -0.4724
 9504TIP3    H149927   4.909   2.491  11.587  1.5283 -0.6825  0.4003
 9504TIP3    H249928   4.924   2.625  11.657  0.3033 -0.7935  0.9056
 9505TIP3   OH249929   5.577   5.782  11.008 -0.5683 -0.4209 -0.4710
 9505TIP3    H149930   5.502   5.735  11.044 -0.8255 -0.5917 -1.2085
 9505TIP3    H249931   5.652   5.749  11.058 -0.6947 -1.8935 -1.1955
 9506TIP3   OH249932   4.446   4.285   4.088 -0.3387  0.2947  0.2383
 9506TIP3    H149933   4.368   4.318   4.133  2.1946 -0.0881  5.6614
 9506TIP3    H249934   4.477   4.359   4.037 -1.5948  2.1542  1.9885
 9507TIP3   OH249935   4.626   2.115  12.105 -0.3844 -0.1803  0.1674
 9507TIP3    H149936   4.602   2.048  12.041  0.5546 -0.3450 -0.0278
 9507TIP3    H249937   4.639   2.067  12.187 -1.3822  0.0024  0.4430
 9508TIP3   OH249938   1.175   2.792   0.456 -0.6996 -0.2079  0.2832
 9508TIP3    H149939   1.262   2.813   0.490 -1.1602 -1.2031  2.2117
 9508TIP3    H249940   1.119   2.789   0.533 -2.2013 -0.8076 -0.7800
 9509TIP3   OH249941   0.667   1.995   2.716 -0.3279  0.0489 -0.0267
 9509TIP3    H149942   0.729   2.061   2.748  1.4069 -2.1058  1.3540
 9509TIP3    H249943   0.588   2.008   2.769  0.3520  0.3943  0.9333
 9510TIP3   OH249944   1.159   5.546   0.200 -0.1374  0.1979 -0.0480
 9510TIP3    H149945   1.166   5.612   0.269 -0.5427 -1.0995  1.2841
 9510TIP3    H249946   1.065   5.536   0.186 -0.1243 -0.8343  0.5226
 9511TIP3   OH249947   2.278   1.176   1.918  0.3622  0.0409 -0.5360
 9511TIP3    H149948   2.316   1.132   1.994 -0.1466 -1.2897 -1.0235
 9511TIP3    H249949   2.344   1.169   1.850  0.3744  0.2471 -0.5460
 9512TIP3   OH249950   1.640   0.752  16.029 -0.3214  0.3011  0.6001
 9512TIP3    H149951   1.677   0.825  15.979 -0.7025 -1.5631 -2.6517
 9512TIP3    H249952   1.569   0.719  15.975  2.2461 -4.8958 -0.2463
 9513TIP3   OH249953   5.883   2.767  16.179 -0.1021 -0.0985  0.2664
 9513TIP3    H149954   5.978   2.774  16.170  0.0742 -1.2776  0.9453
 9513TIP3    H249955   5.858   2.843  16.231  0.5006  0.1193  0.2469
 9514TIP3   OH249956   4.870   2.348   0.493 -0.1195 -0.1690  0.1124
 9514TIP3    H149957   4.959   2.363   0.523 -0.2437  0.5479  0.1392
 9514TIP3    H249958   4.818   2.417   0.536 -0.7267 -0.7257  0.3002
 9515TIP3   OH249959   4.193   1.576  15.928 -0.3394  0.0085 -0.3238
 9515TIP3    H149960   4.107   1.590  15.969  0.0550 -1.8459  1.2502
 9515TIP3    H249961   4.229   1.664  15.918 -1.2349  0.6568  1.6692
 9516TIP3   OH249962   5.680   4.711  14.486 -0.1041  0.2938 -0.3913
 9516TIP3    H149963   5.594   4.673  14.467  0.5119 -1.8104  0.6583
 9516TIP3    H249964   5.675   4.801  14.452 -2.0750 -0.3332 -1.9937
 9517TIP3   OH249965   3.624   2.728   4.436 -0.0233  0.2586  0.1858
 9517TIP3    H149966   3.595   2.765   4.520  1.0390  1.5208  0.0283
 9517TIP3    H249967   3.543   2.704   4.392 -0.6950  1.2244  0.8463
 9518TIP3   OH249968   1.367   0.997   0.766 -0.1342 -0.2359 -0.4465
 9518TIP3    H149969   1.451   0.971   0.805 -0.9223  0.5276  1.9195
 9518TIP3    H249970   1.318   0.915   0.758 -1.3385 -0.1859  3.8375
 9519TIP3   OH249971   0.966   2.486  11.205 -0.6203  0.3796  0.1937
 9519TIP3    H149972   0.981   2.541  11.128 -1.2328  0.2462 -0.0251
 9519TIP3    H249973   0.934   2.403  11.169  2.0753 -0.8339  0.3771
 9520TIP3   OH249974   4.014   5.454   4.111 -0.0691  0.2760  0.2512
 9520TIP3    H149975   3.926   5.473   4.144 -1.4504 -0.9451 -2.4067
 9520TIP3    H249976   4.057   5.539   4.105 -0.7244  0.8126  2.3650
 9521TIP3   OH249977   1.128   3.032   1.048  0.5760  0.3942 -0.1827
 9521TIP3    H149978   1.193   3.027   1.118 -1.2587 -1.1895  1.5295
 9521TIP3    H249979   1.065   3.097   1.079 -1.3228 -1.7462  0.7272
 9522TIP3   OH249980   4.108   5.428  12.661  0.3529 -0.3114  0.4168
 9522TIP3    H149981   4.197   5.456  12.639 -0.2346  0.2787 -1.3756
 9522TIP3    H249982   4.067   5.411  12.577 -1.3435 -0.2629  1.1967
 9523TIP3   OH249983   5.666   4.018  14.353  0.3912  0.3449 -0.0297
 9523TIP3    H149984   5.627   4.104  14.372 -1.0265  0.2105 -2.0165
 9523TIP3    H249985   5.705   3.991  14.436 -0.4811  2.2160  1.0642
 9524TIP3   OH249986   2.934   4.442   2.153 -0.2464  0.4149  0.1221
 9524TIP3    H149987   2.848   4.482   2.145  0.1410  0.9108 -2.2836
 9524TIP3    H249988   2.995   4.511   2.128  0.5977 -0.9049 -1.6277
 9525TIP3   OH249989   3.826   4.070  12.782  0.0845 -0.3846  0.1838
 9525TIP3    H149990   3.820   3.988  12.734  0.3857  1.7008 -3.8486
 9525TIP3    H249991   3.918   4.077  12.808 -0.3902 -2.2819  2.8392
 9526TIP3   OH249992   1.013   2.315  16.587 -0.1448  0.1634 -0.0056
 9526TIP3    H149993   1.018   2.403  16.548  0.4983  1.3820  2.6456
 9526TIP3    H249994   1.081   2.266  16.542 -0.1930  1.1339 -1.2182
 9527TIP3   OH249995   5.635   3.412  11.871 -0.0421  0.2091  0.7140
 9527TIP3    H149996   5.659   3.472  11.942 -1.3442 -1.8674  3.0846
 9527TIP3    H249997   5.579   3.347  11.913 -1.7755 -0.5739 -2.5029
 9528TIP3   OH249998   0.110   5.496  13.924  0.2555  0.3629  0.1488
 9528TIP3    H149999   0.139   5.586  13.937  0.0292  0.8047 -1.9472
 9528TIP3    H250000   0.166   5.444  13.981 -1.4911  1.9922  3.6256
 9529TIP3   OH250001   3.679   1.171  11.441 -0.1162 -0.2465  0.4015
 9529TIP3    H150002   3.764   1.180  11.399 -1.2214 -1.6012 -2.4033
 9529TIP3    H250003   3.663   1.077  11.445 -1.3170 -0.0413  1.2693
 9530TIP3   OH250004   1.641   2.963  10.982  0.3748 -0.1378 -0.2959
 9530TIP3    H150005   1.690   2.988  10.904 -1.0739  1.3038 -0.8028
 9530TIP3    H250006   1.644   2.867  10.983 -0.5796 -0.2661 -2.8152
 9531TIP3   OH250007   2.462   1.074   3.571 -0.3593  0.1970 -0.0847
 9531TIP3    H150008   2.541   1.042   3.527 -0.0398  1.1263 -0.2109
 9531TIP3    H250009   2.495   1.122   3.647 -0.8652 -0.4342  0.5541
 9532TIP3   OH250010   4.997   3.786  14.333 -0.1085 -0.1777  0.4227
 9532TIP3    H150011   4.932   3.854  14.350 -1.9248 -1.7821  0.1304
 9532TIP3    H250012   5.059   3.827  14.273 -1.1865  1.2029  0.2033
 9533TIP3   OH250013   2.117   2.198   1.779 -0.4204  0.5512 -0.1178
 9533TIP3    H150014   2.111   2.202   1.683 -1.3218  0.3875 -0.0720
 9533TIP3    H250015   2.179   2.267   1.802  1.9017 -1.0901 -1.0143
 9534TIP3   OH250016   4.634   5.911   0.822 -0.1188 -0.1450  0.2736
 9534TIP3    H150017   4.679   5.965   0.757  0.2969  0.2371  0.8643
 9534TIP3    H250018   4.680   5.930   0.904  0.4305 -1.8615  0.3847
 9535TIP3   OH250019   6.185   4.179   4.676  0.5611 -0.1039 -0.4051
 9535TIP3    H150020   6.112   4.173   4.737  0.6455 -1.0338 -0.3857
 9535TIP3    H250021   6.251   4.230   4.724  0.6181 -0.8060  0.2818
 9536TIP3   OH250022   6.790   3.425  11.240  0.0794 -0.1316 -0.0001
 9536TIP3    H150023   6.808   3.427  11.334  0.0014 -1.1640  0.0457
 9536TIP3    H250024   6.750   3.510  11.222  1.2877  0.6053  0.6429
 9537TIP3   OH250025   0.734   5.103  11.167  0.4175  0.0191 -0.6171
 9537TIP3    H150026   0.760   5.190  11.138 -1.1522  0.6059 -0.4095
 9537TIP3    H250027   0.668   5.120  11.235  0.6909 -1.3364  0.0271
 9538TIP3   OH250028   3.398   1.748  15.113  0.3121  0.2193  0.2925
 9538TIP3    H150029   3.478   1.713  15.153 -0.4160 -0.1026  1.5294
 9538TIP3    H250030   3.408   1.730  15.020  0.3263 -2.6860  0.7621
 9539TIP3   OH250031   0.764   0.117  12.460  0.0383  0.4600 -0.4065
 9539TIP3    H150032   0.684   0.066  12.448  0.9440 -1.0660 -0.1531
 9539TIP3    H250033   0.740   0.185  12.523 -0.8602 -0.4756  0.2860
 9540TIP3   OH250034   0.478   0.170  11.335 -0.2930  0.2730 -0.0649
 9540TIP3    H150035   0.456   0.147  11.425 -1.6358 -1.7350 -0.8406
 9540TIP3    H250036   0.398   0.211  11.301  0.3595  1.4515 -0.2443
 9541TIP3   OH250037   3.903   4.606   3.962 -0.1336 -0.2393 -0.5351
 9541TIP3    H150038   3.823   4.648   3.995 -1.7941 -2.0745 -1.9927
 9541TIP3    H250039   3.906   4.629   3.869  1.8708  0.9509 -0.2370
 9542TIP3   OH250040   1.530   1.295  12.937  0.0412  0.1930  0.0878
 9542TIP3    H150041   1.623   1.274  12.937 -0.4666 -2.4275 -1.1004
 9542TIP3    H250042   1.527   1.391  12.936  2.6746  0.3548  0.8020
 9543TIP3   OH250043   6.068   2.154   5.537 -0.3658  0.8594 -0.3118
 9543TIP3    H150044   6.147   2.193   5.574 -0.2271  0.0125  0.3051
 9543TIP3    H250045   6.096   2.071   5.499 -1.0484  0.2562  0.4589
 9544TIP3   OH250046   6.780   2.498  16.488  0.0383  0.1423  0.2723
 9544TIP3    H150047   6.807   2.430  16.549  0.7129  0.4283  0.3059
 9544TIP3    H250048   6.754   2.451  16.409  1.1115 -0.1422  0.0645
 9545TIP3   OH250049   0.678   5.299   0.946  0.1412 -0.3785  0.5085
 9545TIP3    H150050   0.751   5.293   1.008  0.1589 -0.2357  0.5024
 9545TIP3    H250051   0.600   5.278   0.998  0.2467 -1.1320  0.3798
 9546TIP3   OH250052   2.383   5.820  15.306  0.0876  0.6588 -0.2941
 9546TIP3    H150053   2.299   5.822  15.353  1.0931 -2.4327  1.9619
 9546TIP3    H250054   2.444   5.864  15.364  0.7644 -0.5539 -0.0608
 9547TIP3   OH250055   5.748   3.308  13.546  0.7452  0.0903  0.0396
 9547TIP3    H150056   5.772   3.371  13.615 -0.7917  1.1371 -0.3511
 9547TIP3    H250057   5.788   3.342  13.467  1.4661 -0.4502  0.1559
 9548TIP3   OH250058   1.668   4.609   3.280 -0.2460 -0.5048 -0.4650
 9548TIP3    H150059   1.661   4.519   3.313  0.7308  0.0175  1.2898
 9548TIP3    H250060   1.611   4.611   3.203  1.2963 -3.1678 -1.7785
 9549TIP3   OH250061   5.350   0.455   3.614 -0.0483  0.0238 -0.2745
 9549TIP3    H150062   5.426   0.400   3.597 -0.5633 -1.1772  1.1726
 9549TIP3    H250063   5.367   0.494   3.700 -1.0340 -0.2306  0.0476
 9550TIP3   OH250064   6.414   5.306  13.878 -0.2061  0.3676 -0.1875
 9550TIP3    H150065   6.342   5.258  13.921  0.3858 -0.0876  0.3086
 9550TIP3    H250066   6.466   5.340  13.950 -1.2761  2.8520 -0.5010
 9551TIP3   OH250067   5.176   4.764  12.762  0.2591  0.2599  0.1367
 9551TIP3    H150068   5.098   4.719  12.796  0.5973 -2.1641 -1.9165
 9551TIP3    H250069   5.158   4.857  12.774 -2.1408 -0.2870  1.3763
 9552TIP3   OH250070   1.663   4.033   1.588  0.4387  0.2877  0.4294
 9552TIP3    H150071   1.706   3.974   1.526 -0.7449  0.7894 -0.9288
 9552TIP3    H250072   1.729   4.050   1.655  1.2733 -1.4555  0.1176
 9553TIP3   OH250073   5.916   1.426  12.400  0.1950 -0.0290  0.1728
 9553TIP3    H150074   5.826   1.456  12.411  0.8215  2.1169 -0.0432
 9553TIP3    H250075   5.928   1.361  12.469 -1.2789  0.1984  0.6871
 9554TIP3   OH250076   4.695   2.660   0.332 -0.4223  0.3528  0.4007
 9554TIP3    H150077   4.614   2.677   0.285  0.0246  0.9702 -0.1757
 9554TIP3    H250078   4.699   2.727   0.400 -1.1199 -0.6031  1.4257
 9555TIP3   OH250079   1.487   5.041  12.802  0.0419 -0.0572  0.0542
 9555TIP3    H150080   1.567   5.084  12.832  0.2232 -0.0500 -0.4261
 9555TIP3    H250081   1.472   4.971  12.864 -1.4409  1.9659  2.1507
 9556TIP3   OH250082   0.329   6.141  13.939 -0.0791 -0.0189 -0.4788
 9556TIP3    H150083   0.365   6.060  13.975  1.8617  1.2275  0.5239
 9556TIP3    H250084   0.276   6.112  13.864  0.8417 -2.1777 -0.3716
 9557TIP3   OH250085   6.554   5.513  10.583 -0.3720 -0.4422 -0.1965
 9557TIP3    H150086   6.646   5.486  10.590 -0.3741 -0.0144  1.7984
 9557TIP3    H250087   6.558   5.604  10.553 -0.2242 -0.8369 -1.4645
 9558TIP3   OH250088   1.908   6.144  13.952  0.3642 -0.0231  0.4304
 9558TIP3    H150089   1.964   6.079  13.909  1.0653  2.0390 -1.9967
 9558TIP3    H250090   1.954   6.227  13.940 -3.0400  1.7935 -1.5771
 9559TIP3   OH250091   1.321   4.285   2.279 -0.4035 -0.2211 -0.0715
 9559TIP3    H150092   1.290   4.328   2.359  0.6479  0.2545  0.0946
 9559TIP3    H250093   1.308   4.191   2.297 -2.0159 -0.0439 -0.1514
 9560TIP3   OH250094   1.509   5.691   4.798 -0.0557  0.2484 -0.3327
 9560TIP3    H150095   1.424   5.678   4.839  0.8216  0.6744  1.7585
 9560TIP3    H250096   1.498   5.661   4.708 -2.4503  0.4975 -0.1697
 9561TIP3   OH250097   2.863   2.665   0.821  0.0583 -0.2655 -0.7154
 9561TIP3    H150098   2.944   2.698   0.860  0.4299 -2.4403  0.4826
 9561TIP3    H250099   2.844   2.727   0.751  1.2843  1.8099  0.6721
 9562TIP3   OH250100   0.966   5.441   5.128 -0.1048 -0.4239  0.2112
 9562TIP3    H150101   0.878   5.460   5.096 -0.8355 -1.6129  1.4293
 9562TIP3    H250102   0.999   5.373   5.069 -0.1598 -0.2746  0.0073
 9563TIP3   OH250103   6.375   2.765  12.168  0.4664  0.0307 -0.1977
 9563TIP3    H150104   6.304   2.711  12.134  0.2678  0.7539 -0.9588
 9563TIP3    H250105   6.425   2.791  12.090  1.9224 -0.9312  0.3526
 9564TIP3   OH250106   4.804   0.702   4.433  0.4664  0.1527 -0.8442
 9564TIP3    H150107   4.880   0.643   4.431  0.4758  0.1231  0.2755
 9564TIP3    H250108   4.749   0.672   4.360  0.8113 -0.7748 -0.7340
 9565TIP3   OH250109   5.809   1.688  13.690 -0.1608 -0.0893  0.0533
 9565TIP3    H150110   5.797   1.687  13.785 -0.2999 -0.4569  0.0311
 9565TIP3    H250111   5.877   1.754  13.676 -0.3565  0.1844  0.3815
 9566TIP3   OH250112   4.674   3.810   3.559  0.1729 -0.2418 -0.0364
 9566TIP3    H150113   4.719   3.775   3.636  2.8801 -1.0077 -1.7983
 9566TIP3    H250114   4.603   3.864   3.594  1.3123 -0.5086  2.9469
 9567TIP3   OH250115   4.665   4.793  15.529 -0.2587 -0.2468 -0.3318
 9567TIP3    H150116   4.752   4.768  15.500 -0.1656 -0.3139  0.0066
 9567TIP3    H250117   4.615   4.805  15.447  0.1985  0.2862 -0.5427
 9568TIP3   OH250118   0.748   1.753   4.540 -0.1223  0.2128 -0.0034
 9568TIP3    H150119   0.790   1.782   4.459  2.7282 -1.6084  0.6737
 9568TIP3    H250120   0.667   1.710   4.512 -1.0374  2.7038 -1.5052
 9569TIP3   OH250121   1.081   5.050  14.174  0.0570 -0.2593 -0.9397
 9569TIP3    H150122   1.158   5.104  14.194 -0.9932  0.6864  0.8938
 9569TIP3    H250123   1.069   4.997  14.253 -0.8841 -0.7431 -1.4026
 9570TIP3   OH250124   4.733   0.619   5.323 -0.6055  0.3065 -0.2931
 9570TIP3    H150125   4.799   0.616   5.254 -0.6336  1.5364 -0.3945
 9570TIP3    H250126   4.666   0.557   5.295  0.9866 -1.8520  0.3749
 9571TIP3   OH250127   6.758   3.406   3.962 -0.0104  0.2232  0.0775
 9571TIP3    H150128   6.693   3.469   3.931 -0.2745 -0.0672  0.0366
 9571TIP3    H250129   6.712   3.322   3.960  0.6609 -0.1393 -0.8881
 9572TIP3   OH250130   3.459   1.270  16.922  0.2181 -0.1562 -0.7037
 9572TIP3    H150131   3.411   1.214  16.861 -0.5446 -0.1589 -0.1134
 9572TIP3    H250132   3.497   1.209  16.986  0.2075 -0.0817 -0.6250
 9573TIP3   OH250133   2.364   0.743  13.060 -0.5720  0.0447  0.2410
 9573TIP3    H150134   2.422   0.670  13.083 -0.0915  0.3433 -0.0331
 9573TIP3    H250135   2.395   0.816  13.114 -1.8942 -0.2913  1.5290
 9574TIP3   OH250136   0.302   5.246  13.945  0.8932  0.0365 -0.2355
 9574TIP3    H150137   0.379   5.219  13.895 -0.4206 -0.5292 -2.0454
 9574TIP3    H250138   0.228   5.225  13.889 -0.7499 -1.2827  2.2167
 9575TIP3   OH250139   4.439   0.633   5.116 -0.3795  0.0097 -0.2562
 9575TIP3    H150140   4.448   0.638   5.021  0.5845 -1.3866 -0.2675
 9575TIP3    H250141   4.345   0.626   5.132 -0.6642  1.6881 -0.9987
 9576TIP3   OH250142   4.704   1.577   3.898 -0.4898  0.3315  0.2407
 9576TIP3    H150143   4.651   1.601   3.821 -0.9584  0.1905  0.5145
 9576TIP3    H250144   4.760   1.506   3.866 -1.6660 -0.7106  0.3659
 9577TIP3   OH250145   5.576   5.254   5.501  0.2394 -0.2307  0.0845
 9577TIP3    H150146   5.607   5.199   5.573 -1.3655 -0.8338  0.3710
 9577TIP3    H250147   5.481   5.258   5.513  0.2447  2.4234 -0.0786
 9578TIP3   OH250148   0.042   4.241   1.140 -0.0252  0.4529 -0.0795
 9578TIP3    H150149   0.066   4.278   1.225  0.9791  0.1479 -0.2162
 9578TIP3    H250150  -0.053   4.229   1.145  0.3162 -2.4181  2.1777
 9579TIP3   OH250151   1.095   1.634  16.017  0.3757 -0.2734  0.1022
 9579TIP3    H150152   1.028   1.650  15.951  0.3393 -0.4809  0.0906
 9579TIP3    H250153   1.047   1.626  16.099  0.3901 -0.3730  0.1011
 9580TIP3   OH250154   1.598   1.378  10.852  0.1478 -0.1241 -1.0208
 9580TIP3    H150155   1.626   1.438  10.783 -1.5141 -1.1832 -2.7199
 9580TIP3    H250156   1.651   1.300  10.839  0.9560  0.2477 -0.0434
 9581TIP3   OH250157   4.834   2.074   5.028  0.1869 -0.3681  0.0123
 9581TIP3    H150158   4.825   1.999   4.971  2.7405 -1.7320  1.2136
 9581TIP3    H250159   4.870   2.143   4.972 -0.3713 -0.6212 -0.6757
 9582TIP3   OH250160   2.909   5.637   3.094  1.0689  0.1569 -0.0395
 9582TIP3    H150161   2.958   5.623   3.175  0.4895  1.7815  0.6323
 9582TIP3    H250162   2.951   5.714   3.055 -0.2008  0.8797 -0.0259
 9583TIP3   OH250163   6.381   2.717   4.981  0.3994  0.4557 -0.1148
 9583TIP3    H150164   6.430   2.799   4.970 -0.7103  1.0863 -0.5838
 9583TIP3    H250165   6.355   2.717   5.073  1.6367 -0.1104  0.2539
 9584TIP3   OH250166   3.745   6.721   0.932  0.1437  0.0105 -0.1560
 9584TIP3    H150167   3.740   6.630   0.902 -0.4898  0.1183 -0.4018
 9584TIP3    H250168   3.805   6.764   0.871 -0.2269 -0.0483 -0.5691
 9585TIP3   OH250169   1.407   5.885   0.217 -0.6723  0.1609 -0.2108
 9585TIP3    H150170   1.339   5.840   0.267  2.5740 -1.7077  2.9550
 9585TIP3    H250171   1.448   5.817   0.164 -0.2304  0.9494 -0.9138
 9586TIP3   OH250172   4.587   2.643   0.898  0.0943 -0.0801 -0.3750
 9586TIP3    H150173   4.677   2.674   0.894 -0.0608  0.3019 -0.9270
 9586TIP3    H250174   4.594   2.549   0.881  0.5331 -0.3274  1.0371
 9587TIP3   OH250175   5.684   1.652   3.052 -0.6540  0.3580 -0.2315
 9587TIP3    H150176   5.733   1.617   2.977 -1.9327 -1.1972 -0.3989
 9587TIP3    H250177   5.709   1.745   3.056  1.4475 -0.1262 -0.9414
 9588TIP3   OH250178   6.174   4.172   0.198 -0.0096  0.6034 -0.1767
 9588TIP3    H150179   6.145   4.126   0.119  1.3134  0.0986 -0.3915
 9588TIP3    H250180   6.181   4.103   0.264  0.9584  0.6535 -0.2118
 9589TIP3   OH250181   4.313   1.909   4.534 -0.0081  0.1991  0.0783
 9589TIP3    H150182   4.306   1.906   4.438 -0.8296 -0.0396  0.1436
 9589TIP3    H250183   4.321   2.003   4.554 -0.6106  0.3092 -0.1771
 9590TIP3   OH250184   2.840   6.033   3.420 -0.2039 -0.5131  0.2390
 9590TIP3    H150185   2.906   6.009   3.486  0.0766 -0.4689 -0.0259
 9590TIP3    H250186   2.763   5.979   3.443  0.6279 -2.1895 -0.7372
 9591TIP3   OH250187   3.475   1.053   6.010  0.0180 -0.3094  0.0784
 9591TIP3    H150188   3.473   0.984   5.943  0.5159  0.9845 -1.3049
 9591TIP3    H250189   3.386   1.052   6.046  0.1581 -2.0270  0.5028
 9592TIP3   OH250190   4.136   6.690  15.453 -0.3415 -0.5109 -0.7239
 9592TIP3    H150191   4.141   6.785  15.466  1.0183 -0.5176 -1.1283
 9592TIP3    H250192   4.207   6.654  15.506 -0.6722 -1.2868 -0.7903
 9593TIP3   OH250193   0.801   4.674  13.302 -0.2637  0.6798 -0.3357
 9593TIP3    H150194   0.846   4.699  13.383 -0.1733  1.4596 -0.6167
 9593TIP3    H250195   0.788   4.757  13.255 -0.9320  0.3183 -0.8054
 9594TIP3   OH250196   3.923   5.675  14.871 -0.8092 -0.2737 -0.3062
 9594TIP3    H150197   3.972   5.692  14.951 -0.4007  1.3751 -0.8566
 9594TIP3    H250198   3.952   5.589  14.842 -1.1821 -1.0408  1.4354
 9595TIP3   OH250199   0.522   3.735   6.710  0.2158 -0.1207  0.1098
 9595TIP3    H150200   0.537   3.755   6.803 -0.1473 -2.2400  0.6864
 9595TIP3    H250201   0.610   3.732   6.672  0.3882  0.4723  0.4502
 9596TIP3   OH250202   1.895   5.203  14.727  0.4517 -0.2386  0.1210
 9596TIP3    H150203   1.904   5.251  14.644  2.0561  1.0520  0.9702
 9596TIP3    H250204   1.977   5.220  14.773 -0.4975 -0.6889  2.0914
 9597TIP3   OH250205   0.662   1.345  14.209  0.6660 -0.5867 -0.0920
 9597TIP3    H150206   0.595   1.297  14.161  0.8984 -1.5516  0.5108
 9597TIP3    H250207   0.663   1.305  14.296  1.7106 -0.3060  0.0470
 9598TIP3   OH250208   5.432   2.942   4.962  0.5059 -0.2318 -0.0186
 9598TIP3    H150209   5.469   3.029   4.944 -0.4286 -0.0832 -1.3390
 9598TIP3    H250210   5.395   2.950   5.050 -0.1129  0.9022 -0.3673
 9599TIP3   OH250211   4.416   3.242   0.520  0.2234 -0.2927  0.3454
 9599TIP3    H150212   4.433   3.230   0.427 -0.0896 -0.7147  0.3370
 9599TIP3    H250213   4.414   3.337   0.533 -0.4604 -0.2313 -0.2123
 9600TIP3   OH250214   1.242   4.381  11.959  0.6755  0.9296 -0.0810
 9600TIP3    H150215   1.271   4.296  11.925  0.8769  1.1656 -0.4974
 9600TIP3    H250216   1.278   4.445  11.898  3.5857  1.6126  2.1003
 9601TIP3   OH250217   6.600   0.265   0.882 -0.2746 -0.1495  0.9789
 9601TIP3    H150218   6.580   0.319   0.806  0.7204 -1.9282 -0.6123
 9601TIP3    H250219   6.695   0.268   0.890 -0.0251 -2.7118 -0.0482
 9602TIP3   OH250220   5.598   5.186  15.892  0.1129  0.7906  0.7896
 9602TIP3    H150221   5.584   5.275  15.926  0.5893  0.6755  1.3094
 9602TIP3    H250222   5.693   5.180  15.881  0.0500  0.4617  0.4280
 9603TIP3   OH250223   5.668   3.877  13.067 -0.5933 -0.3822  0.7282
 9603TIP3    H150224   5.702   3.789  13.078 -2.7130 -1.0163  3.0552
 9603TIP3    H250225   5.712   3.929  13.134  0.0553  0.1784 -0.1107
 9604TIP3   OH250226   3.363   0.312   3.946  0.1968 -0.3117  0.2643
 9604TIP3    H150227   3.372   0.407   3.937  0.2108 -0.4398 -1.4727
 9604TIP3    H250228   3.269   0.297   3.948  0.2006 -0.2069  1.3400
 9605TIP3   OH250229   1.137   4.318   5.532  0.2188  0.2965 -0.5110
 9605TIP3    H150230   1.122   4.225   5.548 -0.1610  0.0432 -2.1916
 9605TIP3    H250231   1.061   4.361   5.573  0.9531  0.0021  1.2539
 9606TIP3   OH250232   0.528   4.108   2.040 -0.2751  0.0794 -0.2405
 9606TIP3    H150233   0.499   4.159   2.116 -0.9823 -0.8429  0.1268
 9606TIP3    H250234   0.457   4.117   1.976 -0.1084  0.0845 -0.4269
 9607TIP3   OH250235   5.447   4.157  10.904 -0.0458  0.0700  0.3715
 9607TIP3    H150236   5.483   4.074  10.872  1.4427  0.8823 -0.1705
 9607TIP3    H250237   5.523   4.212  10.918 -0.9557  1.0814  1.5507
 9608TIP3   OH250238   3.590   5.302  16.569 -0.1447  0.5776  0.1956
 9608TIP3    H150239   3.545   5.245  16.507  0.5802  0.3726 -0.1512
 9608TIP3    H250240   3.530   5.375  16.583 -0.6480  0.2347 -0.1381
 9609TIP3   OH250241   5.484   1.080  14.518 -0.4139 -0.6764 -0.4745
 9609TIP3    H150242   5.533   1.002  14.491  0.5876 -0.0288 -0.5882
 9609TIP3    H250243   5.505   1.145  14.451  1.8041  0.8606  1.5704
 9610TIP3   OH250244   6.049   6.388   4.259 -0.0146  0.2483  0.1691
 9610TIP3    H150245   6.010   6.302   4.246  0.4198  0.0132  0.4176
 9610TIP3    H250246   6.027   6.436   4.179 -2.3689  0.7368  1.0088
 9611TIP3   OH250247   1.825   6.562   5.532  0.4099 -0.2995  0.1903
 9611TIP3    H150248   1.912   6.562   5.493  0.8170  1.2129  1.0163
 9611TIP3    H250249   1.813   6.473   5.565  1.1106 -0.8695 -1.0336
 9612TIP3   OH250250   6.232   3.611  14.608 -0.0117 -0.1166  0.0377
 9612TIP3    H150251   6.175   3.662  14.665  1.9294  2.4916 -0.1722
 9612TIP3    H250252   6.229   3.658  14.524  1.8104 -0.3545 -0.1912
 9613TIP3   OH250253   1.013   2.485   0.207  0.0863 -0.1090 -0.1205
 9613TIP3    H150254   0.927   2.446   0.196  0.2021  0.0350 -1.7606
 9613TIP3    H250255   0.996   2.577   0.227 -0.1350 -0.1678 -0.0416
 9614TIP3   OH250256   5.685   4.308   5.599  0.3773 -0.3872  0.4841
 9614TIP3    H150257   5.678   4.402   5.586 -0.6621 -0.7684 -2.4095
 9614TIP3    H250258   5.739   4.299   5.678 -0.8273  2.5802  1.8119
 9615TIP3   OH250259   5.234   5.346   1.493 -0.5652  0.5962 -0.2652
 9615TIP3    H150260   5.182   5.369   1.570 -0.9410 -1.4984  0.1619
 9615TIP3    H250261   5.176   5.364   1.419 -1.0798  0.3788  0.0808
 9616TIP3   OH250262   6.618   2.452   5.870  0.0387 -0.5832  0.2866
 9616TIP3    H150263   6.654   2.364   5.878  0.3433 -0.5146 -0.2814
 9616TIP3    H250264   6.693   2.506   5.844 -0.2726 -0.2626  0.0500
 9617TIP3   OH250265   3.583   1.464   6.446  0.4875  0.3193  1.0263
 9617TIP3    H150266   3.590   1.396   6.379 -0.7548  0.7453  0.4586
 9617TIP3    H250267   3.538   1.421   6.519 -2.2152  1.0510 -0.1161
 9618TIP3   OH250268   6.676   2.835   1.270 -0.5554 -0.5505  0.9348
 9618TIP3    H150269   6.730   2.902   1.312  0.7892  0.5404 -2.2352
 9618TIP3    H250270   6.739   2.768   1.242 -1.3282 -1.0601  0.3743
 9619TIP3   OH250271   1.899   2.871   0.183 -0.0613 -0.0308  0.1903
 9619TIP3    H150272   1.983   2.919   0.186 -2.0612  3.8496  2.4991
 9619TIP3    H250273   1.884   2.857   0.090  2.2388  0.9649 -0.4222
 9620TIP3   OH250274   6.048   1.340  17.086  0.0271 -0.3409 -0.3177
 9620TIP3    H150275   6.102   1.261  17.093 -1.2054 -1.0779  1.1741
 9620TIP3    H250276   5.964   1.316  17.122 -0.9064  1.2149 -1.3159
 9621TIP3   OH250277   0.668   6.781  11.863  0.3323  0.1189  0.2234
 9621TIP3    H150278   0.741   6.747  11.811 -0.8836 -1.0197 -0.7904
 9621TIP3    H250279   0.665   6.723  11.939  0.3152 -0.0101  0.1265
 9622TIP3   OH250280   1.564   2.817  13.162 -0.7477 -0.3251 -0.4086
 9622TIP3    H150281   1.592   2.726  13.172  2.8158  0.6727  0.0994
 9622TIP3    H250282   1.560   2.851  13.252 -0.5768  0.3909 -0.6604
 9623TIP3   OH250283   1.301   1.192  11.153 -0.2043 -0.1306 -0.2935
 9623TIP3    H150284   1.301   1.193  11.057 -1.5581 -1.5633 -0.3435
 9623TIP3    H250285   1.371   1.131  11.176  0.6255  0.7846 -0.3260
 9624TIP3   OH250286   6.366   4.658  14.760  0.4034  0.5450  0.1799
 9624TIP3    H150287   6.340   4.619  14.677  1.4353  1.0652 -0.4017
 9624TIP3    H250288   6.347   4.751  14.751 -0.0248  0.5149  0.7448
 9625TIP3   OH250289   4.528   3.706  14.953 -0.0815 -0.0571  0.5346
 9625TIP3    H150290   4.548   3.629  14.901  0.0807 -0.4527  1.1657
 9625TIP3    H250291   4.445   3.738  14.918  0.4534  0.2078 -0.5341
 9626TIP3   OH250292   6.215   1.805   2.999 -0.5805  0.1593  0.2678
 9626TIP3    H150293   6.173   1.767   2.921 -0.1595  1.8393 -0.8160
 9626TIP3    H250294   6.306   1.818   2.974 -0.5576  1.2406  0.8358
 9627TIP3   OH250295   2.180   3.725  13.255  0.1216  0.0885 -0.2623
 9627TIP3    H150296   2.175   3.820  13.244  0.0972  0.0350 -0.7429
 9627TIP3    H250297   2.091   3.694  13.236  0.8218 -0.3285 -3.3042
 9628TIP3   OH250298   6.503   6.431   4.005 -0.2917 -0.7985 -0.2000
 9628TIP3    H150299   6.499   6.465   4.095  1.0526 -0.5323 -0.2191
 9628TIP3    H250300   6.597   6.419   3.989 -0.5713 -1.5632 -1.3075
 9629TIP3   OH250301   3.193   5.380   4.800  0.1040 -0.2056  0.1225
 9629TIP3    H150302   3.156   5.407   4.884  0.2925  2.0326 -0.4748
 9629TIP3    H250303   3.275   5.337   4.823 -0.6829 -1.2287  1.1605
 9630TIP3   OH250304   2.891   1.936   1.217  0.1648 -0.2524 -0.8025
 9630TIP3    H150305   2.872   2.028   1.199  1.0306  0.0933 -0.0235
 9630TIP3    H250306   2.874   1.892   1.134  0.3240  0.7052 -1.3606
 9631TIP3   OH250307   0.230   5.749   1.001  0.3728  0.3896  0.7111
 9631TIP3    H150308   0.301   5.813   1.007  1.2821 -0.5123 -0.2036
 9631TIP3    H250309   0.265   5.679   0.946 -1.8916  0.8023 -1.4124
 9632TIP3   OH250310   5.472   2.023  11.822 -0.5821  0.0391  0.3080
 9632TIP3    H150311   5.547   2.061  11.775 -1.3895  0.5596 -0.5814
 9632TIP3    H250312   5.473   1.930  11.796  0.2853 -0.1693  1.0247
 9633TIP3   OH250313   3.118   4.958   4.918 -0.3028 -0.7878 -0.1498
 9633TIP3    H150314   3.043   4.956   4.977 -0.3726 -0.6185 -0.2352
 9633TIP3    H250315   3.162   4.874   4.934 -0.4872 -0.8707 -0.0733
 9634TIP3   OH250316   5.594   0.139  11.259 -0.3605 -0.0668 -0.2264
 9634TIP3    H150317   5.576   0.045  11.266 -1.6202  0.1244 -0.6581
 9634TIP3    H250318   5.524   0.173  11.202  0.3293  1.0587 -0.4317
 9635TIP3   OH250319   4.696   0.659  12.389 -0.2536 -0.4305  0.1574
 9635TIP3    H150320   4.773   0.611  12.421  0.6873 -1.3391 -3.0885
 9635TIP3    H250321   4.622   0.603  12.410  0.3710 -1.2366  0.2510
 9636TIP3   OH250322   5.091   1.328  13.140  0.0001 -0.2274  0.0775
 9636TIP3    H150323   5.150   1.386  13.188  0.8633 -1.3704  0.4341
 9636TIP3    H250324   5.143   1.297  13.066 -1.1519  1.1026 -1.3655
 9637TIP3   OH250325   1.286   3.516  14.605  0.1127 -0.2063  0.0450
 9637TIP3    H150326   1.217   3.582  14.611  1.8737  1.8746 -0.7472
 9637TIP3    H250327   1.260   3.447  14.665 -1.2422  1.8341  1.9510
 9638TIP3   OH250328   2.650   4.035   4.575  0.5284  0.2635  0.0559
 9638TIP3    H150329   2.658   4.082   4.657  0.6384  0.4724 -0.0733
 9638TIP3    H250330   2.559   4.005   4.572  0.3857  0.6993  0.0121
 9639TIP3   OH250331   2.084   4.390   1.351  0.8512  0.0793  0.0247
 9639TIP3    H150332   2.000   4.346   1.344 -0.7572  2.7765  0.9631
 9639TIP3    H250333   2.111   4.406   1.261  1.7031 -2.9570 -0.3777
 9640TIP3   OH250334   0.022   0.277  12.312 -0.3714 -0.5879  0.0181
 9640TIP3    H150335   0.111   0.295  12.283 -1.1518  1.1323 -1.4819
 9640TIP3    H250336  -0.004   0.356  12.360 -1.5915 -0.4123 -0.8913
 9641TIP3   OH250337   6.679   4.897   4.755 -0.5546 -0.4418  0.9047
 9641TIP3    H150338   6.620   4.939   4.692 -1.5389 -1.8336  0.8394
 9641TIP3    H250339   6.699   4.811   4.716  1.5214 -0.0295  0.9441
 9642TIP3   OH250340   1.971   3.865  14.772  0.0547 -0.0169  0.1508
 9642TIP3    H150341   1.981   3.814  14.692  2.4480 -1.2340  1.1474
 9642TIP3    H250342   2.049   3.921  14.776 -0.9913  1.4901  0.6842
 9643TIP3   OH250343   5.339   0.811   1.459  0.5246 -0.3433  0.3596
 9643TIP3    H150344   5.258   0.780   1.419  1.4415 -1.9004 -0.3851
 9643TIP3    H250345   5.335   0.906   1.452 -0.6212 -0.4654 -0.8911
 9644TIP3   OH250346   5.713   6.175  16.064 -0.2414 -0.1803  0.0574
 9644TIP3    H150347   5.793   6.202  16.109 -1.2085  2.4182  0.4025
 9644TIP3    H250348   5.695   6.246  16.002 -2.0343 -0.9007 -0.3248
 9645TIP3   OH250349   6.021   1.621   3.165 -0.2760 -0.1826  0.1827
 9645TIP3    H150350   5.996   1.562   3.236  1.1056 -1.0630 -0.0221
 9645TIP3    H250351   6.113   1.601   3.149 -0.6507 -0.3107 -2.1377
 9646TIP3   OH250352   3.300   4.713   1.052 -0.0648  0.1728 -0.7616
 9646TIP3    H150353   3.215   4.739   1.087  0.4635  0.1379  0.5984
 9646TIP3    H250354   3.282   4.634   1.002 -0.3970 -1.7470  2.1821
 9647TIP3   OH250355   4.680   4.182  13.344  0.3636  0.1163 -0.1829
 9647TIP3    H150356   4.716   4.267  13.319  0.3900  0.8923  2.2127
 9647TIP3    H250357   4.607   4.168  13.284  0.3677  1.8273 -0.6233
 9648TIP3   OH250358   3.172   4.133   5.533  0.3976 -0.1490  0.2702
 9648TIP3    H150359   3.211   4.221   5.530 -0.4567  0.3051  1.4332
 9648TIP3    H250360   3.077   4.149   5.535  0.2424 -1.0838  0.7526
 9649TIP3   OH250361   1.772   1.892  11.845  0.0922 -0.2450  0.4708
 9649TIP3    H150362   1.730   1.820  11.892 -2.2702  0.4994 -0.3981
 9649TIP3    H250363   1.720   1.969  11.866  2.4297  1.2491  1.1825
 9650TIP3   OH250364   2.075   5.007  14.472  0.7065  0.1921 -0.3568
 9650TIP3    H150365   2.008   4.953  14.514  0.9515 -0.8065 -1.2023
 9650TIP3    H250366   2.036   5.095  14.470 -0.0433 -0.1065  0.3058
 9651TIP3   OH250367   4.708   1.703  14.310 -0.2647 -0.2131  0.2761
 9651TIP3    H150368   4.612   1.705  14.299 -0.1291 -1.4624 -1.7131
 9651TIP3    H250369   4.723   1.630  14.370 -0.5641  0.5006  1.2551
 9652TIP3   OH250370   0.319   2.565   3.461  0.2508 -0.1384  0.4991
 9652TIP3    H150371   0.293   2.585   3.371  1.5347  0.2377  0.1963
 9652TIP3    H250372   0.312   2.470   3.468  1.2205 -0.2840 -0.3525
 9653TIP3   OH250373   0.314   2.369   0.275  0.6496 -0.3479  0.2783
 9653TIP3    H150374   0.320   2.411   0.188  1.0008 -0.3758  0.2850
 9653TIP3    H250375   0.240   2.309   0.268  0.4613 -0.0988  0.1055
 9654TIP3   OH250376   2.865   0.361   4.495  0.0051  0.3713 -0.3104
 9654TIP3    H150377   2.832   0.394   4.578  0.4667  0.4569 -0.1611
 9654TIP3    H250378   2.814   0.408   4.428 -1.2203 -0.5657 -0.0781
 9655TIP3   OH250379   3.218   0.453   4.276  0.6832 -0.1615 -0.4487
 9655TIP3    H150380   3.283   0.465   4.206  1.7080  0.1618  0.5344
 9655TIP3    H250381   3.270   0.436   4.354 -0.4662 -2.4726 -0.0852
 9656TIP3   OH250382   3.562   3.570  13.302  0.5411  0.0265 -0.2478
 9656TIP3    H150383   3.609   3.537  13.379  0.9263 -0.4917 -0.7001
 9656TIP3    H250384   3.543   3.491  13.251 -0.9946  0.1815  0.0092
 9657TIP3   OH250385   4.819   5.836   3.947 -0.0321 -0.4086 -0.0296
 9657TIP3    H150386   4.808   5.767   4.012  0.0944 -0.6262 -0.2383
 9657TIP3    H250387   4.807   5.917   3.996 -0.7082 -0.5906  0.1179
 9658TIP3   OH250388   5.717   6.574  16.971 -0.1303 -0.4719  0.3418
 9658TIP3    H150389   5.682   6.663  16.978  1.0323  0.2374 -1.8365
 9658TIP3    H250390   5.644   6.523  16.934  0.2537  0.4323 -1.8032
 9659TIP3   OH250391   0.656   1.282   1.567  0.1802  0.0355  0.1999
 9659TIP3    H150392   0.614   1.365   1.545 -1.6701 -0.9089  0.0224
 9659TIP3    H250393   0.691   1.250   1.483 -0.5185 -0.1241 -0.0337
 9660TIP3   OH250394   6.242   2.307  11.572  0.0608 -0.0179  0.1076
 9660TIP3    H150395   6.187   2.284  11.497  1.4185  0.7508 -1.1800
 9660TIP3    H250396   6.317   2.247  11.567  0.1344 -0.0151  0.9199
 9661TIP3   OH250397   4.673   0.801   3.993 -0.1495 -0.1717  0.2838
 9661TIP3    H150398   4.580   0.800   3.969 -0.2569 -3.6093  0.3283
 9661TIP3    H250399   4.716   0.846   3.920 -1.9042  3.5024  1.2458
 9662TIP3   OH250400   5.982   4.471  14.968  0.1346 -0.5617  0.4635
 9662TIP3    H150401   6.054   4.504  15.022  1.2271 -0.1491 -1.1682
 9662TIP3    H250402   5.976   4.533  14.896  0.9873 -2.8196 -1.6833
 9663TIP3   OH250403   2.718   1.006  13.078  0.0544  0.1376  0.1944
 9663TIP3    H150404   2.678   0.992  13.164  0.4553 -0.1550  0.3384
 9663TIP3    H250405   2.787   1.071  13.094 -0.5136  0.8266 -0.0985
 9664TIP3   OH250406   4.991   2.358  12.696 -0.1524 -0.4944  0.0921
 9664TIP3    H150407   5.021   2.330  12.609  0.3512 -2.1715  0.7486
 9664TIP3    H250408   4.970   2.450  12.686  2.2695  0.0059 -1.2160
 9665TIP3   OH250409   0.889   4.201   6.548  0.1261  0.0076 -0.0449
 9665TIP3    H150410   0.836   4.168   6.475 -1.4959  0.7244  0.7659
 9665TIP3    H250411   0.913   4.290   6.522  0.6677 -0.1972 -0.2622
 9666TIP3   OH250412   1.739   1.010  13.119  0.1276  0.0735  0.3964
 9666TIP3    H150413   1.754   1.079  13.054  0.3949 -0.6534 -0.3365
 9666TIP3    H250414   1.713   0.934  13.067 -2.0575  0.1299  1.3227
 9667TIP3   OH250415   6.423   0.872   1.327 -0.1336 -0.3217 -1.2214
 9667TIP3    H150416   6.371   0.951   1.341  0.7405  0.0245  0.3080
 9667TIP3    H250417   6.506   0.902   1.292  0.4446 -0.4724 -0.0211
 9668TIP3   OH250418   1.632   3.638  17.007 -0.5623  0.1757 -0.2906
 9668TIP3    H150419   1.616   3.600  17.094 -0.1321 -2.3203 -1.2230
 9668TIP3    H250420   1.549   3.625  16.961  0.3484 -2.1177 -1.4304
 9669TIP3   OH250421   2.750   3.612  11.068  0.2327 -0.1427 -0.3760
 9669TIP3    H150422   2.730   3.695  11.112  2.7674  0.3341  0.0095
 9669TIP3    H250423   2.761   3.636  10.976  0.2032 -0.1838 -0.3903
 9670TIP3   OH250424   4.374   2.703   5.870  0.0605  0.1672  0.1812
 9670TIP3    H150425   4.444   2.696   5.935  1.0940  0.4452 -0.8548
 9670TIP3    H250426   4.360   2.797   5.860 -0.2010  0.1224  0.1131
 9671TIP3   OH250427   6.128   6.253  12.600  0.3465 -0.1313  0.5598
 9671TIP3    H150428   6.198   6.191  12.620  0.5216 -0.4309 -0.8876
 9671TIP3    H250429   6.140   6.274  12.508 -1.5075 -0.2297  0.2585
 9672TIP3   OH250430   6.450   3.156  14.709  0.1081 -0.1949 -0.9818
 9672TIP3    H150431   6.412   3.135  14.623 -0.6611 -1.3345 -0.3887
 9672TIP3    H250432   6.446   3.252  14.714 -2.0400 -0.2228 -1.2518
 9673TIP3   OH250433   4.846   2.718   4.042  0.5924 -0.4023 -0.1304
 9673TIP3    H150434   4.790   2.698   4.117 -0.5777 -1.3810 -1.2025
 9673TIP3    H250435   4.785   2.734   3.970  1.6716 -1.4732 -1.3458
 9674TIP3   OH250436   0.637   3.652   3.354  0.0570  0.6768 -0.1175
 9674TIP3    H150437   0.681   3.571   3.330  3.0049  1.5623  1.7387
 9674TIP3    H250438   0.689   3.721   3.313  1.2209  1.8437  3.0136
 9675TIP3   OH250439   6.395   0.690  13.036  0.4945 -0.0127  0.3993
 9675TIP3    H150440   6.417   0.597  13.050  0.4218 -0.0473  0.2860
 9675TIP3    H250441   6.478   0.731  13.014  0.5575 -0.0169  0.6292
 9676TIP3   OH250442   1.454   5.563   1.079 -0.0835  0.0322 -0.1845
 9676TIP3    H150443   1.391   5.596   1.014 -1.3633 -0.3171  0.8325
 9676TIP3    H250444   1.459   5.469   1.062 -1.1645 -0.2225  0.8045
 9677TIP3   OH250445   0.151   1.582  15.125 -0.1074 -0.1482 -0.2025
 9677TIP3    H150446   0.141   1.502  15.177  0.4331 -0.6532 -0.8597
 9677TIP3    H250447   0.138   1.554  15.035 -1.3135  0.7815 -0.3291
 9678TIP3   OH250448   3.883   6.336  14.432  0.3653 -0.8156 -0.1722
 9678TIP3    H150449   3.930   6.327  14.515 -0.9500 -0.5044  0.6345
 9678TIP3    H250450   3.905   6.425  14.402  0.7360 -0.8777 -0.0909
 9679TIP3   OH250451   3.892   3.313   1.463  0.3617  0.0331 -0.3179
 9679TIP3    H150452   3.984   3.334   1.444  0.1963 -0.3289 -1.5487
 9679TIP3    H250453   3.847   3.324   1.380 -0.4704 -1.1682 -0.0412
 9680TIP3   OH250454   5.024   1.237  11.605  0.0856  0.7661  0.0841
 9680TIP3    H150455   5.089   1.216  11.672 -0.2849 -2.0381 -0.3270
 9680TIP3    H250456   5.074   1.244  11.524  0.1473  0.9153  0.1355
 9681TIP3   OH250457   1.677   2.290   5.507  0.6001 -0.5228  0.3999
 9681TIP3    H150458   1.616   2.360   5.531  1.4976  0.8062 -1.0260
 9681TIP3    H250459   1.692   2.243   5.589 -1.0965  0.0724  1.1102
 9682TIP3   OH250460   4.131   0.602  11.769  0.0870  0.5908 -0.2064
 9682TIP3    H150461   4.135   0.687  11.727 -2.6670  1.1280  0.4267
 9682TIP3    H250462   4.220   0.569  11.765  0.8380  2.6366 -2.2031
 9683TIP3   OH250463   0.713   1.350  13.014  0.2735 -0.8641 -0.1465
 9683TIP3    H150464   0.631   1.374  13.057  1.5806  3.6397  0.3663
 9683TIP3    H250465   0.687   1.289  12.945 -3.4563  0.0752  0.2033
 9684TIP3   OH250466   6.193   5.988  12.304  0.3242 -0.9677 -0.0471
 9684TIP3    H150467   6.272   5.938  12.326  1.5582  0.2166 -1.5853
 9684TIP3    H250468   6.159   5.945  12.225  0.3360 -0.5113 -0.3011
 9685TIP3   OH250469   5.513   5.460   2.343  0.4478  0.0879 -0.0959
 9685TIP3    H150470   5.533   5.509   2.423 -1.0715 -0.5476  0.7141
 9685TIP3    H250471   5.578   5.391   2.340  0.6429  0.2427  0.4794
 9686TIP3   OH250472   0.858   5.507   3.838 -0.9996  0.7713  0.4043
 9686TIP3    H150473   0.882   5.574   3.774 -0.4272 -1.8745 -2.3482
 9686TIP3    H250474   0.762   5.506   3.837 -1.0498 -1.0009 -2.5708
 9687TIP3   OH250475   6.725   5.700  11.555 -0.0577  0.9141  0.0844
 9687TIP3    H150476   6.685   5.627  11.508  1.2453 -0.2447  0.7121
 9687TIP3    H250477   6.813   5.670  11.578 -0.1702  1.9047  2.1207
 9688TIP3   OH250478   3.018   5.326   1.240  0.1490 -0.2950 -0.6356
 9688TIP3    H150479   2.938   5.343   1.190 -1.0271  1.5790  1.6543
 9688TIP3    H250480   3.078   5.396   1.214 -0.5565  0.8358  0.6442
 9689TIP3   OH250481   5.611   6.725   5.064 -0.2317 -0.0665 -0.4667
 9689TIP3    H150482   5.528   6.744   5.021  0.1400  1.3382 -0.6398
 9689TIP3    H250483   5.635   6.808   5.105  0.3279 -0.8779  0.9015
 9690TIP3   OH250484   5.502   6.059  15.607 -0.4477 -0.8619  0.2444
 9690TIP3    H150485   5.489   6.138  15.660 -1.7297 -1.3767  0.7360
 9690TIP3    H250486   5.452   6.076  15.527 -0.6539 -1.1421  0.3149
 9691TIP3   OH250487   3.670   1.735   6.455  0.0699 -0.1909  0.2100
 9691TIP3    H150488   3.760   1.718   6.484  0.2099  0.8102  0.4019
 9691TIP3    H250489   3.631   1.649   6.444  1.3215 -0.6619 -0.7223
 9692TIP3   OH250490   6.216   4.357  16.344 -0.4441 -0.3977  0.1735
 9692TIP3    H150491   6.293   4.394  16.298  0.5362 -1.2246  1.0980
 9692TIP3    H250492   6.205   4.413  16.420 -1.0903  0.0251 -0.2258
 9693TIP3   OH250493   0.001   5.063  14.426 -0.0855 -0.1023  0.1067
 9693TIP3    H150494   0.003   5.146  14.379  0.8953  0.1495  0.5782
 9693TIP3    H250495   0.028   4.997  14.362  0.7544  0.1699  0.1725
 9694TIP3   OH250496   1.741   2.081   3.107 -0.1355 -0.1774 -0.1313
 9694TIP3    H150497   1.791   2.058   3.185 -0.7039 -0.3172  0.1929
 9694TIP3    H250498   1.789   2.041   3.035 -0.1274 -0.8461  0.2429
 9695TIP3   OH250499   6.731   4.316   0.265 -0.4647  0.1345  0.1195
 9695TIP3    H150500   6.756   4.231   0.229 -0.1008  0.3004 -0.0192
 9695TIP3    H250501   6.635   4.312   0.269 -0.4163 -0.6098  0.9210
 9696TIP3   OH250502   1.141   3.169   0.072 -0.1667  0.4702 -0.2712
 9696TIP3    H150503   1.148   3.104   0.002 -0.6372 -0.5968  0.6595
 9696TIP3    H250504   1.151   3.119   0.153 -1.4373  1.4085  0.5016
 9697TIP3   OH250505   0.549   1.967  11.236 -0.4712 -0.6416 -0.1447
 9697TIP3    H150506   0.632   2.014  11.241 -1.4612  1.2420 -0.4142
 9697TIP3    H250507   0.545   1.918  11.318 -0.7090  2.1888  1.6998
 9698TIP3   OH250508   2.324   6.153  11.446  0.3221  0.5174 -0.0922
 9698TIP3    H150509   2.335   6.169  11.540 -1.2288 -2.0586  0.6231
 9698TIP3    H250510   2.271   6.227  11.416 -1.1701  0.2393  1.6216
 9699TIP3   OH250511   2.089   6.470  11.541  0.4573 -0.1524 -0.5129
 9699TIP3    H150512   2.131   6.477  11.627 -1.1895  0.4358  0.2824
 9699TIP3    H250513   2.007   6.424  11.558 -0.6423  1.3490 -1.4938
 9700TIP3   OH250514   0.866   6.723   5.554 -0.2742  0.0334 -0.6108
 9700TIP3    H150515   0.849   6.813   5.582  1.1254 -0.1102  0.7935
 9700TIP3    H250516   0.961   6.714   5.557 -0.2677 -0.9869 -2.4482
 9701TIP3   OH250517   0.863   4.157  11.567 -0.4542 -0.0537  0.1002
 9701TIP3    H150518   0.861   4.150  11.471 -0.5620 -0.0282  0.0999
 9701TIP3    H250519   0.934   4.218  11.585 -1.1564  0.8423 -0.0296
 9702TIP3   OH250520   2.166   2.358  11.736  0.1058 -0.8208  0.3164
 9702TIP3    H150521   2.121   2.422  11.681  0.3881 -0.9876 -0.1070
 9702TIP3    H250522   2.154   2.392  11.825  0.7201  0.1276  0.0583
 9703TIP3   OH250523   1.191   4.031   0.472 -0.6082 -0.3436  0.6717
 9703TIP3    H150524   1.169   4.010   0.382 -2.4665  2.7702  0.2969
 9703TIP3    H250525   1.269   4.086   0.466  0.0828 -1.2495  1.1050
 9704TIP3   OH250526   0.102   1.519  11.582 -0.2599 -0.2653 -0.6120
 9704TIP3    H150527   0.014   1.554  11.572  0.6168  1.7769 -1.9779
 9704TIP3    H250528   0.089   1.426  11.601 -2.6794 -0.1213 -1.2159
 9705TIP3   OH250529   0.117   3.137  12.660 -0.1451 -0.1599 -0.0248
 9705TIP3    H150530   0.194   3.080  12.660 -0.4692 -0.6375 -1.8503
 9705TIP3    H250531   0.047   3.083  12.696 -0.5218 -1.0878 -2.0157
 9706TIP3   OH250532   2.280   2.372   3.503  0.2394  1.0415 -0.3342
 9706TIP3    H150533   2.340   2.358   3.430  0.2453 -1.7280  0.0706
 9706TIP3    H250534   2.220   2.297   3.499  0.6346  0.4118  2.8017
 9707TIP3   OH250535   0.663   3.221   0.590  0.2869 -0.0858 -0.1691
 9707TIP3    H150536   0.633   3.132   0.570  1.2783 -0.1725 -1.4414
 9707TIP3    H250537   0.624   3.275   0.522  0.2513  0.3307  0.1842
 9708TIP3   OH250538   0.675   4.986   4.121  0.1153  0.1423  0.0684
 9708TIP3    H150539   0.595   4.941   4.093  0.2287 -0.5467  0.8179
 9708TIP3    H250540   0.741   4.918   4.124  0.5249  0.5428  0.2939
 9709TIP3   OH250541   1.294   4.424   2.595  0.1059 -0.5274  0.1122
 9709TIP3    H150542   1.210   4.425   2.640 -1.0558 -3.2550 -1.7115
 9709TIP3    H250543   1.342   4.352   2.637  1.1591  0.3529  0.4616
 9710TIP3   OH250544   6.408   5.837  16.212 -0.0594 -0.1050  0.4633
 9710TIP3    H150545   6.441   5.750  16.189  1.0051  0.5249 -0.5011
 9710TIP3    H250546   6.386   5.831  16.305  0.2293 -1.3314  0.4630
 9711TIP3   OH250547   4.962   0.187  14.129 -0.5211 -0.2104 -1.0235
 9711TIP3    H150548   5.040   0.243  14.125 -1.3038  0.8767 -1.6142
 9711TIP3    H250549   4.986   0.110  14.078  0.7599 -0.7021  0.2302
 9712TIP3   OH250550   1.991   1.945   6.608  0.4406  0.9285 -0.1507
 9712TIP3    H150551   2.021   1.939   6.517  1.7229  1.2793  0.2330
 9712TIP3    H250552   2.059   1.902   6.659 -0.3346  0.6158  0.6452
 9713TIP3   OH250553   1.216   3.884  14.636 -0.0537  0.5530  0.4727
 9713TIP3    H150554   1.166   3.965  14.637 -0.3752  0.5027 -2.5825
 9713TIP3    H250555   1.151   3.816  14.619  0.6782  0.1792 -0.9542
 9714TIP3   OH250556   6.342   5.314  14.560  0.4355 -0.9037 -0.0603
 9714TIP3    H150557   6.291   5.253  14.613  1.5655 -0.2778  1.8446
 9714TIP3    H250558   6.329   5.399  14.601  2.3425 -0.6088  0.0240
 9715TIP3   OH250559   0.824   5.882  16.558  0.3017 -0.5214 -0.1924
 9715TIP3    H150560   0.735   5.856  16.533  0.1438  0.1792 -0.3838
 9715TIP3    H250561   0.881   5.822  16.508 -0.0014  0.9859 -2.5369
 9716TIP3   OH250562   5.751   1.173   4.463 -0.4334  0.0962 -0.4100
 9716TIP3    H150563   5.695   1.095   4.459 -1.5401  0.9174 -2.4293
 9716TIP3    H250564   5.786   1.172   4.552 -1.9243 -1.6612  0.2340
 9717TIP3   OH250565   6.031   3.052   3.152  0.2974  0.1741  0.2161
 9717TIP3    H150566   5.971   2.983   3.180  0.4759 -0.9487 -1.9305
 9717TIP3    H250567   5.982   3.133   3.164 -0.7941 -0.5246  0.6026
 9718TIP3   OH250568   0.931   2.399  16.287  0.6995 -0.2367 -0.1343
 9718TIP3    H150569   0.983   2.412  16.208 -0.5735 -1.9457 -1.3395
 9718TIP3    H250570   0.928   2.485  16.328  0.2565  1.0701 -2.6825
 9719TIP3   OH250571   3.192   5.846   1.787 -0.6288 -0.1071 -0.3212
 9719TIP3    H150572   3.265   5.789   1.761 -0.0202 -0.2681  1.6242
 9719TIP3    H250573   3.142   5.858   1.706  1.1334 -0.5866 -1.5458
 9720TIP3   OH250574   0.962   1.840  11.727 -0.1228 -0.2473 -0.4466
 9720TIP3    H150575   0.935   1.922  11.769  0.7350  0.0978 -0.5405
 9720TIP3    H250576   1.055   1.853  11.709  0.6952 -2.1851  1.8213
 9721TIP3   OH250577   2.442   6.568  16.692 -0.6710  0.5004 -0.0902
 9721TIP3    H150578   2.424   6.583  16.785 -1.3286  0.3068 -0.1818
 9721TIP3    H250579   2.512   6.629  16.671  0.9613 -0.8745  1.0486
 9722TIP3   OH250580   0.755   2.499  12.816 -0.0410  0.3140 -0.4466
 9722TIP3    H150581   0.708   2.572  12.775  2.6709  1.7031 -1.3778
 9722TIP3    H250582   0.844   2.532  12.826  1.2779 -2.8390 -0.7604
 9723TIP3   OH250583   1.658   2.931   6.327  0.2999  0.0124 -0.3237
 9723TIP3    H150584   1.655   2.951   6.421  1.7573  0.5556 -0.3719
 9723TIP3    H250585   1.616   2.845   6.320 -1.7156  0.8648  0.5338
 9724TIP3   OH250586   3.001   0.301   4.193  0.5821 -0.7096 -0.0368
 9724TIP3    H150587   3.078   0.315   4.249 -0.2129  0.2605  0.8560
 9724TIP3    H250588   2.949   0.236   4.239  0.5837 -0.9283 -0.3437
 9725TIP3   OH250589   5.270   5.476   3.837  0.0837  0.3336 -0.4038
 9725TIP3    H150590   5.280   5.534   3.761  1.2431 -0.6783 -1.0732
 9725TIP3    H250591   5.181   5.442   3.830  0.4492 -0.4181 -1.8489
 9726TIP3   OH250592   1.212   5.035  14.738  0.0520  0.4548  0.5597
 9726TIP3    H150593   1.293   4.992  14.766 -0.1261 -0.2660  0.0033
 9726TIP3    H250594   1.240   5.093  14.667  0.0259 -0.0561  0.1324
 9727TIP3   OH250595   4.343   4.523  14.381 -0.8053 -0.4438 -0.3769
 9727TIP3    H150596   4.297   4.589  14.434  1.4024  0.9735 -0.1260
 9727TIP3    H250597   4.319   4.543  14.291 -1.3130 -0.2515 -0.2026
 9728TIP3   OH250598   5.985   4.829  13.760  0.2632  0.0018  0.4682
 9728TIP3    H150599   6.058   4.780  13.721  1.3516  0.4121  1.9007
 9728TIP3    H250600   5.983   4.912  13.711  1.0125  0.1339  0.6495
 9729TIP3   OH250601   5.000   1.142  16.222 -0.1421 -0.3808 -0.1052
 9729TIP3    H150602   4.957   1.076  16.277 -0.6378  0.6942  0.8465
 9729TIP3    H250603   5.090   1.144  16.252  0.0475 -1.0976 -0.6062
 9730TIP3   OH250604   6.072   4.010  14.424 -0.1069  0.0827 -0.6950
 9730TIP3    H150605   6.058   4.091  14.375  0.2272  0.2171 -0.5759
 9730TIP3    H250606   6.002   4.009  14.490  1.3243  1.5594  0.9533
 9731TIP3   OH250607   5.166   6.010  16.349  0.1605 -0.1081  0.3601
 9731TIP3    H150608   5.102   6.008  16.278 -0.2344  1.7909  0.6104
 9731TIP3    H250609   5.243   5.966  16.312 -1.4046 -3.0317  0.2869
 9732TIP3   OH250610   6.599   3.451  12.719  0.0157 -0.0653  0.0474
 9732TIP3    H150611   6.639   3.496  12.793 -0.7119 -0.1152  0.4779
 9732TIP3    H250612   6.661   3.463  12.647 -0.4156  2.1787 -0.0295
 9733TIP3   OH250613   1.119   5.791  14.040 -0.3929 -0.2343  0.3450
 9733TIP3    H150614   1.194   5.742  14.007 -1.4072  0.1248 -2.8630
 9733TIP3    H250615   1.106   5.759  14.130  1.8852 -2.2634  0.0302
 9734TIP3   OH250616   6.777   2.121  15.824  0.2087  0.1376 -0.9377
 9734TIP3    H150617   6.686   2.143  15.806  0.4289 -0.1851 -2.6051
 9734TIP3    H250618   6.820   2.206  15.837 -0.5744  0.2439  1.4179
 9735TIP3   OH250619   4.026   2.707  12.200 -0.5227  0.1851 -0.8649
 9735TIP3    H150620   3.993   2.790  12.235  0.4373  1.3208 -2.5060
 9735TIP3    H250621   4.118   2.705  12.226  0.0143  0.7048 -2.6148
 9736TIP3   OH250622   5.718   3.344  16.519 -0.3675  0.2782  0.3569
 9736TIP3    H150623   5.804   3.367  16.483  0.9665 -3.4826  0.7219
 9736TIP3    H250624   5.675   3.297  16.448 -0.4527 -1.3266  1.4397
 9737TIP3   OH250625   6.509   1.497  15.236  0.7972  0.3897  0.3095
 9737TIP3    H150626   6.586   1.441  15.224  0.7464  0.1445  1.0726
 9737TIP3    H250627   6.458   1.452  15.303 -0.6915 -0.1670 -1.1399
 9738TIP3   OH250628   3.620   2.440   1.917  0.6400  0.2998  0.1734
 9738TIP3    H150629   3.563   2.513   1.944 -0.2352  0.4948 -1.9697
 9738TIP3    H250630   3.630   2.452   1.823  1.2763 -1.8298 -0.0679
 9739TIP3   OH250631   1.298   1.194  12.644  0.2662  0.2021  0.6347
 9739TIP3    H150632   1.392   1.209  12.647  0.2791  0.0115  1.8229
 9739TIP3    H250633   1.289   1.100  12.630  0.2790  0.0859  1.3384
 9740TIP3   OH250634   4.084   3.147  13.605  0.3991 -0.3680 -0.4153
 9740TIP3    H150635   4.040   3.201  13.671 -0.7175 -0.4916 -1.0468
 9740TIP3    H250636   4.119   3.072  13.654 -1.0294 -0.8195 -0.0618
 9741TIP3   OH250637   3.082   0.434  15.860 -0.4685  0.6517  0.1272
 9741TIP3    H150638   3.052   0.345  15.841  3.0530 -0.9040  1.0156
 9741TIP3    H250639   3.053   0.450  15.950  0.1273 -0.2531  0.4996
 9742TIP3   OH250640   4.568   5.259  17.093 -0.1440  0.2996  0.0077
 9742TIP3    H150641   4.512   5.251  17.016 -0.4216 -0.0744  0.2447
 9742TIP3    H250642   4.559   5.175  17.138 -1.7283  1.2780  1.6301
 9743TIP3   OH250643   1.012   0.749   3.612 -0.0840 -0.1917  0.3101
 9743TIP3    H150644   1.032   0.720   3.523  2.2686 -2.1729  1.3871
 9743TIP3    H250645   0.970   0.835   3.601 -0.7832 -0.8273 -2.7094
 9744TIP3   OH250646   0.967   4.259   3.618 -0.1003 -0.1932 -0.7526
 9744TIP3    H150647   0.909   4.247   3.693  1.1742 -1.1422  0.1186
 9744TIP3    H250648   0.934   4.337   3.574 -2.5606 -1.1650 -0.7853
 9745TIP3   OH250649   3.903   5.734  14.128  0.7388  0.0434  0.0007
 9745TIP3    H150650   3.850   5.809  14.156  0.0691 -0.5554  0.3670
 9745TIP3    H250651   3.937   5.760  14.043 -0.7529  0.1596 -0.5950
 9746TIP3   OH250652   0.013   2.076   5.201 -0.1089  0.2249  0.8820
 9746TIP3    H150653   0.010   2.096   5.295 -1.1633 -1.3939  1.2322
 9746TIP3    H250654   0.031   1.983   5.197 -1.4179 -0.0119 -0.4806
 9747TIP3   OH250655   2.242   1.179   3.870 -0.0760 -0.5965  0.2841
 9747TIP3    H150656   2.173   1.192   3.935 -1.2028  0.4795 -1.0486
 9747TIP3    H250657   2.271   1.268   3.849 -0.0016 -0.8955 -0.9385
 9748TIP3   OH250658   1.800   4.650  13.790 -0.1075  0.0915 -0.2390
 9748TIP3    H150659   1.814   4.630  13.698 -1.2470  1.0304 -0.6446
 9748TIP3    H250660   1.790   4.565  13.832 -2.4026 -0.3472 -1.4920
 9749TIP3   OH250661   1.538   1.474  15.204  0.1991 -0.4130 -0.1679
 9749TIP3    H150662   1.548   1.463  15.298 -0.8618  2.2019  0.3470
 9749TIP3    H250663   1.614   1.525  15.177 -1.5876  2.6922  0.1971
 9750TIP3   OH250664   4.318   5.610   0.484  0.0715 -0.7826 -0.1219
 9750TIP3    H150665   4.258   5.667   0.436 -2.6541 -2.0543  1.4737
 9750TIP3    H250666   4.352   5.665   0.555  3.1685  0.7438 -2.5691
 9751TIP3   OH250667   4.684   4.749  17.043  0.0192 -0.1449  0.7528
 9751TIP3    H150668   4.656   4.752  16.951  0.9373 -2.5485  0.3200
 9751TIP3    H250669   4.639   4.822  17.084 -0.6782  0.8050 -1.5475
 9752TIP3   OH250670   5.377   0.641  16.226 -0.7719  0.1040 -0.1086
 9752TIP3    H150671   5.431   0.720  16.226 -0.5151 -0.0485  1.0754
 9752TIP3    H250672   5.420   0.584  16.163 -0.7558  0.7770 -0.7153
 9753TIP3   OH250673   3.832   1.764   0.938  0.3030  0.1674 -0.2147
 9753TIP3    H150674   3.881   1.698   0.889  0.0842 -0.5776  0.5436
 9753TIP3    H250675   3.740   1.740   0.925  0.2549 -0.4101  1.0225
 9754TIP3   OH250676   4.820   4.234   2.604  0.2490 -0.4714 -0.1631
 9754TIP3    H150677   4.904   4.223   2.560  1.2344 -0.2260  1.5737
 9754TIP3    H250678   4.775   4.301   2.553  2.6559  2.1762  0.8874
 9755TIP3   OH250679   3.268   1.881   5.953 -0.5017  0.3525  0.2480
 9755TIP3    H150680   3.301   1.951   6.009  0.4946 -0.5461  0.8048
 9755TIP3    H250681   3.249   1.809   6.012 -0.7223 -0.1464 -0.4138
 9756TIP3   OH250682   5.255   1.935  15.877  0.2788 -0.0589 -0.0966
 9756TIP3    H150683   5.326   1.872  15.865  0.4885  0.0502  0.5250
 9756TIP3    H250684   5.260   1.992  15.801  1.2856  0.3563  0.2598
 9757TIP3   OH250685   0.618   3.892   1.888 -0.6682 -0.2428 -0.3700
 9757TIP3    H150686   0.664   3.938   1.818 -0.3847  0.3801  0.2266
 9757TIP3    H250687   0.596   3.959   1.952 -1.3424 -0.7301 -0.0693
 9758TIP3   OH250688   3.741   0.916   5.964  0.1838  0.0485  0.3546
 9758TIP3    H150689   3.782   0.829   5.973 -1.1422 -0.6275  0.1068
 9758TIP3    H250690   3.706   0.935   6.051 -1.1372 -0.5171 -0.0370
 9759TIP3   OH250691   3.249   6.143   2.719  0.2777 -0.5137  0.0050
 9759TIP3    H150692   3.254   6.120   2.626 -0.5833 -1.7659  0.2298
 9759TIP3    H250693   3.257   6.238   2.722  1.3167 -0.5408 -1.2569
 9760TIP3   OH250694   5.595   5.151   6.693  0.1447 -0.0199 -0.2945
 9760TIP3    H150695   5.529   5.093   6.730  0.1244 -0.1778 -0.5713
 9760TIP3    H250696   5.668   5.148   6.755  0.7282 -1.4728 -1.0087
 9761TIP3   OH250697   6.312   3.258  11.667  0.6602 -0.4719 -0.2160
 9761TIP3    H150698   6.317   3.168  11.635  0.4157 -0.1865 -1.0923
 9761TIP3    H250699   6.393   3.270  11.717 -0.4924 -2.0080  2.2007
 9762TIP3   OH250700   4.744   2.168  14.564 -0.1924 -0.0909  0.3706
 9762TIP3    H150701   4.722   2.167  14.471 -1.5663 -0.9416  0.6781
 9762TIP3    H250702   4.760   2.260  14.583 -1.9415  0.3927 -0.2775
 9763TIP3   OH250703   0.851   4.420  16.096 -0.5984  0.2962  0.0764
 9763TIP3    H150704   0.771   4.473  16.092 -2.4717 -2.1854  1.3670
 9763TIP3    H250705   0.838   4.354  16.028  1.4520  1.0986 -1.1868
 9764TIP3   OH250706   0.222   5.534  14.183 -0.1531 -0.2050  0.3214
 9764TIP3    H150707   0.317   5.548  14.176 -0.1588 -0.5439 -0.5269
 9764TIP3    H250708   0.191   5.610  14.232  0.5861 -0.2090  0.8251
 9765TIP3   OH250709   3.840   3.546   1.204  0.5179  0.1271 -0.1061
 9765TIP3    H150710   3.749   3.545   1.174  1.1493 -0.0583 -2.1901
 9765TIP3    H250711   3.867   3.455   1.202  0.6615  0.1449  0.8175
 9766TIP3   OH250712   2.347   6.220   5.353  0.0241 -0.6261 -0.9541
 9766TIP3    H150713   2.251   6.224   5.349 -0.0427 -1.2635 -0.1246
 9766TIP3    H250714   2.372   6.298   5.403 -0.1035 -0.8583 -0.5312
 9767TIP3   OH250715   6.370   1.441   1.286  0.2339 -0.6440 -0.6916
 9767TIP3    H150716   6.342   1.458   1.196  2.5142  0.7640 -1.1948
 9767TIP3    H250717   6.464   1.429   1.280  0.2007 -2.5922  1.2781
 9768TIP3   OH250718   5.642   5.673  15.059  0.1812  0.0039 -0.1806
 9768TIP3    H150719   5.642   5.670  14.964 -0.1446  1.1490 -0.2256
 9768TIP3    H250720   5.693   5.751  15.081  0.7735 -0.5782  0.6055
 9769TIP3   OH250721   3.260   6.510   6.203 -0.4060 -0.3073  0.1815
 9769TIP3    H150722   3.348   6.480   6.226  0.0579  0.0290 -1.0519
 9769TIP3    H250723   3.240   6.576   6.270  0.4609 -0.0781  0.2385
 9770TIP3   OH250724   0.123   0.825  16.568 -0.5143  0.1477 -0.5101
 9770TIP3    H150725   0.135   0.752  16.629  0.2115  1.4715  1.0022
 9770TIP3    H250726   0.180   0.805  16.494 -0.5293 -0.9344 -0.2373
 9771TIP3   OH250727   2.459   5.951  14.570 -0.1893 -0.0874 -0.4472
 9771TIP3    H150728   2.494   6.038  14.590 -0.8783  0.4816 -1.6451
 9771TIP3    H250729   2.534   5.892  14.582  0.1653  0.5802  0.8548
 9772TIP3   OH250730   2.545   3.217   1.850  0.1640 -0.0233 -0.3150
 9772TIP3    H150731   2.520   3.132   1.887  0.3401 -0.4855 -1.2420
 9772TIP3    H250732   2.499   3.281   1.905 -2.7288 -0.8047 -1.6182
 9773TIP3   OH250733   1.822   6.539  15.473 -0.0219  0.5619  0.1454
 9773TIP3    H150734   1.778   6.469  15.424  1.4126 -0.9429  0.9105
 9773TIP3    H250735   1.855   6.599  15.405  0.8164 -0.8017 -0.6971
 9774TIP3   OH250736   6.397   4.419   1.270  0.3074  0.1715  0.4504
 9774TIP3    H150737   6.315   4.402   1.316 -0.5967  0.1078 -1.1287
 9774TIP3    H250738   6.400   4.515   1.262  0.1506  0.1447  0.0838
 9775TIP3   OH250739   0.549   5.306   5.084 -0.0909  0.5664 -0.3632
 9775TIP3    H150740   0.471   5.253   5.101  0.3176 -0.0132 -0.2711
 9775TIP3    H250741   0.581   5.276   5.000 -1.4450  2.6360 -1.7150
 9776TIP3   OH250742   5.368   2.151   3.717  0.0883 -0.5104 -0.1531
 9776TIP3    H150743   5.369   2.231   3.664 -1.2372 -0.3857 -0.0249
 9776TIP3    H250744   5.421   2.089   3.668  1.8892  0.6997  0.1755
 9777TIP3   OH250745   2.552   6.183  15.769 -0.5196 -0.6623  0.2540
 9777TIP3    H150746   2.604   6.125  15.824  0.1291 -0.3149  0.0215
 9777TIP3    H250747   2.611   6.206  15.697 -0.3009  1.2852  0.9883
 9778TIP3   OH250748   5.011   2.714   0.600 -0.3018  0.0870  0.4259
 9778TIP3    H150749   5.080   2.674   0.547  0.7408  1.5058  0.6254
 9778TIP3    H250750   5.024   2.808   0.588 -1.9204  0.3937  0.8635
 9779TIP3   OH250751   2.560   1.131  16.025 -0.1046  0.2210 -0.0482
 9779TIP3    H150752   2.570   1.213  16.074 -0.0044  0.6432 -0.7440
 9779TIP3    H250753   2.643   1.085  16.037  1.1688  1.7091 -2.2335
 9780TIP3   OH250754   4.534   3.151  11.244 -0.5376 -0.3703 -0.1416
 9780TIP3    H150755   4.559   3.176  11.155 -1.5280 -2.1589 -0.9814
 9780TIP3    H250756   4.438   3.160  11.245 -0.4554  0.5105  1.0489
 9781TIP3   OH250757   3.377   2.592  11.813  0.0642 -0.0620 -0.0795
 9781TIP3    H150758   3.290   2.590  11.775 -0.8729 -0.1397  1.9562
 9781TIP3    H250759   3.364   2.570  11.906  2.1059  0.8892  0.4991
 9782TIP3   OH250760   4.724   1.830   5.743  0.4987  0.3949 -0.6855
 9782TIP3    H150761   4.659   1.782   5.690  1.8264 -0.1686 -1.8649
 9782TIP3    H250762   4.697   1.921   5.735 -1.0739  0.0399  0.1792
 9783TIP3   OH250763   5.940   2.225   4.031  0.3640 -0.0439  0.1317
 9783TIP3    H150764   5.910   2.216   3.941 -0.2786 -1.5134  0.4544
 9783TIP3    H250765   5.861   2.219   4.084  0.7038  1.0521  0.7993
 9784TIP3   OH250766   5.162   5.673   4.860  0.0900  0.2103  0.1378
 9784TIP3    H150767   5.195   5.585   4.843  1.5559  0.5318  1.1533
 9784TIP3    H250768   5.086   5.682   4.803 -1.0106 -2.2553  1.0927
 9785TIP3   OH250769   3.817   1.934  15.933 -0.4260  0.1381  0.8843
 9785TIP3    H150770   3.791   1.926  16.025 -1.9459 -2.9052  0.3355
 9785TIP3    H250771   3.888   1.997  15.933 -1.5355  1.5706  3.8959
 9786TIP3   OH250772   6.475   6.081  15.396  0.0973  0.3125 -0.4540
 9786TIP3    H150773   6.379   6.092  15.395  0.1015  0.3432 -0.6023
 9786TIP3    H250774   6.501   6.106  15.484 -0.1785 -0.9329  0.0002
 9787TIP3   OH250775   4.605   4.829  15.141  0.1772  0.1531 -0.1843
 9787TIP3    H150776   4.540   4.765  15.113  1.1037 -1.3496  0.9575
 9787TIP3    H250777   4.686   4.779  15.150  0.1639  0.5253  4.3777
 9788TIP3   OH250778   2.381   1.778   5.021  0.0309  0.4671 -0.1376
 9788TIP3    H150779   2.387   1.862   5.066  0.2083  0.6384 -0.4724
 9788TIP3    H250780   2.289   1.754   5.028  0.2130  0.0622  1.0713
 9789TIP3   OH250781   3.957   6.289   4.894  0.1881  0.2715 -0.1588
 9789TIP3    H150782   3.897   6.220   4.924  0.6953  0.2132  0.7426
 9789TIP3    H250783   4.037   6.242   4.871  0.7026  0.6051  0.9233
 9790TIP3   OH250784   4.410   0.991   4.415  0.2847 -0.1493 -0.3076
 9790TIP3    H150785   4.480   0.973   4.478  1.1332 -0.6709 -1.3718
 9790TIP3    H250786   4.373   1.075   4.443  1.2101  0.0474  0.3726
 9791TIP3   OH250787   0.177   5.251  14.891 -0.7836 -0.4574 -0.2147
 9791TIP3    H150788   0.185   5.157  14.875 -2.1275 -0.5682 -0.3875
 9791TIP3    H250789   0.257   5.275  14.938 -0.4153 -1.6778 -0.1934
 9792TIP3   OH250790   2.046   5.998   1.376 -0.4401 -0.3924 -1.1402
 9792TIP3    H150791   2.097   5.934   1.325 -1.3103 -2.1885  0.1254
 9792TIP3    H250792   2.077   5.986   1.466  0.4444  2.1033 -1.0379
 9793TIP3   OH250793   4.725   3.837  15.816 -0.3411  0.3447 -0.2336
 9793TIP3    H150794   4.670   3.825  15.738 -1.4072  0.2560  0.5136
 9793TIP3    H250795   4.685   3.911  15.862  0.6170  0.7564 -0.0473
 9794TIP3   OH250796   0.191   1.375   1.010 -0.5941 -0.1459 -0.4512
 9794TIP3    H150797   0.187   1.342   0.920  1.3194  0.4792 -0.8273
 9794TIP3    H250798   0.188   1.297   1.065 -0.0166 -0.6815 -1.1548
 9795TIP3   OH250799   5.000   6.254  15.092  0.7218  0.0190 -0.5468
 9795TIP3    H150800   5.053   6.315  15.040  1.0690 -0.8203 -1.1905
 9795TIP3    H250801   4.928   6.230  15.033  0.4542 -0.0142 -0.2071
 9796TIP3   OH250802   2.147   5.586   0.626  0.8038 -0.0418  0.8163
 9796TIP3    H150803   2.114   5.535   0.699  0.3135 -0.9238  0.0038
 9796TIP3    H250804   2.099   5.553   0.550  2.2772 -0.1100 -0.1242
 9797TIP3   OH250805   4.346   2.387   3.378 -0.3847 -0.0131  0.5003
 9797TIP3    H150806   4.281   2.339   3.430 -0.1402  1.3716  2.1890
 9797TIP3    H250807   4.295   2.454   3.333 -0.4785 -0.7099 -0.4788
 9798TIP3   OH250808   2.702   0.653   0.760 -0.1939 -0.2588  0.5588
 9798TIP3    H150809   2.676   0.741   0.788 -2.1849 -0.6365  0.0702
 9798TIP3    H250810   2.798   0.653   0.764 -0.1083  2.1651 -0.1130
 9799TIP3   OH250811   6.359   4.970   0.538  0.1753  0.3547  0.0117
 9799TIP3    H150812   6.424   4.980   0.469 -0.9790  2.1279 -0.8858
 9799TIP3    H250813   6.334   4.878   0.535  0.8329  0.2003 -1.2725
 9800TIP3   OH250814   5.309   6.167  13.565 -0.2738 -0.6431 -0.5921
 9800TIP3    H150815   5.370   6.143  13.495 -0.5669 -1.5269 -0.5568
 9800TIP3    H250816   5.363   6.175  13.643 -0.1373 -1.0607 -0.6386
 9801TIP3   OH250817   1.769   5.927  14.921  0.3769  0.2176  0.5432
 9801TIP3    H150818   1.745   5.850  14.870  1.1048  0.4236 -0.1314
 9801TIP3    H250819   1.847   5.961  14.878  0.2947  1.1107  1.0695
 9802TIP3   OH250820   5.384   5.355   3.475 -0.2431  0.8576  0.0634
 9802TIP3    H150821   5.311   5.302   3.443 -0.1688  0.7027  0.1457
 9802TIP3    H250822   5.344   5.423   3.529 -0.2450 -0.0437  1.2465
 9803TIP3   OH250823   3.902   2.875  12.413  0.0320  0.0741  0.3147
 9803TIP3    H150824   3.955   2.832  12.480  0.5195  0.3863  0.1308
 9803TIP3    H250825   3.954   2.950  12.385  1.2197 -1.6504 -2.5059
 9804TIP3   OH250826   0.445   3.828   1.006 -0.7544  0.3349 -0.0303
 9804TIP3    H150827   0.363   3.782   0.986  0.2625 -1.5862  0.0493
 9804TIP3    H250828   0.461   3.809   1.098 -0.7531  1.6275  0.2588
 9805TIP3   OH250829   6.745   1.691   4.315  0.4574  0.0896 -0.4884
 9805TIP3    H150830   6.691   1.618   4.286  0.3106  0.6796 -1.7466
 9805TIP3    H250831   6.804   1.652   4.381  1.4376 -1.5450 -2.2162
 9806TIP3   OH250832   2.220   6.663  12.380  0.4578  0.2735 -0.9667
 9806TIP3    H150833   2.193   6.577  12.347  1.1216 -0.1280 -0.5080
 9806TIP3    H250834   2.140   6.715  12.380 -0.4079 -0.9565  0.6330
 9807TIP3   OH250835   2.864   4.042  16.630  0.6708 -0.0548 -0.0506
 9807TIP3    H150836   2.919   4.041  16.709  0.5961 -0.2878  0.0022
 9807TIP3    H250837   2.881   4.127  16.590  0.5978  0.1269  0.2971
 9808TIP3   OH250838   0.017   0.768  12.035  0.1043 -0.4644  0.3488
 9808TIP3    H150839   0.040   0.685  11.994  0.8096  0.7495 -1.8893
 9808TIP3    H250840   0.093   0.824  12.020  0.3661  0.1311  3.3507
 9809TIP3   OH250841   3.145   0.391  14.362 -0.8186 -0.9213  0.7436
 9809TIP3    H150842   3.154   0.437  14.279 -0.4179 -3.2857 -0.5851
 9809TIP3    H250843   3.061   0.345  14.355 -0.9052 -0.9540  1.7727
 9810TIP3   OH250844   0.693   1.234   5.032  0.6446 -0.0753  0.1042
 9810TIP3    H150845   0.667   1.243   4.940  0.8516  1.2039  0.1543
 9810TIP3    H250846   0.620   1.273   5.081  0.8781 -0.0644  0.4455
 9811TIP3   OH250847   6.071   5.542  10.592 -0.0387  0.6212 -0.0299
 9811TIP3    H150848   6.010   5.514  10.523 -0.3246  0.5756  0.2395
 9811TIP3    H250849   6.121   5.463  10.613  0.0311  0.6285 -0.1681
 9812TIP3   OH250850   2.169   2.663  14.146 -0.2901  0.0939 -0.4694
 9812TIP3    H150851   2.229   2.735  14.123 -0.6805  0.8231  0.7221
 9812TIP3    H250852   2.176   2.655  14.241 -0.7288 -1.0455 -0.5180
 9813TIP3   OH250853   6.691   1.755  11.397 -0.5556 -0.2918 -0.2122
 9813TIP3    H150854   6.711   1.848  11.389  1.6401 -0.6702  0.2556
 9813TIP3    H250855   6.667   1.744  11.489 -1.2638 -0.1317 -0.3711
 9814TIP3   OH250856   5.944   0.996  16.735  0.0325 -0.1423 -0.1533
 9814TIP3    H150857   6.004   0.923  16.750 -0.7266 -0.7124  0.1696
 9814TIP3    H250858   5.857   0.956  16.736 -0.4271  0.8498  0.5510
 9815TIP3   OH250859   4.832   1.102   1.884 -0.5432  0.7108 -0.3336
 9815TIP3    H150860   4.917   1.075   1.918  0.6928  1.2832 -2.7406
 9815TIP3    H250861   4.783   1.131   1.962  0.6288 -1.5905  1.3835
 9816TIP3   OH250862   5.439   2.272   5.539 -0.1039 -0.3445  0.1113
 9816TIP3    H150863   5.529   2.270   5.570 -0.0584  1.1956  0.1761
 9816TIP3    H250864   5.389   2.224   5.605  0.6428 -1.1497  0.1042
 9817TIP3   OH250865   6.357   4.394   2.196  0.3328  0.4904 -0.3797
 9817TIP3    H150866   6.263   4.375   2.201  0.2977  0.1412 -1.7500
 9817TIP3    H250867   6.362   4.486   2.169  0.4454  1.2173  1.9368
 9818TIP3   OH250868   3.157   3.926  12.331 -0.5256  0.1221  0.0478
 9818TIP3    H150869   3.121   3.853  12.382 -0.5241  0.0901  0.0032
 9818TIP3    H250870   3.251   3.912  12.332 -0.3837  1.0124  1.4204
 9819TIP3   OH250871   5.649   5.233   2.947 -0.1697  0.4238 -0.2345
 9819TIP3    H150872   5.730   5.183   2.942 -0.3747  0.0920 -0.2587
 9819TIP3    H250873   5.672   5.319   2.910  0.3982  0.6379  0.5870
 9820TIP3   OH250874   5.230   3.275   0.370  0.0898 -0.1311 -0.6625
 9820TIP3    H150875   5.143   3.303   0.342 -0.0989 -1.4364 -1.4287
 9820TIP3    H250876   5.225   3.180   0.375  0.7525 -0.1126  1.7696
 9821TIP3   OH250877   3.642   4.421  13.399 -0.7271 -0.1745  0.0700
 9821TIP3    H150878   3.732   4.393  13.417  0.1861  2.2844 -0.2737
 9821TIP3    H250879   3.589   4.371  13.461  0.7694 -2.1591 -0.1432
 9822TIP3   OH250880   1.193   1.244   2.859 -0.0743 -0.7324 -0.1959
 9822TIP3    H150881   1.120   1.274   2.805 -1.6613 -3.2751  0.3645
 9822TIP3    H250882   1.153   1.186   2.924  2.0791  0.2616  2.1945
 9823TIP3   OH250883   1.100   6.259   3.313  0.8394 -0.0410 -0.4775
 9823TIP3    H150884   1.096   6.231   3.404 -0.9839 -0.5116 -0.6499
 9823TIP3    H250885   1.071   6.350   3.314  0.4275 -0.1690 -0.6275
 9824TIP3   OH250886   5.959   5.398  12.539 -0.0814 -0.6128  0.0505
 9824TIP3    H150887   5.927   5.326  12.486  0.2539 -1.7375  1.3107
 9824TIP3    H250888   6.006   5.454  12.478 -1.5666 -0.6863 -1.2165
 9825TIP3   OH250889   0.162   6.583  15.067  0.3528  0.3308  0.0875
 9825TIP3    H150890   0.076   6.578  15.025  0.5474 -0.2331 -0.2576
 9825TIP3    H250891   0.170   6.674  15.095 -0.0230  0.5800 -0.5975
 9826TIP3   OH250892   2.820   0.865  10.332  0.2264  0.4468 -0.3264
 9826TIP3    H150893   2.754   0.920  10.375  0.8990 -0.3352  1.8666
 9826TIP3    H250894   2.771   0.788  10.303  0.1717 -0.4219  1.8492
 9827TIP3   OH250895   0.257   3.877   2.569 -0.1398  0.2858 -0.0416
 9827TIP3    H150896   0.340   3.870   2.616 -0.7606  0.1616  1.0853
 9827TIP3    H250897   0.266   3.818   2.495  1.2184  1.1908 -0.6454
 9828TIP3   OH250898   0.462   4.527  12.065  0.2625 -0.4739  0.1754
 9828TIP3    H150899   0.502   4.522  12.151  0.7476  0.9275  0.0561
 9828TIP3    H250900   0.400   4.600  12.071 -1.2072 -1.6424 -0.0899
 9829TIP3   OH250901   2.348   0.508  10.998  0.1279 -0.0583  0.0205
 9829TIP3    H150902   2.351   0.590  11.047  0.6867 -0.3924  0.5548
 9829TIP3    H250903   2.254   0.492  10.984 -0.1632 -0.6879  2.2458
 9830TIP3   OH250904   1.031   3.440   3.127 -0.3786  0.0648  0.1643
 9830TIP3    H150905   1.090   3.456   3.200 -1.6313  0.5700  1.1143
 9830TIP3    H250906   1.068   3.364   3.082 -0.9701 -2.0035  2.9178
 9831TIP3   OH250907   5.180   1.544  12.451  0.6278  0.2104 -0.1782
 9831TIP3    H150908   5.235   1.547  12.530 -0.6510  0.7410  0.7333
 9831TIP3    H250909   5.109   1.606  12.470  0.7718  1.0230 -2.1341
 9832TIP3   OH250910   3.359   5.241   3.082 -0.2436  0.4021 -0.7734
 9832TIP3    H150911   3.270   5.278   3.089 -0.1445  0.4099  0.6373
 9832TIP3    H250912   3.395   5.281   3.003 -0.6165  2.3467 -0.0145
 9833TIP3   OH250913   0.271   6.397   2.713 -0.0041  0.0513 -0.3279
 9833TIP3    H150914   0.221   6.384   2.633 -1.1474 -3.3111  0.7774
 9833TIP3    H250915   0.306   6.311   2.735  0.5053  0.8784  2.6200
 9834TIP3   OH250916   3.297   3.030   0.536  0.1324 -0.2720 -0.0953
 9834TIP3    H150917   3.220   2.974   0.524  1.0569 -1.8089  0.8985
 9834TIP3    H250918   3.370   2.978   0.502  0.7597  1.2087 -1.1291
 9835TIP3   OH250919   5.177   4.345  11.669  0.5161  0.9604 -0.3240
 9835TIP3    H150920   5.268   4.337  11.697  0.8866 -1.4346 -1.9084
 9835TIP3    H250921   5.182   4.377  11.579 -0.2700  1.5854 -0.1622
 9836TIP3   OH250922   5.474   0.218  12.100  0.0934 -0.4377  0.1565
 9836TIP3    H150923   5.531   0.223  12.176  1.0078 -2.1617 -0.3761
 9836TIP3    H250924   5.467   0.309  12.069  0.7492  0.0932  1.5136
 9837TIP3   OH250925   2.245   4.634   3.837 -0.1314  0.0934  0.1810
 9837TIP3    H150926   2.301   4.622   3.914  0.6844  1.8737 -0.1005
 9837TIP3    H250927   2.285   4.581   3.769  1.1099  1.1648  0.0506
 9838TIP3   OH250928   6.163   4.978  16.108  0.2198  0.2909  0.2768
 9838TIP3    H150929   6.224   4.917  16.148  0.0721 -0.0985 -0.0840
 9838TIP3    H250930   6.182   4.972  16.014  0.9074  1.5541  0.3116
 9839TIP3   OH250931   1.232   2.964   0.803  0.3102  0.1950 -0.1906
 9839TIP3    H150932   1.192   2.955   0.890  0.3562  0.2937 -0.1592
 9839TIP3    H250933   1.323   2.939   0.817  0.4528  0.7610 -0.0914
 9840TIP3   OH250934   5.205   4.676   3.461 -0.0693 -0.5067  0.0529
 9840TIP3    H150935   5.299   4.692   3.465 -0.3818  1.9740 -0.5762
 9840TIP3    H250936   5.189   4.646   3.372  0.1191 -0.8989  0.1505
 9841TIP3   OH250937   3.202   3.647  16.941  0.0427  0.2388  0.5109
 9841TIP3    H150938   3.240   3.688  16.863 -0.1779  2.7569  1.6451
 9841TIP3    H250939   3.268   3.584  16.969  0.6809  0.2087 -0.9630
 9842TIP3   OH250940   2.260   5.009  14.675  0.4273  0.4807 -0.3403
 9842TIP3    H150941   2.192   5.008  14.607  1.7731  1.1845 -1.7727
 9842TIP3    H250942   2.276   4.917  14.694 -2.1666  0.3038  1.3866
 9843TIP3   OH250943   1.563   0.233   3.358  0.4159  0.4014 -0.5309
 9843TIP3    H150944   1.591   0.319   3.388  0.0404 -0.0685  1.2857
 9843TIP3    H250945   1.625   0.211   3.289  1.1497  1.6855 -0.3246
 9844TIP3   OH250946   1.193   2.850  10.098 -0.0705 -0.0226  0.2176
 9844TIP3    H150947   1.104   2.870  10.069  0.2635 -0.0032 -0.8484
 9844TIP3    H250948   1.195   2.755  10.105 -0.2493 -0.0063  0.5071
 9845TIP3   OH250949   5.509   4.820   0.636 -0.0771 -0.3030 -1.3616
 9845TIP3    H150950   5.479   4.733   0.607 -1.3069 -0.5075  0.3496
 9845TIP3    H250951   5.433   4.877   0.624 -0.7967 -0.4726  1.5702
 9846TIP3   OH250952   6.278   3.241   3.427  0.0177  0.1906 -0.3724
 9846TIP3    H150953   6.351   3.234   3.489  0.8272 -1.3290 -1.4322
 9846TIP3    H250954   6.228   3.160   3.440 -0.7578  0.6249 -0.5673
 9847TIP3   OH250955   6.536   1.995   0.987 -0.0183  0.3116  0.4217
 9847TIP3    H150956   6.486   2.076   1.002  0.9649  0.8552  0.8621
 9847TIP3    H250957   6.585   1.982   1.068 -0.0552 -0.6633  0.3000
 9848TIP3   OH250958   3.121   4.174  16.767 -0.0308 -0.3972 -0.5713
 9848TIP3    H150959   3.051   4.236  16.788 -0.9751 -1.5723 -0.1215
 9848TIP3    H250960   3.192   4.197  16.827 -1.1046 -0.9721  0.9726
 9849TIP3   OH250961   0.689   5.139   4.832 -0.4891 -0.2302 -0.7869
 9849TIP3    H150962   0.657   5.126   4.742 -2.2099  1.1172 -0.4164
 9849TIP3    H250963   0.718   5.230   4.834  0.0071 -0.3984 -0.0970
 9850TIP3   OH250964   4.816   3.334  14.171  0.1567 -0.4554 -0.6023
 9850TIP3    H150965   4.779   3.250  14.198 -0.6837 -0.3376 -1.3432
 9850TIP3    H250966   4.740   3.388  14.149  0.6051  0.9434  1.0346
 9851TIP3   OH250967   3.287   5.071   0.189  0.2774  0.0379  0.2305
 9851TIP3    H150968   3.306   5.022   0.109 -1.3017 -0.3353  0.0548
 9851TIP3    H250969   3.262   5.158   0.159  0.4782  0.1481  0.3773
 9852TIP3   OH250970   5.433   0.347  16.825  0.5639  0.1952 -0.1583
 9852TIP3    H150971   5.391   0.271  16.783 -2.5418  1.6894 -0.0936
 9852TIP3    H250972   5.475   0.394  16.753 -0.6571  0.2676 -0.8625
 9853TIP3   OH250973   1.634   5.278  16.096 -0.6235  0.3733  0.2411
 9853TIP3    H150974   1.704   5.338  16.122 -1.3529  1.5546 -0.4310
 9853TIP3    H250975   1.673   5.225  16.027  0.0397  0.0526  0.8522
 9854TIP3   OH250976   6.454   2.962  15.828 -0.0800 -0.1965 -0.1183
 9854TIP3    H150977   6.469   2.869  15.846  0.4955 -0.2534 -0.8515
 9854TIP3    H250978   6.467   3.005  15.913  0.3952 -0.6944  0.0666
 9855TIP3   OH250979   4.337   2.656  16.311 -0.0191 -0.3351  0.1399
 9855TIP3    H150980   4.269   2.722  16.301 -0.2223 -0.7629 -1.7679
 9855TIP3    H250981   4.381   2.679  16.392 -0.5603  1.7070 -0.0849
 9856TIP3   OH250982   4.009   6.708   1.682 -0.1869  0.2808  0.3922
 9856TIP3    H150983   4.095   6.712   1.723  0.4459 -0.4470 -0.8130
 9856TIP3    H250984   4.026   6.679   1.593 -1.6013  1.0181 -0.1532
 9857TIP3   OH250985   1.426   5.816   5.810 -0.5055  0.3609 -0.6160
 9857TIP3    H150986   1.402   5.726   5.833  0.0690  0.5960  1.1173
 9857TIP3    H250987   1.495   5.839   5.873  0.2856  1.5792 -1.8634
 9858TIP3   OH250988   0.083   0.027  12.512 -0.4189 -0.0098 -0.1092
 9858TIP3    H150989   0.048  -0.022  12.438  1.3053  0.1563 -1.0845
 9858TIP3    H250990   0.042   0.113  12.505 -2.6019 -0.8950  0.9631
 9859TIP3   OH250991   1.940   3.763   1.053  0.0094 -0.1093 -0.7467
 9859TIP3    H150992   2.000   3.788   0.983  0.0922 -0.5199 -0.8205
 9859TIP3    H250993   1.978   3.685   1.092  0.3866  0.5667  0.2907
 9860TIP3   OH250994   0.948   1.706  14.058  0.0240 -0.0150  0.1809
 9860TIP3    H150995   0.957   1.702  13.963  3.6914 -0.4620  0.4192
 9860TIP3    H250996   0.958   1.799  14.079 -0.2694  0.0137  0.2088
 9861TIP3   OH250997   0.692   6.435   4.109  0.5965 -0.4987 -0.2399
 9861TIP3    H150998   0.731   6.521   4.095  2.5142 -1.5392 -1.6088
 9861TIP3    H250999   0.625   6.428   4.041 -1.1653  0.7203  1.2454
 9862TIP3   OH251000   0.618   0.748  11.487  0.0935  0.4484 -0.0802
 9862TIP3    H151001   0.686   0.757  11.420  0.1109 -2.5877 -0.6331
 9862TIP3    H251002   0.667   0.736  11.568  0.2342 -0.7550 -0.3262
 9863TIP3   OH251003   5.221   0.950  12.132  0.0132  0.6107 -0.6267
 9863TIP3    H151004   5.127   0.938  12.140  0.1825 -0.2162  0.4504
 9863TIP3    H251005   5.236   1.042  12.153 -0.5892  0.8511 -1.2364
 9864TIP3   OH251006   2.070   5.776  16.990 -0.6782  0.5770  0.5692
 9864TIP3    H151007   2.024   5.732  17.062 -0.3164  1.6090  1.4602
 9864TIP3    H251008   2.054   5.869  17.006  0.3637  0.8705 -0.0460
 9865TIP3   OH251009   1.791   3.661   3.831  0.2956 -0.6011 -0.1999
 9865TIP3    H151010   1.791   3.619   3.918  0.3069 -1.4945 -0.6133
 9865TIP3    H251011   1.752   3.747   3.846 -2.0149 -1.6398  0.2966
 9866TIP3   OH251012   3.052   6.306   3.211 -0.1178  0.0469 -0.4323
 9866TIP3    H151013   3.013   6.391   3.190  0.8329  0.8682  0.9191
 9866TIP3    H251014   3.034   6.294   3.304  0.7921 -0.6698 -0.3343
 9867TIP3   OH251015   1.219   0.297  14.479 -0.4481 -0.4454  0.0750
 9867TIP3    H151016   1.265   0.316  14.398 -0.9417  0.6625  0.0349
 9867TIP3    H251017   1.286   0.303  14.547 -0.2338 -0.3451 -0.1455
 9868TIP3   OH251018   0.316   5.101   4.237  0.2603 -0.2029  0.1646
 9868TIP3    H151019   0.262   5.022   4.225 -1.1262  0.4569  1.6333
 9868TIP3    H251020   0.297   5.155   4.161 -1.2836  0.0678  0.7189
 9869TIP3   OH251021   5.977   3.938   0.813 -0.2387  0.3003 -0.1501
 9869TIP3    H151022   5.957   4.029   0.790 -1.2499  0.6351  1.8765
 9869TIP3    H251023   5.981   3.893   0.728  1.4136  2.3986 -1.2980
 9870TIP3   OH251024   2.885   1.349   2.190 -0.3862  0.2052 -0.2148
 9870TIP3    H151025   2.834   1.333   2.110  0.9026  1.7986 -1.4226
 9870TIP3    H251026   2.942   1.423   2.168  1.3058 -0.4641  1.5894
 9871TIP3   OH251027   4.734   4.230  15.885  0.1308  1.0888  0.0096
 9871TIP3    H151028   4.759   4.250  15.795 -1.2624 -0.5661 -0.7999
 9871TIP3    H251029   4.743   4.313  15.932  2.0206  1.7129 -1.3515
 9872TIP3   OH251030   6.110   5.774  10.985  0.1580  1.0955  0.3357
 9872TIP3    H151031   6.084   5.683  10.977 -0.4109  1.2757  0.1275
 9872TIP3    H251032   6.108   5.808  10.896  1.8867  0.9093  0.1886
 9873TIP3   OH251033   1.615   2.081   1.103  0.5770  0.6269 -0.3718
 9873TIP3    H151034   1.682   2.018   1.128  2.1614  2.2591 -0.3097
 9873TIP3    H251035   1.583   2.050   1.018  2.7924  0.8241 -1.3312
 9874TIP3   OH251036   2.548   5.396   2.963 -0.4660  0.2772 -0.4809
 9874TIP3    H151037   2.624   5.402   3.021 -0.1757  0.7476 -0.9019
 9874TIP3    H251038   2.505   5.314   2.988 -0.0198  0.1861  0.0027
 9875TIP3   OH251039   1.672   3.375   2.015  0.3858  0.3460 -0.3159
 9875TIP3    H151040   1.710   3.316   2.080  1.0823  2.9510  1.8293
 9875TIP3    H251041   1.580   3.350   2.011  0.3550  0.0001  1.6456
 9876TIP3   OH251042   4.215   1.582  16.971  0.3753  0.5397 -0.2196
 9876TIP3    H151043   4.221   1.674  16.946 -0.1076  0.8009  0.5810
 9876TIP3    H251044   4.237   1.534  16.891  1.9319  1.3401 -0.3109
 9877TIP3   OH251045   4.407   4.963   0.769 -0.4917  0.1523 -0.3758
 9877TIP3    H151046   4.338   4.982   0.833 -0.1376 -0.4975  0.2122
 9877TIP3    H251047   4.488   4.964   0.820 -0.2888 -1.2405 -0.6270
 9878TIP3   OH251048   0.529   3.866   2.733  0.3355  0.3999  0.3355
 9878TIP3    H151049   0.548   3.772   2.733  1.2786  0.5743 -0.1804
 9878TIP3    H251050   0.574   3.899   2.811 -1.2775  0.2158  1.4062
 9879TIP3   OH251051   0.610   2.085   5.485  0.4540 -0.1142  0.0458
 9879TIP3    H151052   0.571   2.138   5.554  0.9019 -0.0251  0.2327
 9879TIP3    H251053   0.699   2.120   5.475  0.7401 -0.8093  0.1466
 9880TIP3   OH251054   4.396   5.575   2.581 -0.0737  0.0109 -0.1197
 9880TIP3    H151055   4.451   5.644   2.544  1.9822 -2.4359 -1.9904
 9880TIP3    H251056   4.345   5.541   2.508 -0.9320 -0.5673  0.7139
 9881TIP3   OH251057   1.401   0.433   1.791  0.0773 -1.1357  0.2217
 9881TIP3    H151058   1.424   0.450   1.699 -0.8033 -0.8430  0.0498
 9881TIP3    H251059   1.375   0.341   1.791 -0.9243 -0.8615 -0.0367
 9882TIP3   OH251060   0.992   0.850   5.569  0.1666  0.2207  0.8628
 9882TIP3    H151061   1.057   0.784   5.545 -1.3241 -0.6983 -0.8186
 9882TIP3    H251062   1.006   0.922   5.507 -1.4793 -0.7182 -0.6831
 9883TIP3   OH251063   2.587   4.343   4.454  0.1709  0.8453  0.2363
 9883TIP3    H151064   2.584   4.266   4.511  0.5553 -0.0696 -0.9480
 9883TIP3    H251065   2.585   4.308   4.365 -0.0759  2.2297 -0.3375
 9884TIP3   OH251066   1.691   3.616  12.029 -0.3439  0.2002  0.2381
 9884TIP3    H151067   1.721   3.526  12.017 -2.2454 -0.2336 -2.0961
 9884TIP3    H251068   1.750   3.669  11.975 -0.5644  0.0335 -0.1733
 9885TIP3   OH251069   6.583   0.267   1.904  0.2928 -0.1291 -0.1949
 9885TIP3    H151070   6.534   0.266   1.986 -1.5440 -0.4928 -1.2249
 9885TIP3    H251071   6.518   0.243   1.837  2.2086 -2.0960 -1.4967
 9886TIP3   OH251072   4.642   5.235  13.299  0.0473 -0.0177 -0.1467
 9886TIP3    H151073   4.556   5.246  13.259  0.8878 -0.5025 -2.2115
 9886TIP3    H251074   4.642   5.297  13.372 -1.9957  0.0581 -0.1389
 9887TIP3   OH251075   3.858   6.212   1.321  0.7554  0.1534  0.2841
 9887TIP3    H151076   3.801   6.205   1.398 -1.7555 -0.0612 -1.4699
 9887TIP3    H251077   3.842   6.301   1.287  1.9809  0.3179  0.0805
 9888TIP3   OH251078   2.697   2.049  12.770 -0.6256 -0.2221  0.2154
 9888TIP3    H151079   2.737   2.135  12.758 -0.8623 -0.0425  0.6813
 9888TIP3    H251080   2.747   1.990  12.713 -0.2751  0.1682  0.1222
 9889TIP3   OH251081   1.279   3.848  15.201 -0.6038 -0.1619 -0.1035
 9889TIP3    H151082   1.372   3.835  15.179 -0.8106  1.4330 -2.2560
 9889TIP3    H251083   1.244   3.760  15.210  0.8315 -0.8189 -0.6555
 9890TIP3   OH251084   5.212   1.738  14.030  0.2365  0.1451  0.4424
 9890TIP3    H151085   5.204   1.745  14.125  1.5912  0.7807  0.5291
 9890TIP3    H251086   5.273   1.665  14.017 -1.0514 -0.8946 -0.0062
 9891TIP3   OH251087   6.313   3.840  13.081 -0.1970 -0.5788 -0.2402
 9891TIP3    H151088   6.233   3.816  13.129  0.6068 -0.1167  1.3694
 9891TIP3    H251089   6.370   3.880  13.146  0.8211  0.3865 -1.6583
 9892TIP3   OH251090   0.739   4.002   4.372 -0.5430  0.4530 -0.4404
 9892TIP3    H151091   0.665   3.955   4.409  0.4982 -2.1716 -1.4736
 9892TIP3    H251092   0.805   4.001   4.441  0.4908 -2.2485 -1.3300
 9893TIP3   OH251093   6.725   3.314  15.831 -0.2586  0.2560 -0.1544
 9893TIP3    H151094   6.678   3.283  15.753 -1.4417 -1.5147  1.1800
 9893TIP3    H251095   6.776   3.238  15.859 -0.5282  0.5723  1.2551
 9894TIP3   OH251096   2.352   5.891  15.023  0.2341  0.4912  0.7278
 9894TIP3    H151097   2.258   5.903  15.007  0.3979  1.2886  0.2829
 9894TIP3    H251098   2.357   5.851  15.109 -0.5803 -1.3409 -0.0297
 9895TIP3   OH251099   2.771   1.971  13.395 -0.1205 -0.1794  0.3379
 9895TIP3    H151100   2.721   1.939  13.320 -0.0659  1.2573 -0.3524
 9895TIP3    H251101   2.863   1.963  13.368 -0.0945  0.1401  0.3233
 9896TIP3   OH251102   0.362   0.580   3.198 -0.3460 -0.2377  0.6899
 9896TIP3    H151103   0.381   0.618   3.284 -1.1369 -1.1184  1.2789
 9896TIP3    H251104   0.291   0.518   3.215  0.2204 -1.2236 -0.4137
 9897TIP3   OH251105   1.422   5.207  16.282 -0.1666 -0.1643  0.2257
 9897TIP3    H151106   1.457   5.249  16.204 -0.3982  1.6644  1.0517
 9897TIP3    H251107   1.496   5.200  16.342  0.0932 -1.8861 -0.2240
 9898TIP3   OH251108   5.788   0.093  16.936 -0.1442  0.2307 -0.1057
 9898TIP3    H151109   5.699   0.060  16.948  0.1517 -0.7367 -0.4527
 9898TIP3    H251110   5.829   0.084  17.022 -0.0775 -0.2978 -0.1870
 9899TIP3   OH251111   2.323   1.695   0.075 -0.5118 -0.4252 -0.4251
 9899TIP3    H151112   2.292   1.746  -0.000 -0.4454 -0.6501 -0.6057
 9899TIP3    H251113   2.247   1.690   0.133 -0.6920 -0.6076 -0.6713
 9900TIP3   OH251114   4.865   5.302  16.969 -0.0290 -0.6531 -0.1576
 9900TIP3    H151115   4.863   5.397  16.975  0.0805 -0.5329 -1.5272
 9900TIP3    H251116   4.781   5.273  17.003  0.0749 -0.0962  0.5852
 9901TIP3   OH251117   3.040   2.733  16.796  0.4234  0.3085 -0.4162
 9901TIP3    H151118   2.980   2.681  16.744  0.8583 -1.4880  0.8104
 9901TIP3    H251119   3.031   2.822  16.761 -2.7572  0.0840 -0.3863
 9902TIP3   OH251120   1.936   1.945   4.359  0.1849  0.2759 -0.1197
 9902TIP3    H151121   1.999   1.957   4.429 -0.6323 -1.2050  0.9469
 9902TIP3    H251122   1.870   2.013   4.374  1.3078  1.6206 -1.0495
 9903TIP3   OH251123   0.743   5.989  14.961 -0.5912 -0.2162  0.1442
 9903TIP3    H151124   0.817   5.967  14.904 -0.0297  0.2437  0.6752
 9903TIP3    H251125   0.734   5.914  15.020  0.0227  0.0852  0.6392
 9904TIP3   OH251126   2.427   0.741  12.530  0.3828  0.4193 -0.4299
 9904TIP3    H151127   2.443   0.821  12.480 -0.8407  1.6827  1.0758
 9904TIP3    H251128   2.502   0.733  12.589  0.8710  0.0212 -1.0971
 9905TIP3   OH251129   0.086   6.259   2.094  0.0321  0.3094  0.2972
 9905TIP3    H151130   0.092   6.345   2.053  0.3112  0.9601  1.6536
 9905TIP3    H251131  -0.002   6.255   2.130  0.8386  1.1573  2.5461
 9906TIP3   OH251132   2.173   2.666  11.207  0.5267  0.1024  0.3480
 9906TIP3    H151133   2.263   2.646  11.182  0.4094 -0.1036  0.0906
 9906TIP3    H251134   2.177   2.756  11.239  0.4096  0.9574 -1.8562
 9907TIP3   OH251135   0.936   5.140   4.182 -0.4980  0.2012 -0.2809
 9907TIP3    H151136   0.841   5.133   4.176 -0.5228 -0.8800  0.8798
 9907TIP3    H251137   0.965   5.050   4.200  0.8182  0.3791 -1.4160
 9908TIP3   OH251138   4.912   3.860  17.072 -0.2086  0.1078  0.5384
 9908TIP3    H151139   4.908   3.928  17.139 -2.4591 -1.0960  1.7281
 9908TIP3    H251140   4.895   3.778  17.119  0.6217 -1.0855 -1.1292
 9909TIP3   OH251141   0.197   4.950   5.442 -0.2523 -0.0294  0.8259
 9909TIP3    H151142   0.126   4.946   5.378 -0.1811 -1.0171  0.7797
 9909TIP3    H251143   0.211   5.043   5.458  0.0588  0.2673 -0.9624
 9910TIP3   OH251144   3.983   3.915   1.998 -0.0111 -0.1161 -0.3261
 9910TIP3    H151145   3.990   3.861   1.920 -0.0798 -1.3131  0.4761
 9910TIP3    H251146   4.057   3.976   1.992 -1.4237  1.5062 -2.5554
 9911TIP3   OH251147   1.544   6.738  13.774  0.6659 -0.6986  0.1682
 9911TIP3    H151148   1.595   6.759  13.697  0.0182 -2.9939 -0.9790
 9911TIP3    H251149   1.534   6.821  13.820  1.3581  0.6770 -2.0280
 9912TIP3   OH251150   2.490   0.842   3.402  0.3165 -0.0762 -0.6965
 9912TIP3    H151151   2.499   0.876   3.313  0.5112 -0.5572 -0.8654
 9912TIP3    H251152   2.564   0.878   3.449 -0.1456  0.7070 -0.5562
 9913TIP3   OH251153   4.985   4.282  11.033  0.0532 -0.3919  0.5610
 9913TIP3    H151154   4.994   4.378  11.030  1.4684 -0.4365  2.0829
 9913TIP3    H251155   5.031   4.251  10.956  0.0304  0.1222  0.3339
 9914TIP3   OH251156   1.459   0.384   6.021  0.5941 -0.0160 -0.0625
 9914TIP3    H151157   1.469   0.301   6.068  1.0544  0.0034 -0.1280
 9914TIP3    H251158   1.428   0.445   6.087 -3.2947 -1.0359 -0.6827
 9915TIP3   OH251159   5.584   5.457   3.166  0.3050  0.2655  0.2472
 9915TIP3    H151160   5.506   5.480   3.217 -1.7564  0.6668 -2.8117
 9915TIP3    H251161   5.577   5.362   3.153  0.3313  0.3000 -0.0234
 9916TIP3   OH251162   3.554   0.437  12.518 -0.0303 -0.4586 -0.5680
 9916TIP3    H151163   3.543   0.486  12.436 -0.2244  1.7814  0.7071
 9916TIP3    H251164   3.546   0.503  12.586 -3.0364 -2.6891  1.4775
 9917TIP3   OH251165   2.402   4.182   5.083  0.6052 -0.3004 -0.7990
 9917TIP3    H151166   2.489   4.159   5.116  0.9977  3.3008  1.0984
 9917TIP3    H251167   2.411   4.272   5.052 -2.7630  0.8773  1.1304
 9918TIP3   OH251168   3.466   2.220   4.807 -0.0552  0.2057  0.6939
 9918TIP3    H151169   3.437   2.303   4.767 -2.2071 -0.6505  0.3997
 9918TIP3    H251170   3.443   2.153   4.742  3.1904 -0.5533  0.1513
 9919TIP3   OH251171   2.718   2.529   2.488 -0.0195  0.1759 -0.7968
 9919TIP3    H151172   2.768   2.449   2.471 -1.6691 -0.5444 -2.6029
 9919TIP3    H251173   2.785   2.597   2.498  1.3860 -1.2301 -0.2521
 9920TIP3   OH251174   2.264   5.716  16.531  0.4843  0.4426  0.3421
 9920TIP3    H151175   2.210   5.768  16.590 -0.0889 -0.5753  0.7329
 9920TIP3    H251176   2.303   5.649  16.587 -0.3483 -0.7569 -0.4770
 9921TIP3   OH251177   0.091   3.093  12.060  0.0517  0.6765 -0.4666
 9921TIP3    H151178   0.086   3.019  12.121  2.2445  1.0635  0.2593
 9921TIP3    H251179   0.029   3.157  12.096 -3.2022 -1.3141 -2.0371
 9922TIP3   OH251180   5.110   5.508  12.349  0.3552 -0.5015  0.1476
 9922TIP3    H151181   5.027   5.534  12.390  0.6726 -0.2142  0.6126
 9922TIP3    H251182   5.171   5.578  12.373  1.1547 -1.5352  1.1972
 9923TIP3   OH251183   5.454   3.231   0.562 -0.4166  0.1445  0.3996
 9923TIP3    H151184   5.378   3.257   0.510 -0.8706  1.1243  1.5065
 9923TIP3    H251185   5.524   3.220   0.498 -1.4147 -0.4986 -0.6096
 9924TIP3   OH251186   1.415   6.439  16.950 -0.1447 -0.0390 -0.5167
 9924TIP3    H151187   1.337   6.445  17.006 -0.4977  1.5894 -1.1330
 9924TIP3    H251188   1.389   6.378  16.880 -1.1752  1.0619 -1.1379
 9925TIP3   OH251189   1.067   4.314  14.950  0.5901  0.1406 -0.0588
 9925TIP3    H151190   1.143   4.257  14.939 -0.1731 -0.9083  0.0088
 9925TIP3    H251191   0.992   4.259  14.927 -0.4063  0.2844  2.6107
 9926TIP3   OH251192   5.591   5.173  15.405  0.2701 -0.5061  0.3298
 9926TIP3    H151193   5.639   5.171  15.488  1.5855 -0.4084 -0.3878
 9926TIP3    H251194   5.586   5.266  15.384 -2.1443 -0.3280  1.4065
 9927TIP3   OH251195   4.851   3.202  16.066 -0.0126 -0.3817  0.1743
 9927TIP3    H151196   4.867   3.289  16.103 -2.3374 -0.0124  0.4097
 9927TIP3    H251197   4.845   3.217  15.972  3.1536 -0.9095 -0.2216
 9928TIP3   OH251198   3.810   0.765  13.674  0.0263  0.2094  0.6382
 9928TIP3    H151199   3.730   0.792  13.628  0.2209  0.6869  0.5747
 9928TIP3    H251200   3.866   0.842  13.671  0.7826 -0.3542  0.0570
 9929TIP3   OH251201   1.391   5.106  17.044 -0.0706 -0.2348 -0.1580
 9929TIP3    H151202   1.472   5.056  17.042  1.3116  1.7143  2.2452
 9929TIP3    H251203   1.399   5.168  16.972  0.9714  0.4511  0.5259
 9930TIP3   OH251204   2.420   5.909  15.849 -0.2795 -0.1003 -0.7773
 9930TIP3    H151205   2.449   5.837  15.905 -1.3287 -0.8053 -1.1268
 9930TIP3    H251206   2.404   5.982  15.909  0.1886 -0.3424 -0.3558
 9931TIP3   OH251207   3.272   3.118   2.817 -0.6534  0.0642  0.1893
 9931TIP3    H151208   3.329   3.195   2.815  2.3477 -1.9579  0.9627
 9931TIP3    H251209   3.246   3.109   2.908 -0.4887 -0.1650  0.2150
 9932TIP3   OH251210   0.199   0.952  10.646  0.3203 -0.0476  0.6910
 9932TIP3    H151211   0.229   1.012  10.715  1.8790 -0.9870  0.8899
 9932TIP3    H251212   0.275   0.943  10.588 -0.1253 -1.2563  0.2699
 9933TIP3   OH251213   3.576   5.034  12.420  0.0822  0.1382 -0.1747
 9933TIP3    H151214   3.617   5.112  12.457 -1.0389  0.6500  0.0513
 9933TIP3    H251215   3.527   4.996  12.494 -0.7214  0.1597 -0.6887
 9934TIP3   OH251216   0.249   5.400   3.481  0.5281 -0.2739 -0.0792
 9934TIP3    H151217   0.325   5.361   3.437  0.5881 -0.2327 -0.0131
 9934TIP3    H251218   0.184   5.330   3.483  0.7662 -0.4899  0.3628
 9935TIP3   OH251219   2.639   5.188   5.689  0.0733  0.4332 -0.1438
 9935TIP3    H151220   2.641   5.283   5.702  1.1280  0.7455 -2.1881
 9935TIP3    H251221   2.555   5.160   5.728  0.0595  2.0668  1.1061
 9936TIP3   OH251222   2.953   1.416   3.019 -0.7431 -1.3254  0.1616
 9936TIP3    H151223   3.042   1.423   3.052 -1.1752 -1.6605  1.4535
 9936TIP3    H251224   2.903   1.480   3.070 -1.4234 -1.8237  0.1458
 9937TIP3   OH251225   4.318   6.172   2.694  0.3746  0.5748  0.2079
 9937TIP3    H151226   4.222   6.168   2.691  0.4048  0.3931 -1.2477
 9937TIP3    H251227   4.346   6.081   2.684  0.7065  0.7347 -0.3631
 9938TIP3   OH251228   2.567   5.916   0.806 -0.5759 -0.3726  0.5769
 9938TIP3    H151229   2.636   5.952   0.862 -1.2366 -1.0149  1.8489
 9938TIP3    H251230   2.574   5.821   0.818 -0.5848 -0.5366 -0.6240
 9939TIP3   OH251231   1.452   3.054   2.448  0.5407 -0.0819  0.1014
 9939TIP3    H151232   1.359   3.041   2.464  0.4081 -0.4293 -0.9147
 9939TIP3    H251233   1.488   2.965   2.447  0.8400  0.0370  0.2224
 9940TIP3   OH251234   6.758   0.881   1.689  0.2003  0.1710 -0.3793
 9940TIP3    H151235   6.797   0.945   1.748  0.1009  0.8332 -1.0181
 9940TIP3    H251236   6.779   0.913   1.601 -0.1770 -0.4716 -0.7124
 9941TIP3   OH251237   2.774   3.737  10.333 -0.1912 -0.1371  0.1226
 9941TIP3    H151238   2.791   3.710  10.423  1.9732  0.5325 -0.0298
 9941TIP3    H251239   2.682   3.713  10.317 -0.8335  0.3342  2.6993
 9942TIP3   OH251240   0.219   4.081  14.193  0.2442  0.7692 -0.2142
 9942TIP3    H151241   0.229   4.170  14.160 -1.7391  1.0651 -0.1807
 9942TIP3    H251242   0.145   4.045  14.142  0.1914 -0.4004  0.6429
 9943TIP3   OH251243   4.678   5.341  12.391  0.5734 -0.1184 -0.1470
 9943TIP3    H151244   4.723   5.296  12.462  0.1246 -0.3131  0.0172
 9943TIP3    H251245   4.663   5.273  12.325 -0.0940 -0.2077  0.0965
 9944TIP3   OH251246   6.668   6.400  11.243  0.1716 -0.1964 -0.7533
 9944TIP3    H151247   6.637   6.434  11.159 -0.0233  0.3883 -0.4508
 9944TIP3    H251248   6.595   6.347  11.276 -0.7096  1.5130  0.1531
 9945TIP3   OH251249   3.493   2.961   2.367  0.1161 -0.4796 -0.4797
 9945TIP3    H151250   3.467   2.878   2.328 -1.2141 -0.2722 -0.0789
 9945TIP3    H251251   3.493   2.945   2.462 -0.7208  0.1144 -0.3657
 9946TIP3   OH251252   6.133   4.089  11.596 -0.3205 -0.2558  0.0963
 9946TIP3    H151253   6.048   4.080  11.640 -0.3408 -1.1479 -0.1123
 9946TIP3    H251254   6.171   4.169  11.633 -0.3890 -0.9104  1.6360
 9947TIP3   OH251255   1.195   3.567   2.318  0.2551  0.3938  0.3236
 9947TIP3    H151256   1.234   3.483   2.344 -0.1664  0.3431  0.8029
 9947TIP3    H251257   1.261   3.607   2.262  1.6876  1.0145  2.3337
 9948TIP3   OH251258   1.903   4.725  15.677 -0.2819  0.2145  0.0234
 9948TIP3    H151259   1.833   4.786  15.655  1.5711  2.0215 -1.2498
 9948TIP3    H251260   1.918   4.676  15.596  0.7924  0.8096 -0.1588
 9949TIP3   OH251261   1.716   0.514  14.117  0.1045  0.1650 -0.6285
 9949TIP3    H151262   1.638   0.459  14.108 -0.1688  0.4269  0.0165
 9949TIP3    H251263   1.696   0.592  14.065 -0.7464  0.9261  0.7582
 9950TIP3   OH251264   6.465   3.228  12.047 -0.0985  0.0221  0.2761
 9950TIP3    H151265   6.552   3.254  12.074  0.8434 -3.5549  1.2761
 9950TIP3    H251266   6.412   3.231  12.127 -0.0577 -0.6443  0.3388
 9951TIP3   OH251267   2.821   5.798  16.325  0.1074 -0.2129 -0.7427
 9951TIP3    H151268   2.728   5.815  16.311  0.6575  1.9590 -2.2548
 9951TIP3    H251269   2.827   5.766  16.415 -2.0088  0.2708 -0.3924
 9952TIP3   OH251270   3.316   0.690  13.575  0.3547  0.2166  0.3940
 9952TIP3    H151271   3.296   0.604  13.611  1.2155 -0.7581 -1.3129
 9952TIP3    H251272   3.285   0.752  13.641  1.6799 -1.4186  2.6796
 9953TIP3   OH251273   2.883   5.700  16.044 -0.0710 -0.0866  0.2802
 9953TIP3    H151274   2.801   5.691  16.092  1.1858 -3.1173  2.1482
 9953TIP3    H251275   2.951   5.693  16.111  1.7669  1.5626 -1.2864
 9954TIP3   OH251276   4.833   3.191   2.706  0.2023 -0.4509 -0.0277
 9954TIP3    H151277   4.893   3.258   2.738  0.6053  0.2851 -2.1707
 9954TIP3    H251278   4.881   3.109   2.714  1.5762  0.1271 -1.7223
 9955TIP3   OH251279   4.109   0.505  15.614 -0.3354  0.1691 -0.3567
 9955TIP3    H151280   4.032   0.561  15.619  1.1890  2.4710 -1.0131
 9955TIP3    H251281   4.095   0.451  15.536 -0.5363  1.8220 -1.5103
 9956TIP3   OH251282   5.968   2.351  13.401  0.3307 -0.4453  0.2799
 9956TIP3    H151283   5.915   2.300  13.340 -0.2373 -0.2288  0.5863
 9956TIP3    H251284   6.043   2.294  13.422  0.4565 -0.5715 -0.5050
 9957TIP3   OH251285   5.042   3.686   4.843 -0.4287  0.8651 -0.8146
 9957TIP3    H151286   5.058   3.772   4.803 -0.9775  0.0469 -2.9504
 9957TIP3    H251287   5.116   3.633   4.815 -0.0038  0.6583  0.6412
 9958TIP3   OH251288   3.363   5.712   1.597 -0.2680 -0.1188 -0.3773
 9958TIP3    H151289   3.345   5.689   1.506  0.4417  1.7532 -1.0248
 9958TIP3    H251290   3.438   5.771   1.593  0.1048 -0.4051  1.4751
 9959TIP3   OH251291   5.640   4.315   1.992 -0.3203 -0.3015 -0.2901
 9959TIP3    H151292   5.675   4.311   1.903  0.5986 -2.6007  0.1029
 9959TIP3    H251293   5.550   4.282   1.984 -0.5969  0.4977 -0.5122
 9960TIP3   OH251294   1.397   5.087  14.231  0.2211 -0.1714 -0.0295
 9960TIP3    H151295   1.414   5.002  14.190  1.9202 -0.4779  1.2320
 9960TIP3    H251296   1.463   5.145  14.192 -0.4734  0.4204 -0.3514
 9961TIP3   OH251297   1.407   4.260  12.440 -0.4727 -0.0364 -0.1639
 9961TIP3    H151298   1.441   4.349  12.436  1.0277 -0.5935 -0.7057
 9961TIP3    H251299   1.447   4.215  12.366  0.5187 -1.7093  1.2925
 9962TIP3   OH251300   1.854   3.131   0.020 -0.1833  0.6134 -0.1590
 9962TIP3    H151301   1.831   3.047  -0.019  0.5276  0.3920 -0.1010
 9962TIP3    H251302   1.947   3.143   0.001 -0.0333  0.9041  0.7170
 9963TIP3   OH251303   3.326   3.714  16.640  0.8255  0.1832  0.2438
 9963TIP3    H151304   3.235   3.743  16.637  0.0670 -2.0686  0.1209
 9963TIP3    H251305   3.373   3.777  16.586 -0.3232  2.4037  1.6868
 9964TIP3   OH251306   0.171   4.028  17.113 -0.2975 -0.7107  0.2885
 9964TIP3    H151307   0.145   3.954  17.168 -1.0480 -0.5160  0.2136
 9964TIP3    H251308   0.234   3.992  17.051 -0.8406 -1.3446  0.0917
 9965TIP3   OH251309   5.830   2.037  11.424 -0.5020  0.6014 -0.3330
 9965TIP3    H151310   5.824   1.950  11.384 -0.3328  1.2566 -1.8503
 9965TIP3    H251311   5.824   2.098  11.350  0.3133  1.8660  0.6007
 9966TIP3   OH251312   6.213   3.768  14.365 -0.0852 -0.1496 -0.6522
 9966TIP3    H151313   6.184   3.703  14.301  0.0693 -1.0344  0.1496
 9966TIP3    H251314   6.142   3.832  14.368 -0.3484 -0.4010 -1.2780
 9967TIP3   OH251315   6.103   0.384   3.899  0.0942 -0.7292  0.2202
 9967TIP3    H151316   6.072   0.402   3.987 -0.7309 -1.7295  0.1516
 9967TIP3    H251317   6.031   0.410   3.842 -0.8680 -3.3851  0.0843
 9968TIP3   OH251318   0.280   3.550  11.987  0.3066  0.3748 -0.3034
 9968TIP3    H151319   0.364   3.577  12.023  0.2168 -2.0288  2.0843
 9968TIP3    H251320   0.230   3.518  12.062 -1.2540 -1.8791 -2.1169
 9969TIP3   OH251321   2.841   3.161  16.644  0.0658 -0.1074 -0.2215
 9969TIP3    H151322   2.841   3.218  16.721  1.3926 -1.6835  1.0067
 9969TIP3    H251323   2.758   3.182  16.600 -0.8001  0.7609  1.6705
 9970TIP3   OH251324   5.302   4.380  11.051 -0.0632  0.1753 -0.1718
 9970TIP3    H151325   5.296   4.355  10.959  2.7701  0.5662 -0.5544
 9970TIP3    H251326   5.283   4.474  11.052 -0.7986  0.0333 -0.2254
 9971TIP3   OH251327   0.408   6.060   4.903 -0.2619  0.2332 -0.0316
 9971TIP3    H151328   0.317   6.054   4.932 -0.2574 -0.5981 -0.1635
 9971TIP3    H251329   0.415   5.996   4.832  0.6093 -0.2661  0.4872
 9972TIP3   OH251330   2.348   1.035   4.819 -0.5398 -0.0761  0.5693
 9972TIP3    H151331   2.430   1.085   4.815 -0.8003  0.3027 -0.7004
 9972TIP3    H251332   2.339   1.010   4.911 -1.1732  3.5684  1.6570
 9973TIP3   OH251333   6.195   5.189   3.877  0.4415 -0.2321 -0.1239
 9973TIP3    H151334   6.178   5.276   3.841  1.8359  0.4742  0.8118
 9973TIP3    H251335   6.207   5.204   3.971 -2.2600 -1.9001  0.5880
 9974TIP3   OH251336   3.002   2.670   5.021  0.3319 -0.0507  0.0360
 9974TIP3    H151337   2.940   2.732   4.982 -1.0093 -0.2902  1.6304
 9974TIP3    H251338   2.975   2.665   5.113  1.2413 -1.9836  0.2477
 9975TIP3   OH251339   6.026   4.450  10.594 -0.2302  0.1968 -0.5309
 9975TIP3    H151340   5.992   4.532  10.630 -0.0246  0.5344 -1.0896
 9975TIP3    H251341   5.991   4.382  10.651  1.3625  0.8039  1.2868
 9976TIP3   OH251342   2.102   1.749   0.233  0.2764 -0.5325  0.5430
 9976TIP3    H151343   2.125   1.689   0.304 -2.6210 -0.9596  1.2323
 9976TIP3    H251344   2.008   1.737   0.220 -1.0295  5.2349  2.0994
 9977TIP3   OH251345   5.737   6.307   5.256 -0.3320 -0.3453  0.2444
 9977TIP3    H151346   5.775   6.257   5.328 -0.8849 -0.8429  0.1950
 9977TIP3    H251347   5.804   6.306   5.188  0.1657  0.0675  0.7174
 9978TIP3   OH251348   1.907   4.955   1.061  0.3024 -0.1218  0.0214
 9978TIP3    H151349   1.937   4.995   1.143 -0.4667 -0.0926  0.2926
 9978TIP3    H251350   1.929   5.019   0.994  0.2543  0.1869  0.2956
 9979TIP3   OH251351   1.048   1.223  11.269 -0.2824  0.3179 -0.1177
 9979TIP3    H151352   1.018   1.314  11.265 -0.4616  0.2174 -2.0310
 9979TIP3    H251353   1.112   1.216  11.198  0.6892 -0.7417  0.8191
 9980TIP3   OH251354   3.230   6.204  11.945 -0.3914 -0.3580  0.0483
 9980TIP3    H151355   3.283   6.183  12.022 -0.3821  2.8394  1.0442
 9980TIP3    H251356   3.141   6.176  11.969 -0.2784  0.0645  0.9881
 9981TIP3   OH251357   1.445   0.836   4.713 -0.1512  0.1044 -0.2792
 9981TIP3    H151358   1.487   0.894   4.650  0.2198  1.9411  1.5784
 9981TIP3    H251359   1.517   0.792   4.758 -0.3855 -0.4039 -0.3870
 9982TIP3   OH251360   4.683   5.652   0.062  0.0559 -0.0606  0.1240
 9982TIP3    H151361   4.668   5.723   0.124 -0.3871  0.0607 -0.1250
 9982TIP3    H251362   4.676   5.572   0.115  3.0253  0.1169  0.9483
 9983TIP3   OH251363   4.386   6.269  16.766 -0.0512  0.3724  0.4977
 9983TIP3    H151364   4.436   6.349  16.752 -1.7559  1.3774 -0.1920
 9983TIP3    H251365   4.390   6.253  16.860  0.5203  1.1254  0.6019
 9984TIP3   OH251366   3.497   5.393   3.753  0.3307  0.1270  0.6239
 9984TIP3    H151367   3.504   5.418   3.661 -0.2318 -1.1020  0.2236
 9984TIP3    H251368   3.442   5.460   3.793 -1.0166 -0.3648 -0.3754
 9985TIP3   OH251369   0.248   3.483   3.751  0.1104 -0.0691 -0.2549
 9985TIP3    H151370   0.206   3.554   3.799  1.1168  0.5848 -0.3042
 9985TIP3    H251371   0.194   3.470   3.673  1.5910  2.8612 -1.9364
 9986TIP3   OH251372   3.626   1.640   5.623 -0.1012  0.0602 -0.7282
 9986TIP3    H151373   3.674   1.655   5.541  1.0308  0.5691  0.0003
 9986TIP3    H251374   3.585   1.724   5.642  2.7769  1.1971  1.1550
 9987TIP3   OH251375   3.237   0.921  12.788 -0.5885  0.1809 -0.0667
 9987TIP3    H151376   3.305   0.975  12.826 -1.8387  1.5056  0.3882
 9987TIP3    H251377   3.250   0.835  12.827 -0.5394  0.9810  1.7514
 9988TIP3   OH251378   6.726   5.375   4.237  0.3841  0.2343  0.2396
 9988TIP3    H151379   6.656   5.352   4.176  2.4653 -1.8680 -1.5264
 9988TIP3    H251380   6.706   5.325   4.316 -0.2091 -0.2150 -0.1839
 9989TIP3   OH251381   5.825   3.244   3.144  0.0556 -0.4249  0.1491
 9989TIP3    H151382   5.740   3.276   3.114 -0.2299 -1.2327  0.0948
 9989TIP3    H251383   5.868   3.322   3.180 -0.1930  0.2478 -0.9755
 9990TIP3   OH251384   1.814   4.079   1.810 -0.1576  0.0769  0.5346
 9990TIP3    H151385   1.904   4.082   1.842  0.1032  0.5427 -0.2075
 9990TIP3    H251386   1.794   4.170   1.787 -0.4602 -0.1821 -0.2608
 9991TIP3   OH251387   0.964   2.272  12.356 -1.0033 -0.3621  0.6313
 9991TIP3    H151388   0.949   2.178  12.344  1.7919 -0.6144 -1.8568
 9991TIP3    H251389   1.001   2.278  12.444  0.3352 -1.8742  0.2281
 9992TIP3   OH251390   6.655   0.242   5.570 -0.0990  0.3446  0.2271
 9992TIP3    H151391   6.701   0.300   5.630  1.3139  1.4117 -1.7515
 9992TIP3    H251392   6.724   0.206   5.514 -1.3919 -0.1288 -1.1282
 9993TIP3   OH251393   4.764   1.406   2.816 -0.3722  0.4029  0.6082
 9993TIP3    H151394   4.755   1.500   2.828  1.4094  0.5457  1.2282
 9993TIP3    H251395   4.675   1.373   2.812 -1.0458  2.1909 -0.3634
 9994TIP3   OH251396   4.554   3.486   1.123  0.1405 -0.0675 -0.0416
 9994TIP3    H151397   4.462   3.511   1.128 -0.2733 -1.6607  0.9653
 9994TIP3    H251398   4.581   3.508   1.033 -1.4041 -0.2174 -0.5595
 9995TIP3   OH251399   1.773   6.207   0.859  0.1946 -0.8218  0.1454
 9995TIP3    H151400   1.857   6.170   0.832  1.1513  0.3849  1.3688
 9995TIP3    H251401   1.795   6.289   0.903 -1.5546 -0.8986  1.2630
 9996TIP3   OH251402   4.899   0.160   4.074 -0.3500 -0.4031  0.3167
 9996TIP3    H151403   4.960   0.116   4.134 -1.4853 -1.0055  1.0691
 9996TIP3    H251404   4.953   0.188   4.000  0.8434 -0.8427  1.0010
 9997TIP3   OH251405   1.205   2.406  13.475 -0.5473  0.3868 -0.2400
 9997TIP3    H151406   1.234   2.315  13.475  0.9983  0.8574 -0.2739
 9997TIP3    H251407   1.170   2.421  13.387  0.3427  0.1676 -0.6341
 9998TIP3   OH251408   4.270   6.793  12.100 -0.6461  0.0871  0.1677
 9998TIP3    H151409   4.308   6.805  12.188  1.9131 -0.9977 -0.6850
 9998TIP3    H251410   4.244   6.701  12.098 -0.6621  0.1001 -0.2280
 9999TIP3   OH251411   5.782   4.102   3.937 -0.3111 -0.3628  0.1816
 9999TIP3    H151412   5.806   4.194   3.940  1.5381 -0.8161  1.1191
 9999TIP3    H251413   5.746   4.083   4.024  0.3429 -0.7569  0.3741
10000TIP3   OH251414   1.729   0.758  13.609 -0.0878 -0.4701  0.0644
10000TIP3    H151415   1.761   0.833  13.659 -0.0458 -0.1916 -0.3783
10000TIP3    H251416   1.806   0.703  13.595 -0.3861 -1.3980  1.7355
10001TIP3   OH251417   6.549   3.122  11.454  0.5510  0.4426 -0.2327
10001TIP3    H151418   6.573   3.111  11.362  1.1655  1.6437 -0.2303
10001TIP3    H251419   6.565   3.215  11.473 -0.9547  0.5444  0.6940
10002TIP3   OH251420   4.788   5.548  11.110 -0.4411  0.3361 -0.2246
10002TIP3    H151421   4.756   5.638  11.110  0.0949  0.5402  1.1283
10002TIP3    H251422   4.801   5.526  11.202 -0.1367 -0.9792 -0.5532
10003TIP3   OH251423   1.681   3.349   0.121 -0.1535  0.3714  0.2949
10003TIP3    H151424   1.741   3.278   0.099 -0.7485  0.0473 -0.3343
10003TIP3    H251425   1.737   3.426   0.133  0.3869  0.0668 -0.2499
10004TIP3   OH251426   4.793   1.678  13.679  0.1280  0.7018  0.5160
10004TIP3    H151427   4.747   1.598  13.655 -2.4344  1.7550  1.6050
10004TIP3    H251428   4.833   1.658  13.764  0.6103  0.2061  0.1835
10005TIP3   OH251429   5.914   2.344  14.069  0.0292  0.0922  0.4471
10005TIP3    H151430   5.872   2.376  14.149 -1.4218  0.9274 -0.5958
10005TIP3    H251431   5.995   2.394  14.063  0.8180 -0.8967  2.0318
10006TIP3   OH251432   5.494   6.009  11.889  0.6448  0.5171 -0.5678
10006TIP3    H151433   5.492   6.012  11.793  0.1265 -0.5548 -0.6044
10006TIP3    H251434   5.418   6.060  11.916  0.7465  0.7533 -0.7120
10007TIP3   OH251435   1.242   6.146  13.061 -0.6343 -0.1763  0.2362
10007TIP3    H151436   1.331   6.147  13.025 -0.2704 -2.9564  0.7839
10007TIP3    H251437   1.224   6.237  13.084  1.3581  0.7567 -1.5286
10008TIP3   OH251438   3.610   5.987   0.292 -0.3196  0.5260 -0.1328
10008TIP3    H151439   3.565   6.017   0.371  0.5887  1.6859 -0.0216
10008TIP3    H251440   3.693   5.952   0.323 -1.2082 -1.9312 -0.2982
10009TIP3   OH251441   6.081   6.623  10.678  0.2210  0.0209 -0.6295
10009TIP3    H151442   6.028   6.559  10.726  2.0435 -0.2336  1.1822
10009TIP3    H251443   6.019   6.666  10.619 -2.4018  0.8951  2.4616
10010TIP3   OH251444   6.751   0.862  10.548 -0.0767  0.0224 -0.0749
10010TIP3    H151445   6.837   0.879  10.587 -0.7063  0.0993  1.3615
10010TIP3    H251446   6.744   0.766  10.549  0.3071 -0.0235 -0.9474
10011TIP3   OH251447   2.970   0.958   5.594  0.3567 -0.1233  0.1509
10011TIP3    H151448   2.908   0.972   5.665  0.4738  0.3705  0.1660
10011TIP3    H251449   3.049   1.004   5.622 -0.3151  2.0879 -1.2660
10012TIP3   OH251450   4.098   3.933  12.409  0.3200 -0.2114  0.1323
10012TIP3    H151451   4.059   3.913  12.324 -0.5348 -0.3896  0.5475
10012TIP3    H251452   4.039   3.891  12.472  1.6196 -1.1581  0.7723
10013TIP3   OH251453   5.652   4.180  11.162  0.3000 -0.0467  0.1327
10013TIP3    H151454   5.654   4.195  11.068 -1.6403 -1.2329 -0.1535
10013TIP3    H251455   5.608   4.257  11.198 -1.4312 -0.8069 -0.2792
10014TIP3   OH251456   4.936   4.216   0.351  0.1927  0.1347 -0.0445
10014TIP3    H151457   5.025   4.228   0.385  0.6238 -2.4652 -0.0457
10014TIP3    H251458   4.898   4.304   0.353  2.4533  1.1901  0.7696
10015TIP3   OH251459   5.190   0.855   3.655 -0.7017 -0.7275 -0.1081
10015TIP3    H151460   5.242   0.899   3.588 -0.5808 -0.2013  0.3323
10015TIP3    H251461   5.101   0.890   3.644 -0.6498 -0.5305  0.1072
10016TIP3   OH251462   0.999   0.844   3.106  0.4889 -0.5336 -0.1246
10016TIP3    H151463   0.949   0.768   3.135  0.2853 -0.3190  0.0880
10016TIP3    H251464   1.067   0.808   3.048 -0.4522 -0.7443 -1.1338
10017TIP3   OH251465   3.044   4.353  12.028  0.0016 -0.3460 -0.0702
10017TIP3    H151466   3.067   4.401  11.948 -2.8489  2.5098  0.6095
10017TIP3    H251467   3.110   4.381  12.092  2.0879 -2.3783 -1.1970
10018TIP3   OH251468   3.252   1.644   0.433  0.3502 -0.0675  0.5131
10018TIP3    H151469   3.282   1.677   0.517  0.7559  1.0668 -0.0594
10018TIP3    H251470   3.316   1.575   0.411  0.9880  0.4994  0.5515
10019TIP3   OH251471   0.780   3.637   4.007 -0.2252 -0.0624 -0.3245
10019TIP3    H151472   0.871   3.606   4.007 -0.2160 -0.0363  0.0195
10019TIP3    H251473   0.782   3.719   4.056 -0.3342  0.2442 -0.8270
10020TIP3   OH251474   1.323   3.175  14.723 -0.2257 -0.2794 -0.7059
10020TIP3    H151475   1.379   3.109  14.764 -0.2602 -0.1138 -0.3922
10020TIP3    H251476   1.279   3.128  14.652  0.4985 -0.3554 -1.1240
10021TIP3   OH251477   6.211   1.986  12.111 -0.1994  0.0762  0.5449
10021TIP3    H151478   6.151   2.011  12.181 -0.5566  2.4803 -0.5240
10021TIP3    H251479   6.155   1.940  12.048  0.2780 -2.8424  2.0881
10022TIP3   OH251480   0.167   2.712  13.996  0.2509  0.0136  0.3086
10022TIP3    H151481   0.216   2.740  14.073  1.6204 -1.0938 -0.1281
10022TIP3    H251482   0.187   2.777  13.929 -0.1338  0.4137  0.5725
10023TIP3   OH251483   5.675   2.790   0.852 -0.1697 -0.2717  0.2660
10023TIP3    H151484   5.703   2.726   0.788 -0.6673 -0.8354  0.6015
10023TIP3    H251485   5.702   2.875   0.816  1.1966 -0.7235  0.1973
10024TIP3   OH251486   3.017   2.072  11.048  0.1993 -0.2107  0.4034
10024TIP3    H151487   3.019   2.079  11.144  1.0999  2.1012  0.2617
10024TIP3    H251488   2.946   2.129  11.021 -0.0524 -0.8507 -0.3443
10025TIP3   OH251489   0.469   5.396  16.433  0.4294  0.1554  0.5543
10025TIP3    H151490   0.408   5.469  16.442 -0.0849 -0.0533 -0.9260
10025TIP3    H251491   0.515   5.413  16.350 -1.2411 -2.2313 -1.0000
10026TIP3   OH251492   6.696   1.001   1.354  0.0197 -0.1269  0.3161
10026TIP3    H151493   6.715   1.075   1.411 -1.0778  0.6612 -0.2961
10026TIP3    H251494   6.763   0.936   1.375 -0.3585  0.1180  2.4998
10027TIP3   OH251495   1.355   0.855   2.450  0.6615 -0.3034 -0.2763
10027TIP3    H151496   1.447   0.845   2.423  0.5670  0.1431 -0.8072
10027TIP3    H251497   1.306   0.810   2.382  0.5008 -0.8425  0.1954
10028TIP3   OH251498   1.985   0.620   1.933  0.3614  0.0198 -0.1469
10028TIP3    H151499   1.943   0.682   1.992 -1.0418  0.2887 -1.3677
10028TIP3    H251500   1.926   0.614   1.858  1.7972 -0.7500 -1.2731
10029TIP3   OH251501   0.609   6.596  15.579  0.5687  0.2473 -1.2454
10029TIP3    H151502   0.529   6.582  15.630  0.3620 -0.7658 -1.8196
10029TIP3    H251503   0.679   6.563  15.635  0.3749 -0.5783 -1.4748
10030TIP3   OH251504   5.601   3.087  15.994 -0.1152 -0.0357  0.4608
10030TIP3    H151505   5.514   3.072  16.033 -0.2623  2.6215  1.3382
10030TIP3    H251506   5.599   3.178  15.966  2.8312  0.5090  1.7070
10031TIP3   OH251507   0.919   3.122  13.514 -0.2899  0.1870 -0.4284
10031TIP3    H151508   0.886   3.135  13.604  0.4103  0.5725 -0.2233
10031TIP3    H251509   0.972   3.200  13.497  2.1746 -1.3138 -0.0222
10032TIP3   OH251510   6.264   6.070  11.653 -0.4159 -0.1622 -0.1676
10032TIP3    H151511   6.349   6.037  11.684 -0.5769  0.3878  0.9210
10032TIP3    H251512   6.212   6.079  11.733 -1.9596 -1.7297 -0.9203
10033TIP3   OH251513   1.099   3.709   1.328  0.0722  0.0816  0.7655
10033TIP3    H151514   1.096   3.693   1.422  0.0092  0.5123  0.8398
10033TIP3    H251515   1.163   3.646   1.295 -0.7085 -0.8189  0.9340
10034TIP3   OH251516   3.739   0.431   0.261 -0.4396  0.3898  0.5731
10034TIP3    H151517   3.775   0.501   0.206  1.8913  0.1026  1.6229
10034TIP3    H251518   3.714   0.474   0.342  1.0384  0.0642  1.2375
10035TIP3   OH251519   1.552   5.258   1.848  0.5795  0.9693 -0.1016
10035TIP3    H151520   1.520   5.264   1.938  1.3984  1.0644  0.1872
10035TIP3    H251521   1.632   5.206   1.854  1.0480  1.6022 -0.6655
10036TIP3   OH251522   4.509   4.108   1.826  0.6588 -0.2501  0.4087
10036TIP3    H151523   4.526   4.201   1.839  2.5072 -0.3980 -0.6588
10036TIP3    H251524   4.501   4.097   1.731  0.1631 -1.1455  0.5334
10037TIP3   OH251525   4.319   2.452   0.316 -0.1394  0.1060  0.2265
10037TIP3    H151526   4.224   2.445   0.304 -0.1527 -0.3201  0.5368
10037TIP3    H251527   4.344   2.530   0.267 -0.7034  0.4314  0.4416
10038TIP3   OH251528   1.361   6.499   4.047  0.2181  0.1087 -0.1144
10038TIP3    H151529   1.373   6.589   4.018 -0.2161  0.5738  1.0867
10038TIP3    H251530   1.404   6.446   3.980  0.2927  1.1930 -0.9436
10039TIP3   OH251531   6.651   1.973   1.629 -0.0195  0.0837 -0.3675
10039TIP3    H151532   6.687   2.060   1.647  1.5154 -0.5713 -0.1444
10039TIP3    H251533   6.688   1.948   1.545 -0.6918 -0.2396 -0.5730
10040TIP3   OH251534   4.857   6.541  13.842 -0.2902  0.1820  0.2024
10040TIP3    H151535   4.943   6.513  13.811  0.7719  2.1721  1.1696
10040TIP3    H251536   4.807   6.559  13.763 -0.1220 -1.7505 -0.3859
10041TIP3   OH251537   4.138   6.222  11.514  0.6756 -0.2904  0.5276
10041TIP3    H151538   4.095   6.293  11.562  0.5981 -0.0393  0.0985
10041TIP3    H251539   4.158   6.261  11.428  1.3238 -0.5555  0.5586
10042TIP3   OH251540   4.913   4.412   5.318  0.1686  0.0903 -0.2644
10042TIP3    H151541   4.855   4.342   5.347 -0.3253 -0.3970 -2.2634
10042TIP3    H251542   4.895   4.420   5.224  2.5172  0.6953 -0.7261
10043TIP3   OH251543   2.666   3.576   1.908 -0.1328  0.8255 -0.6228
10043TIP3    H151544   2.731   3.636   1.944  0.9022 -0.0335 -1.0184
10043TIP3    H251545   2.669   3.589   1.814  0.2965 -0.0171 -0.7387
10044TIP3   OH251546   5.426   4.621   0.456 -0.1424  0.4546 -0.1706
10044TIP3    H151547   5.455   4.684   0.389 -1.7236  1.0650 -0.3249
10044TIP3    H251548   5.339   4.595   0.428  0.3990 -1.7366 -0.0220
10045TIP3   OH251549   4.602   3.035  15.426  0.3333 -0.1211 -0.1605
10045TIP3    H151550   4.541   3.014  15.355  0.9278  2.4159 -1.5485
10045TIP3    H251551   4.552   3.090  15.486  0.2718 -1.0444  0.6788
10046TIP3   OH251552   1.639   5.010  12.576 -0.1986 -0.5468  0.2082
10046TIP3    H151553   1.590   5.007  12.658  0.4745  1.5911  0.7645
10046TIP3    H251554   1.600   5.084  12.528  0.4841 -0.7452 -0.6805
10047TIP3   OH251555   4.457   6.273  12.072 -0.1771 -0.1306 -0.4386
10047TIP3    H151556   4.486   6.213  12.003  0.9281  1.1192 -1.1040
10047TIP3    H251557   4.538   6.300  12.116 -0.7535  0.0923  0.5095
10048TIP3   OH251558   2.942   2.088  16.719 -0.5741  0.0148  0.8952
10048TIP3    H151559   3.028   2.057  16.748  0.4683  0.4471 -1.4818
10048TIP3    H251560   2.947   2.183  16.728 -0.6453  0.0671  0.4150
10049TIP3   OH251561   5.119   6.052  10.091 -0.1949  0.0395  0.0444
10049TIP3    H151562   5.105   6.125  10.032  0.6606  0.5102  0.3998
10049TIP3    H251563   5.176   5.992  10.043  0.8496  0.6213  0.5247
10050TIP3   OH251564   2.610   0.411  10.955 -0.4778 -0.2490 -0.1523
10050TIP3    H151565   2.665   0.478  10.914 -0.7541  0.1501  0.1221
10050TIP3    H251566   2.522   0.449  10.955 -0.4684 -0.2085  0.8873
10051TIP3   OH251567   3.908   4.256  13.181 -0.1717 -0.2105 -0.5279
10051TIP3    H151568   3.872   4.244  13.269  1.2434 -1.7908 -0.1126
10051TIP3    H251569   3.918   4.350  13.171 -2.3738  0.1371  0.1405
10052TIP3   OH251570   3.204   0.689  16.752 -0.5606 -0.2067 -0.4363
10052TIP3    H151571   3.125   0.636  16.768 -0.0455 -0.8657 -0.0511
10052TIP3    H251572   3.196   0.763  16.812 -1.7310  0.6695 -1.5942
10053TIP3   OH251573   3.201   0.295   5.270 -0.1430 -1.0219  0.8139
10053TIP3    H151574   3.216   0.292   5.176 -0.8797 -0.6594  0.6762
10053TIP3    H251575   3.200   0.203   5.297 -0.3419 -1.1476  0.3935
10054TIP3   OH251576   1.161   1.654   4.039  0.0257 -0.7787  0.5175
10054TIP3    H151577   1.188   1.562   4.035  0.7798 -0.5419  0.0073
10054TIP3    H251578   1.243   1.703   4.033 -0.4838 -0.0475 -0.9037
10055TIP3   OH251579   5.776   4.000  10.962  0.9932 -0.3621  0.1183
10055TIP3    H151580   5.763   4.081  11.012  0.7174 -0.5481  0.3463
10055TIP3    H251581   5.752   4.023  10.873 -0.2571 -0.5188  0.4067
10056TIP3   OH251582   6.236   1.145   3.036 -0.0220  0.1265 -0.2539
10056TIP3    H151583   6.243   1.210   3.105  0.5884 -0.2090  0.0067
10056TIP3    H251584   6.323   1.143   2.996 -0.0933 -0.3736 -0.3934
10057TIP3   OH251585   4.195   5.858   4.476 -0.4340  0.0660 -0.3091
10057TIP3    H151586   4.131   5.789   4.457 -0.3971  0.3176 -1.4265
10057TIP3    H251587   4.276   5.811   4.495 -0.5182 -0.2133 -0.6359
10058TIP3   OH251588   3.788   6.767   5.116  0.3047  0.6523  0.2665
10058TIP3    H151589   3.883   6.757   5.122  0.3762  1.2111  0.1335
10058TIP3    H251590   3.757   6.680   5.089  0.6565  0.1322  1.4562
10059TIP3   OH251591   1.139   4.215  11.334  0.3005  0.2327  0.0525
10059TIP3    H151592   1.133   4.123  11.359  0.9544  0.4104  0.9303
10059TIP3    H251593   1.118   4.263  11.415 -0.1520  0.8570 -0.4232
10060TIP3   OH251594   4.147   5.485   1.108 -0.1568  0.0799  0.2274
10060TIP3    H151595   4.164   5.577   1.130 -1.1225  0.5279 -0.8297
10060TIP3    H251596   4.136   5.441   1.193 -1.9974  1.3949  0.7282
10061TIP3   OH251597   4.673   5.798   3.477 -0.6530  0.3051 -0.0396
10061TIP3    H151598   4.690   5.725   3.418 -0.3919 -0.5341  1.0406
10061TIP3    H251599   4.725   5.871   3.442  0.4738 -0.5314 -0.1510
10062TIP3   OH251600   6.104   3.768  13.335  0.4078 -0.0653 -0.6084
10062TIP3    H151601   6.073   3.780  13.425  0.3968 -1.4631 -0.4077
10062TIP3    H251602   6.026   3.740  13.287  0.4010  0.7307 -1.0878
10063TIP3   OH251603   5.674   5.909   3.355 -0.4069  0.0518  0.3354
10063TIP3    H151604   5.733   5.914   3.280  0.2127  0.6820  0.8567
10063TIP3    H251605   5.588   5.891   3.317  0.1255 -0.9704 -0.4279
10064TIP3   OH251606   2.951   0.777  15.365 -0.0283 -0.4274  0.0373
10064TIP3    H151607   2.867   0.735  15.349 -0.1880 -0.4866  0.9449
10064TIP3    H251608   2.930   0.870  15.374  0.0728 -0.3795 -0.2184
10065TIP3   OH251609   0.085   1.512  12.288 -0.2769 -0.0667 -0.1313
10065TIP3    H151610   0.036   1.594  12.294 -0.2486  0.0714 -1.5766
10065TIP3    H251611   0.169   1.536  12.249  0.2066 -0.6080  0.5486
10066TIP3   OH251612   4.578   1.132  13.918 -0.0025 -0.2840  0.6732
10066TIP3    H151613   4.609   1.147  13.829 -0.1838  0.0814  0.6733
10066TIP3    H251614   4.658   1.115  13.968  0.3093  1.5841  0.8641
10067TIP3   OH251615   2.834   6.229  12.831  0.3529  0.4208 -0.5752
10067TIP3    H151616   2.817   6.185  12.914  2.9551 -0.5186 -0.4422
10067TIP3    H251617   2.907   6.288  12.850  2.3168 -1.1882 -2.5315
10068TIP3   OH251618   6.028   4.396   0.403  0.3445  0.2092 -0.4452
10068TIP3    H151619   6.098   4.405   0.338  2.2325  0.3895  1.4762
10068TIP3    H251620   6.071   4.353   0.478 -1.4726  0.8259  1.0200
10069TIP3   OH251621   6.655   1.467  13.437  0.0105  0.0648  1.0318
10069TIP3    H151622   6.680   1.378  13.462 -0.1737 -0.3645 -0.2574
10069TIP3    H251623   6.652   1.465  13.341  2.0477  2.0248  0.8552
10070TIP3   OH251624   1.001   3.651   6.736  0.0044  0.3864  0.2625
10070TIP3    H151625   1.023   3.743   6.726  0.1774  0.1188 -2.6344
10070TIP3    H251626   0.914   3.643   6.696  0.8508 -1.0009 -1.4286
10071TIP3   OH251627   0.057   6.400  13.195 -0.2468 -0.0202 -0.3571
10071TIP3    H151628   0.018   6.487  13.194  2.6305  1.3934 -1.8924
10071TIP3    H251629   0.130   6.406  13.134  1.3994 -2.8971  1.1277
10072TIP3   OH251630   6.517   3.901   3.614  0.3389 -0.2810 -0.5723
10072TIP3    H151631   6.490   3.837   3.679 -1.2188  0.4066 -0.5011
10072TIP3    H251632   6.513   3.853   3.531 -1.1076 -0.2382 -0.5564
10073TIP3   OH251633   6.488   1.418   2.765 -0.9606  0.1496  0.3307
10073TIP3    H151634   6.493   1.323   2.765  2.4329  0.2281  0.1709
10073TIP3    H251635   6.563   1.446   2.818 -1.8327  2.7457  0.3206
10074TIP3   OH251636   3.252   6.119   5.816  0.2339 -0.1671  0.0157
10074TIP3    H151637   3.205   6.201   5.804  1.0226  0.1766 -0.7983
10074TIP3    H251638   3.204   6.074   5.886  1.9998  2.6730  3.3457
10075TIP3   OH251639   2.565   6.686   1.023 -0.9065  0.4294  0.4772
10075TIP3    H151640   2.539   6.598   0.994  0.7061  0.5810 -1.6588
10075TIP3    H251641   2.484   6.725   1.055 -1.3425 -2.4510  3.3818
10076TIP3   OH251642   1.411   3.623  16.460  0.0285 -0.5241 -0.0740
10076TIP3    H151643   1.466   3.552  16.493 -1.0861 -1.4379 -0.0759
10076TIP3    H251644   1.360   3.582  16.389  0.4290  0.6839 -1.0915
10077TIP3   OH251645   4.858   6.254  14.862  0.0092 -0.5241  0.1126
10077TIP3    H151646   4.911   6.261  14.783  1.7870  0.8466  1.3485
10077TIP3    H251647   4.822   6.342  14.875 -1.8821 -1.2111 -0.2003
10078TIP3   OH251648   5.770   2.339   0.032  0.0059  0.5129  0.2865
10078TIP3    H151649   5.689   2.327  -0.018  0.2794 -2.0092  0.3127
10078TIP3    H251650   5.833   2.371  -0.033 -0.6648  1.2463 -0.0230
10079TIP3   OH251651   0.986   4.194  14.399  0.1635 -0.3145 -0.7376
10079TIP3    H151652   1.037   4.272  14.377 -0.0182  0.0753  0.1863
10079TIP3    H251653   0.895   4.223  14.397  0.1148 -0.3943  0.0081
10080TIP3   OH251654   1.657   6.296  10.693 -0.3219  0.0072 -0.4734
10080TIP3    H151655   1.606   6.274  10.615 -2.1518  1.6453  0.1491
10080TIP3    H251656   1.716   6.365  10.665  1.0362 -1.3386 -1.0147
10081TIP3   OH251657   0.128   2.609  11.791  0.5590 -0.1291  0.1566
10081TIP3    H151658   0.199   2.648  11.741  1.0049  1.2888  1.7986
10081TIP3    H251659   0.049   2.627  11.740  1.0644  0.7354 -0.3283
10082TIP3   OH251660   5.270   1.581  13.731  0.2118 -0.3678 -0.1340
10082TIP3    H151661   5.340   1.640  13.760 -0.2001  0.2516 -0.3863
10082TIP3    H251662   5.293   1.496  13.769  0.8585 -0.0660  0.1611
10083TIP3   OH251663   1.044   5.737  15.536 -0.5519  0.1307  0.3353
10083TIP3    H151664   1.036   5.703  15.447  0.7977  0.0847  0.2102
10083TIP3    H251665   0.964   5.709  15.580 -1.0050 -0.2735 -0.7180
10084TIP3   OH251666   1.615   4.343   4.159 -0.4451 -0.1198  0.3722
10084TIP3    H151667   1.551   4.305   4.219  0.3895  0.7349  1.8811
10084TIP3    H251668   1.631   4.431   4.194 -0.5275  0.7194 -1.6033
10085TIP3   OH251669   0.978   5.777   6.377 -0.2155 -0.0627  0.3056
10085TIP3    H151670   1.017   5.856   6.414 -0.9655  0.2513  0.4295
10085TIP3    H251671   0.886   5.798   6.366 -0.3303 -0.7576 -0.1110
10086TIP3   OH251672   1.710   3.666   5.483  0.4028 -0.3854 -0.5755
10086TIP3    H151673   1.741   3.586   5.526  0.4325 -0.5140 -0.8349
10086TIP3    H251674   1.758   3.669   5.400  0.2676 -0.1936 -0.6488
10087TIP3   OH251675   0.742   2.428   3.071 -0.0573 -0.2076 -0.5457
10087TIP3    H151676   0.696   2.439   2.989 -0.8309 -0.3664 -0.1427
10087TIP3    H251677   0.680   2.381   3.127  0.4712 -0.1345  0.1134
10088TIP3   OH251678   2.032   4.898   3.667  0.3239  0.0575 -0.0853
10088TIP3    H151679   2.079   4.955   3.607 -0.5957  1.3602  0.3819
10088TIP3    H251680   2.064   4.923   3.754 -0.3794  0.1614  0.1528
10089TIP3   OH251681   3.386   3.539  14.021 -0.4376 -0.2610 -0.0293
10089TIP3    H151682   3.310   3.597  14.032  0.3313  0.9320 -0.7641
10089TIP3    H251683   3.462   3.597  14.027  0.4183 -1.3991  0.4615
10090TIP3   OH251684   3.502   1.663  14.490  0.1343  0.5630 -0.4995
10090TIP3    H151685   3.506   1.602  14.564  0.1273 -0.4577 -1.3181
10090TIP3    H251686   3.578   1.641  14.437  0.8178  2.1000 -0.2079
10091TIP3   OH251687   1.379   3.835   1.249  0.4155  0.3958 -0.0186
10091TIP3    H151688   1.425   3.755   1.276  1.6529  2.0574  3.3885
10091TIP3    H251689   1.291   3.825   1.285  0.6564  0.6768  0.6530
10092TIP3   OH251690   1.292   1.284   1.893  0.1488  0.4524 -0.3293
10092TIP3    H151691   1.264   1.200   1.858  2.5156 -0.7249  0.3785
10092TIP3    H251692   1.335   1.262   1.976 -0.5438  2.5535  0.6474
10093TIP3   OH251693   4.474   6.307   2.910  0.6684  0.5121 -0.0943
10093TIP3    H151694   4.416   6.253   2.856  0.3482  0.5858  0.1742
10093TIP3    H251695   4.554   6.316   2.858  0.4096  0.4753 -0.4981
10094TIP3   OH251696   2.702   0.697  16.088  0.1898  0.5561 -0.7176
10094TIP3    H151697   2.630   0.668  16.032  0.4170  0.9128 -1.1980
10094TIP3    H251698   2.770   0.630  16.075 -0.5639 -0.5528  0.8120
10095TIP3   OH251699   6.618   0.945  12.117  0.6341  0.3311 -0.3869
10095TIP3    H151700   6.659   1.026  12.146  0.8467  0.9539 -2.2484
10095TIP3    H251701   6.691   0.889  12.091  0.4747 -0.3916  0.6685
10096TIP3   OH251702   6.180   6.344   2.993  0.3827 -0.0462  0.3402
10096TIP3    H151703   6.157   6.367   2.903 -2.3036 -2.8716  0.1396
10096TIP3    H251704   6.274   6.325   2.989  0.6443  1.2819 -1.4775
10097TIP3   OH251705   5.879   1.086   5.617 -0.2845  0.1216 -0.0152
10097TIP3    H151706   5.965   1.051   5.640 -0.9813 -2.7526 -1.3744
10097TIP3    H251707   5.894   1.135   5.536  0.4516  1.8832  1.1293
10098TIP3   OH251708   3.115   4.484   0.075  0.4944  0.1714  0.2131
10098TIP3    H151709   3.086   4.509  -0.012  3.3099 -0.7832 -1.1469
10098TIP3    H251710   3.103   4.562   0.129 -0.4246  1.0859 -1.2591
10099TIP3   OH251711   6.151   0.672   1.249  0.1096 -0.1031  0.0049
10099TIP3    H151712   6.236   0.666   1.291  2.0632  1.9260 -3.2076
10099TIP3    H251713   6.138   0.586   1.208  1.6667  0.1752 -1.1484
10100TIP3   OH251714   5.457   5.540  14.458  0.4539  0.4085 -0.4599
10100TIP3    H151715   5.372   5.496  14.454  0.6235  0.1688 -2.0161
10100TIP3    H251716   5.436   5.630  14.481 -0.2799  0.4665 -1.3234
10101TIP3   OH251717   2.940   6.289   3.457 -0.5043 -0.1248  0.3196
10101TIP3    H151718   2.861   6.243   3.429 -0.1223 -0.7076  0.1869
10101TIP3    H251719   2.937   6.287   3.552 -0.7083 -0.0539  0.3130
10102TIP3   OH251720   1.437   3.810  13.901  0.4327 -0.0322 -0.2379
10102TIP3    H151721   1.415   3.717  13.898  3.0293 -0.7164 -1.1229
10102TIP3    H251722   1.423   3.835  13.993 -1.4436 -0.9432 -0.2389
10103TIP3   OH251723   1.681   2.351   1.556  0.3722  0.5496 -0.2088
10103TIP3    H151724   1.644   2.362   1.468 -2.4123  0.1918  0.8141
10103TIP3    H251725   1.694   2.256   1.565  1.7266  0.6890 -0.6166
10104TIP3   OH251726   6.086   1.674   2.808  0.3259 -0.6177  0.1622
10104TIP3    H151727   6.093   1.657   2.714  0.4744 -0.6110  0.1722
10104TIP3    H251728   5.996   1.648   2.831 -0.3803  1.1917 -0.3559
10105TIP3   OH251729   4.968   1.097  15.386 -0.1432  0.6742 -0.4055
10105TIP3    H151730   5.015   1.105  15.304  2.4340 -1.4909  0.7215
10105TIP3    H251731   5.032   1.119  15.453 -1.5883  0.4153  1.1384
10106TIP3   OH251732   5.888   6.776   5.346 -0.1300  0.1155  0.9033
10106TIP3    H151733   5.975   6.774   5.384 -0.0588 -3.2533  0.8726
10106TIP3    H251734   5.834   6.726   5.407 -2.8563  4.2018  2.3260
10107TIP3   OH251735   3.293   5.639   2.968 -0.1880  0.3771  0.2679
10107TIP3    H151736   3.278   5.733   2.957 -0.9882  0.2767  0.4440
10107TIP3    H251737   3.361   5.618   2.905 -0.9875  0.8097 -0.7748
10108TIP3   OH251738   2.631   2.429  13.577  0.7031  0.1756  0.0753
10108TIP3    H151739   2.539   2.432  13.549  0.8977  0.3185 -0.5813
10108TIP3    H251740   2.663   2.345  13.544  0.9907  0.4341 -0.3152
10109TIP3   OH251741   2.393   1.249  10.568 -0.0860  0.3341  0.0014
10109TIP3    H151742   2.367   1.341  10.575  0.1515  0.2755  2.2458
10109TIP3    H251743   2.342   1.204  10.635  1.6462 -0.7269  0.6841
10110TIP3   OH251744   4.812   6.191  10.867 -0.0407  0.1515 -0.5584
10110TIP3    H151745   4.835   6.240  10.946 -0.8132  1.1227 -0.9095
10110TIP3    H251746   4.740   6.134  10.893  1.1107 -1.1311 -0.0528
10111TIP3   OH251747   2.500   0.477  12.820  0.0945  0.6463  0.0650
10111TIP3    H151748   2.419   0.463  12.772 -0.4385  1.4007  0.7062
10111TIP3    H251749   2.558   0.407  12.792 -1.4513 -1.1216  1.0507
10112TIP3   OH251750   0.258   6.063   2.527 -0.6266  0.1016  0.2301
10112TIP3    H151751   0.292   6.079   2.615 -2.1692  2.1615  0.5293
10112TIP3    H251752   0.195   5.991   2.539 -1.1990  0.6989  0.9332
10113TIP3   OH251753   5.902   4.491  11.674  0.2805  0.1288 -0.1058
10113TIP3    H151754   5.849   4.526  11.745 -0.7248  0.3572 -0.9352
10113TIP3    H251755   5.989   4.478  11.712  0.1610  1.6419  0.7580
10114TIP3   OH251756   3.131   4.934  14.830  0.0036 -0.1829  0.2246
10114TIP3    H151757   3.069   4.898  14.893 -0.3479  0.3796  0.2061
10114TIP3    H251758   3.095   4.913  14.744  0.3896 -0.7898  0.2066
10115TIP3   OH251759   6.576   3.861  15.016 -0.2847  0.6331 -0.4501
10115TIP3    H151760   6.668   3.887  15.029 -0.5469  1.8774 -0.9215
10115TIP3    H251761   6.530   3.897  15.091 -0.4262  0.1476 -0.3008
10116TIP3   OH251762   1.557   4.084   3.980  0.0371 -0.2499  0.0132
10116TIP3    H151763   1.547   4.008   4.038 -0.2459  0.8291  1.4269
10116TIP3    H251764   1.536   4.159   4.035  4.2373  1.2846 -0.0975
10117TIP3   OH251765   6.737   6.404  11.986 -0.1008 -0.0972  0.0969
10117TIP3    H151766   6.829   6.405  11.962  0.0637 -0.4499  0.7003
10117TIP3    H251767   6.736   6.380  12.078 -0.7270  1.0753  0.4295
10118TIP3   OH251768   5.611   6.093  11.220 -0.5697 -0.3519  0.4792
10118TIP3    H151769   5.665   6.106  11.142  0.0320  1.0075  1.0968
10118TIP3    H251770   5.651   6.018  11.264 -0.7265 -0.9343 -0.3364
10119TIP3   OH251771   3.962   2.495   4.170  0.6862  0.6667  0.0681
10119TIP3    H151772   4.042   2.485   4.119  0.5481  1.3220 -0.2903
10119TIP3    H251773   3.892   2.485   4.107  0.4203 -1.3372  0.6141
10120TIP3   OH251774   6.223   1.651   4.695  0.1203  0.7099  0.5744
10120TIP3    H151775   6.137   1.678   4.664  0.4122  0.5080 -0.4467
10120TIP3    H251776   6.249   1.720   4.757 -0.6402  0.9200  0.6646
10121TIP3   OH251777   4.768   3.898   2.126  0.1161 -0.3155 -1.0256
10121TIP3    H151778   4.761   3.832   2.058 -2.5424 -0.0477 -1.0993
10121TIP3    H251779   4.678   3.917   2.152  0.9043  1.5042  0.7256
10122TIP3   OH251780   5.993   4.816  15.540  0.0384  0.0826  0.2226
10122TIP3    H151781   5.927   4.815  15.471  0.4980  0.8200 -0.2434
10122TIP3    H251782   6.070   4.856  15.499  0.7565 -0.7133  0.7678
10123TIP3   OH251783   6.767   1.494   3.843  0.0250  0.2814 -0.0184
10123TIP3    H151784   6.740   1.441   3.918  0.0888 -2.9306 -2.0792
10123TIP3    H251785   6.860   1.473   3.832  0.4695  2.1187  0.0408
10124TIP3   OH251786   3.203   0.267   2.508  0.6855 -0.7718  0.2102
10124TIP3    H151787   3.170   0.275   2.418  0.4478 -1.5234  0.2242
10124TIP3    H251788   3.181   0.351   2.549  2.3337  0.2609 -0.9162
10125TIP3   OH251789   2.171   5.724  14.750 -0.2284  0.2196  0.9844
10125TIP3    H151790   2.099   5.743  14.810  0.4552 -0.2770  1.9849
10125TIP3    H251791   2.237   5.682  14.805  0.9647  0.9627  0.1554
10126TIP3   OH251792   6.395   4.368  15.701 -0.3528  0.5372 -0.2709
10126TIP3    H151793   6.465   4.433  15.701  0.2071 -0.0503  0.3772
10126TIP3    H251794   6.409   4.317  15.780 -1.4489  0.3249 -0.1918
10127TIP3   OH251795   0.295   2.290   1.626  0.4392  0.0806  0.1371
10127TIP3    H151796   0.320   2.278   1.534  0.9728 -0.5428  0.3622
10127TIP3    H251797   0.317   2.207   1.668  1.0493  0.6757  1.0247
10128TIP3   OH251798   3.149   2.880   5.345  0.2366  0.7397 -0.4309
10128TIP3    H151799   3.092   2.803   5.350  0.2875  0.5000 -2.5680
10128TIP3    H251800   3.186   2.876   5.257  0.5760  2.9881 -0.4314
10129TIP3   OH251801   1.919   2.493   2.657 -0.1563  0.3415 -0.0734
10129TIP3    H151802   1.859   2.436   2.705 -1.6794  1.0840 -1.0211
10129TIP3    H251803   2.004   2.449   2.664 -0.9588 -1.2030  0.5725
10130TIP3   OH251804   3.745   1.433  16.058 -0.6058 -0.2264 -0.5208
10130TIP3    H151805   3.670   1.467  16.010 -0.8506  2.2722  1.3856
10130TIP3    H251806   3.723   1.447  16.150  0.9704 -2.2254  0.2399
10131TIP3   OH251807   4.321   3.385  12.939 -0.0734  0.6477 -0.0171
10131TIP3    H151808   4.292   3.436  12.863  1.4938  0.2466 -0.9302
10131TIP3    H251809   4.241   3.342  12.970 -0.7358  0.6963 -1.5276
10132TIP3   OH251810   1.762   3.709  16.762 -0.0716 -0.6212 -0.2541
10132TIP3    H151811   1.731   3.799  16.758 -1.4207 -0.9854  1.0069
10132TIP3    H251812   1.723   3.673  16.842  0.7347 -2.2147 -0.5203
10133TIP3   OH251813   3.215   1.961  11.810 -0.1676  0.5501  0.4926
10133TIP3    H151814   3.207   1.876  11.854  0.4551 -0.5187 -1.3445
10133TIP3    H251815   3.171   2.022  11.868 -0.4932 -0.9961  1.9607
10134TIP3   OH251816   3.690   6.662  15.565  0.5659 -0.4971  0.1242
10134TIP3    H151817   3.738   6.593  15.611  2.2045 -0.1394 -0.9481
10134TIP3    H251818   3.737   6.673  15.482  1.1505  2.7654  0.7520
10135TIP3   OH251819   5.358   6.656   2.895 -0.2161  0.0638 -0.1490
10135TIP3    H151820   5.371   6.594   2.967 -0.5413 -1.3033 -1.2328
10135TIP3    H251821   5.269   6.688   2.907  0.0286  0.5121  0.5422
10136TIP3   OH251822   1.840   0.540   1.685  0.2758  0.4243  0.3320
10136TIP3    H151823   1.788   0.607   1.642  0.3299  1.3308  1.6132
10136TIP3    H251824   1.909   0.519   1.622  0.5769  1.9642  0.1045
10137TIP3   OH251825   4.401   2.994  12.146 -0.1538 -0.7060 -0.1466
10137TIP3    H151826   4.462   3.052  12.192  1.2412 -4.0138  2.5748
10137TIP3    H251827   4.451   2.962  12.071  0.1300 -0.6377  0.0128
10138TIP3   OH251828   2.551   4.799  13.664 -0.4323  0.0775  0.5666
10138TIP3    H151829   2.468   4.846  13.654 -0.2819  0.5205  1.2889
10138TIP3    H251830   2.566   4.758  13.579 -0.0512  2.2060 -0.4731
10139TIP3   OH251831   3.066   1.921   4.777  0.4842  0.3704  0.5601
10139TIP3    H151832   2.978   1.903   4.743  0.1877  2.0712  0.3770
10139TIP3    H251833   3.092   2.003   4.736  2.4851 -0.4497  0.0469
10140TIP3   OH251834   3.454   5.090  12.932 -0.3284 -0.6441  0.2943
10140TIP3    H151835   3.474   5.183  12.919  2.7922 -1.0736  1.2000
10140TIP3    H251836   3.415   5.086  13.019 -0.9962 -0.1555  0.0277
10141TIP3   OH251837   6.186   5.469   2.012 -0.1652 -0.1883  0.2606
10141TIP3    H151838   6.108   5.424   1.978 -1.3640  0.8105  1.5378
10141TIP3    H251839   6.259   5.415   1.985 -1.4745 -2.4371  0.9760
10142TIP3   OH251840   2.051   3.193   3.414 -0.0274  0.1263  0.3863
10142TIP3    H151841   2.049   3.107   3.457 -0.3856  0.4593  1.0445
10142TIP3    H251842   2.092   3.176   3.329  0.4386 -0.5894  0.7471
10143TIP3   OH251843   5.479   5.232  10.477 -1.2052  0.0017 -0.7643
10143TIP3    H151844   5.440   5.161  10.425 -0.3475 -0.9496 -0.1381
10143TIP3    H251845   5.472   5.201  10.567 -0.7841  0.7132 -0.4858
10144TIP3   OH251846   5.782   6.437   6.683  0.4210 -1.2145 -0.5750
10144TIP3    H151847   5.733   6.511   6.647  0.1451 -1.2131 -0.2079
10144TIP3    H251848   5.870   6.446   6.646  0.8817  0.2489  0.6969
10145TIP3   OH251849   3.101   2.502   4.714  0.0239  0.5686 -0.3060
10145TIP3    H151850   3.057   2.471   4.794 -1.1964  1.2228 -0.6953
10145TIP3    H251851   3.040   2.481   4.644 -1.0208  3.9707 -0.5942
10146TIP3   OH251852   0.361   6.248   1.437  0.0435  0.6215  0.4470
10146TIP3    H151853   0.300   6.176   1.453  0.4753 -0.3850 -2.1234
10146TIP3    H251854   0.443   6.218   1.476 -0.2917  0.6599  1.2136
10147TIP3   OH251855   2.704   3.787  14.227  0.2584 -0.1081  0.1098
10147TIP3    H151856   2.632   3.773  14.167  1.1411 -0.3639 -0.9240
10147TIP3    H251857   2.701   3.880  14.248 -0.0222 -0.0081 -0.3751
10148TIP3   OH251858   3.412   6.644  16.155  0.4860 -0.5201 -0.3180
10148TIP3    H151859   3.343   6.586  16.188 -1.4227  0.8652 -1.6541
10148TIP3    H251860   3.436   6.697  16.231 -0.8161 -0.2244 -0.0798
10149TIP3   OH251861   3.162   1.316   5.444  0.0545  0.0604 -0.0835
10149TIP3    H151862   3.146   1.389   5.384  0.7747  1.0080  0.8251
10149TIP3    H251863   3.091   1.323   5.508  0.6236  0.5493  0.5166
10150TIP3   OH251864   2.146   0.987  16.834 -0.3098 -0.3540 -0.0553
10150TIP3    H151865   2.089   0.993  16.757 -1.8952  2.0408  1.2038
10150TIP3    H251866   2.219   1.045  16.814 -0.1539 -0.5901 -0.1802
10151TIP3   OH251867   2.145   1.210  16.143 -0.1639 -0.0025  0.0983
10151TIP3    H151868   2.141   1.122  16.180 -0.2423 -0.0881 -0.1087
10151TIP3    H251869   2.181   1.265  16.213  0.1496 -0.2525  0.1373
10152TIP3   OH251870   4.174   4.415   4.173  1.0488  0.3715 -0.0058
10152TIP3    H151871   4.086   4.380   4.186  1.3430 -0.0075  1.0794
10152TIP3    H251872   4.161   4.507   4.154  0.2796 -0.2090 -2.5782
10153TIP3   OH251873   2.386   3.179  16.328 -0.0689 -0.0453 -0.4851
10153TIP3    H151874   2.338   3.096  16.328 -0.0567 -0.0550  0.0656
10153TIP3    H251875   2.345   3.230  16.259 -0.1328 -0.4772 -0.7727
10154TIP3   OH251876   2.943   4.871  12.953  0.9518  0.2141  0.0034
10154TIP3    H151877   3.013   4.935  12.966  0.6585  0.3872  0.7497
10154TIP3    H251878   2.975   4.816  12.881  2.4108 -0.4904  1.1384
10155TIP3   OH251879   6.775   4.812  15.896  0.0680 -0.0421 -0.3683
10155TIP3    H151880   6.741   4.832  15.809 -0.9479  0.5941  0.1651
10155TIP3    H251881   6.840   4.743  15.881 -1.4834 -1.3555 -1.4262
10156TIP3   OH251882   4.944   5.797  11.324 -0.1880  0.4504  0.1876
10156TIP3    H151883   4.852   5.783  11.301 -0.4616  0.2766  1.3407
10156TIP3    H251884   4.943   5.814  11.418  1.1716 -1.9641  0.7293
10157TIP3   OH251885   6.557   2.453   1.180 -0.0444  0.3810  0.0175
10157TIP3    H151886   6.486   2.412   1.229 -0.1518  2.5985  1.9202
10157TIP3    H251887   6.601   2.509   1.244  0.1909  2.9994 -2.2359
10158TIP3   OH251888   4.611   1.394   0.739  0.3742  0.1333 -0.4257
10158TIP3    H151889   4.699   1.425   0.721  0.5177  0.5959  0.9351
10158TIP3    H251890   4.595   1.418   0.830 -0.7667 -0.8714 -0.3238
10159TIP3   OH251891   5.275   4.398  16.961  0.4755 -0.0558 -0.3271
10159TIP3    H151892   5.318   4.321  16.998  0.6349  0.4136  0.4978
10159TIP3    H251893   5.320   4.412  16.878 -0.4623 -1.6297 -1.1328
10160TIP3   OH251894   3.266   0.828   2.159  0.0821 -0.0814 -1.0306
10160TIP3    H151895   3.225   0.913   2.180 -1.1312 -1.1218  1.2017
10160TIP3    H251896   3.357   0.849   2.142 -0.5425  1.8753 -2.2585
10161TIP3   OH251897   5.233   1.578  14.310 -0.0405 -0.0655  0.3710
10161TIP3    H151898   5.306   1.636  14.333  2.4528 -3.1755  1.0778
10161TIP3    H251899   5.208   1.537  14.393  0.0470 -1.7994 -0.4057
10162TIP3   OH251900   6.635   0.137   1.191 -0.4041 -0.1770 -0.3593
10162TIP3    H151901   6.672   0.204   1.133  0.6760 -1.5100 -1.2899
10162TIP3    H251902   6.586   0.080   1.132  1.7963 -2.3083 -0.2639
10163TIP3   OH251903   2.521   1.878   0.120  0.4585  0.0095  0.1160
10163TIP3    H151904   2.468   1.800   0.108  2.1828 -1.1689 -0.3284
10163TIP3    H251905   2.572   1.861   0.200  0.9191  0.6130 -0.0379
10164TIP3   OH251906   3.475   5.228  15.560 -0.3587  0.3677  0.5477
10164TIP3    H151907   3.396   5.207  15.509 -0.2418 -0.5161  0.7147
10164TIP3    H251908   3.482   5.323  15.554 -0.2675  0.2868 -1.2114
10165TIP3   OH251909   4.163   2.998  15.956 -0.1074  0.2768  0.0680
10165TIP3    H151910   4.258   3.002  15.968  0.1535  0.1404 -1.6711
10165TIP3    H251911   4.137   2.917  15.999  0.3546  0.9251  1.6473
10166TIP3   OH251912   1.768   0.511   0.817  0.3493  0.6839 -0.7195
10166TIP3    H151913   1.744   0.420   0.802 -0.3411  1.0494 -2.0153
10166TIP3    H251914   1.790   0.515   0.910 -1.0117 -0.5069 -0.3015
10167TIP3   OH251915   1.523   6.652   2.882  0.1143 -1.1139  0.2424
10167TIP3    H151916   1.473   6.636   2.802 -1.4974  2.3999  0.3543
10167TIP3    H251917   1.604   6.692   2.852  0.7391 -2.2839  0.3060
10168TIP3   OH251918   4.365   6.173  10.451 -0.0433  0.5546  0.4606
10168TIP3    H151919   4.416   6.148  10.528  1.8648 -0.5944 -1.0866
10168TIP3    H251920   4.276   6.143  10.470  0.3856  0.2461  2.1700
10169TIP3   OH251921   2.748   0.436   2.366  0.7157 -1.0579 -0.3621
10169TIP3    H151922   2.672   0.492   2.351  0.7952 -1.1009 -0.9579
10169TIP3    H251923   2.769   0.448   2.459  1.1523  0.4589 -0.6102
10170TIP3   OH251924   0.169   1.379  16.249 -0.1139  0.0517  0.1967
10170TIP3    H151925   0.191   1.447  16.185  0.1046  0.4977  0.7433
10170TIP3    H251926   0.251   1.330  16.261 -0.4182 -0.6816 -0.6315
10171TIP3   OH251927   6.031   2.923  12.675 -0.1277 -0.2277  0.3423
10171TIP3    H151928   5.958   2.863  12.665  1.5754 -2.1210 -1.6330
10171TIP3    H251929   6.085   2.884  12.744 -1.1166  1.4289  2.1653
10172TIP3   OH251930   5.554   0.107  10.914  0.2583  0.3460 -0.3462
10172TIP3    H151931   5.644   0.138  10.908  0.0509  0.9513 -0.3451
10172TIP3    H251932   5.509   0.171  10.969  0.3371 -1.1209  1.5162
10173TIP3   OH251933   0.969   4.927  11.832 -0.0671  0.2085 -0.3162
10173TIP3    H151934   1.015   4.964  11.757  0.8437 -0.5228 -0.1249
10173TIP3    H251935   1.036   4.916  11.900 -0.7333  0.1793  0.3551
10174TIP3   OH251936   1.386   5.072  16.665  0.0869  0.1408  0.4518
10174TIP3    H151937   1.400   5.048  16.574  2.5746  3.4753 -0.2531
10174TIP3    H251938   1.436   5.006  16.714 -0.6460 -1.2447 -0.5830
10175TIP3   OH251939   1.437   0.871  11.847 -0.5450 -0.1706 -0.2339
10175TIP3    H151940   1.386   0.952  11.839 -2.8075 -1.4682  0.0903
10175TIP3    H251941   1.480   0.878  11.933 -1.4679  0.3268  0.2066
10176TIP3   OH251942   5.101   5.317   1.788  0.1727 -0.5833  0.1327
10176TIP3    H151943   5.193   5.343   1.793  0.0646 -0.2359  0.3414
10176TIP3    H251944   5.073   5.309   1.880  0.3084 -1.8349  0.0911
10177TIP3   OH251945   0.748   4.081   0.815 -0.2410  0.1674  0.1239
10177TIP3    H151946   0.838   4.048   0.820 -0.3142 -0.4793 -1.9819
10177TIP3    H251947   0.693   4.004   0.832 -0.3986  0.1939 -0.2624
10178TIP3   OH251948   3.453   1.475  17.116 -0.4536 -0.1399 -0.2206
10178TIP3    H151949   3.371   1.524  17.112 -0.6668 -0.5647 -1.3608
10178TIP3    H251950   3.439   1.399  17.060 -0.1195 -1.5529  1.5031
10179TIP3   OH251951   1.751   3.672  14.565  0.1700 -0.0564  0.6658
10179TIP3    H151952   1.729   3.587  14.603 -0.2952 -1.0244 -1.6072
10179TIP3    H251953   1.842   3.687  14.591  0.8974 -2.1777 -0.4243
10180TIP3   OH251954   3.774   2.968   4.317 -0.0620 -0.3235  0.0083
10180TIP3    H151955   3.793   2.885   4.360 -0.3642 -0.5298 -0.2536
10180TIP3    H251956   3.685   2.989   4.343 -0.3438 -0.5854 -0.7329
10181TIP3   OH251957   0.503   0.867  13.149  0.4477  0.1870  0.2452
10181TIP3    H151958   0.510   0.860  13.054 -0.7801  1.6119  0.0069
10181TIP3    H251959   0.458   0.951  13.163 -3.1404 -1.7659  1.8843
10182TIP3   OH251960   0.267   0.313   0.858  0.2489 -0.1266  0.5553
10182TIP3    H151961   0.321   0.387   0.887  1.9366 -0.4076 -1.6436
10182TIP3    H251962   0.322   0.266   0.796 -1.9576 -1.4058 -0.5407
10183TIP3   OH251963   1.966   3.831   4.136 -0.4889  0.3398 -0.1811
10183TIP3    H151964   1.950   3.864   4.224  1.4240  0.0149  0.3310
10183TIP3    H251965   1.918   3.749   4.131 -3.5726  2.0463 -0.7431
10184TIP3   OH251966   6.262   3.718   0.619  0.6748 -0.7937 -0.2402
10184TIP3    H151967   6.167   3.721   0.619  0.6883  1.5252  1.2628
10184TIP3    H251968   6.285   3.666   0.696  0.6008  0.8287  0.9094
10185TIP3   OH251969   1.465   6.580  11.147  0.2304 -0.4529  0.4519
10185TIP3    H151970   1.494   6.536  11.067 -0.6156  0.9700 -0.6804
10185TIP3    H251971   1.504   6.528  11.218  0.0551 -2.4459 -0.8214
10186TIP3   OH251972   1.840   1.793  15.572 -0.3831 -0.3744  0.6088
10186TIP3    H151973   1.902   1.817  15.640  0.1908 -1.4541  0.4844
10186TIP3    H251974   1.761   1.765  15.619 -0.6425  0.6251  0.7759
10187TIP3   OH251975   4.182   4.139   4.436 -0.0159  0.3466 -0.3192
10187TIP3    H151976   4.204   4.076   4.504  3.1533  1.8032  0.1790
10187TIP3    H251977   4.263   4.152   4.387 -1.7322  0.6561 -3.3679
10188TIP3   OH251978   1.906   3.153   1.557 -0.2571  0.2616 -0.3546
10188TIP3    H151979   1.895   3.200   1.639  1.1560  0.8596 -0.4821
10188TIP3    H251980   2.001   3.148   1.544 -0.3914 -1.4487 -1.0283
10189TIP3   OH251981   4.851   1.453  14.138  0.3950  0.1178  0.2682
10189TIP3    H151982   4.824   1.398  14.211 -0.0882  1.3889  1.0762
10189TIP3    H251983   4.880   1.535  14.179  0.4405  0.7284 -0.9368
10190TIP3   OH251984   4.214   6.438   4.112 -0.1154  0.0797 -0.1641
10190TIP3    H151985   4.188   6.349   4.134 -0.4237 -0.1687 -1.4124
10190TIP3    H251986   4.273   6.464   4.182 -0.8012 -0.7366  0.7411
10191TIP3   OH251987   1.178   1.830  13.611 -0.2890  0.2212 -0.0163
10191TIP3    H151988   1.254   1.878  13.643 -0.4418  1.5049 -1.4457
10191TIP3    H251989   1.202   1.738  13.619  0.9804  0.5842  0.5537
10192TIP3   OH251990   3.070   1.251   2.597 -0.1679 -0.3269  0.8195
10192TIP3    H151991   3.150   1.241   2.649  0.4556  1.5260  0.3036
10192TIP3    H251992   3.006   1.288   2.659  0.1010  0.4092  0.6639
10193TIP3   OH251993   0.727   6.275  15.981  0.1673  0.1604  0.1776
10193TIP3    H151994   0.672   6.352  15.968  2.0000  1.4335 -0.5247
10193TIP3    H251995   0.705   6.216  15.909  0.2106  0.9645 -0.5059
10194TIP3   OH251996   4.889   0.452  16.910 -0.2417  0.1619  0.3743
10194TIP3    H151997   4.922   0.409  16.989 -2.7223 -0.2170  1.3182
10194TIP3    H251998   4.918   0.395  16.839  1.8186  0.3601  0.9965
10195TIP3   OH251999   1.066   5.519   1.458 -0.2378 -0.0365  0.1755
10195TIP3    H152000   1.012   5.577   1.512  0.8310  0.5326  0.6510
10195TIP3    H252001   1.033   5.432   1.478  0.2694  0.1351  1.9268
10196TIP3   OH252002   2.920   0.625  15.723  0.3143 -0.0942 -0.4932
10196TIP3    H152003   2.924   0.713  15.759 -2.2192 -0.6834  1.5096
10196TIP3    H252004   2.985   0.576  15.774 -0.7981 -0.1327  0.9465
10197TIP3   OH252005   2.361   5.463  12.623  0.3357 -0.1613  0.1635
10197TIP3    H152006   2.313   5.502  12.550  2.6935  1.4863 -0.6042
10197TIP3    H252007   2.353   5.527  12.694 -1.0871 -1.2963  1.0927
10198TIP3   OH252008   5.926   6.095   0.470  0.3916 -0.4044  0.7019
10198TIP3    H152009   5.889   6.053   0.392  1.2226  0.1378 -0.0116
10198TIP3    H252010   5.896   6.041   0.543 -0.4135 -0.9280  0.0146
10199TIP3   OH252011   1.887   3.181   4.288 -0.3155  0.4655 -0.0348
10199TIP3    H152012   1.894   3.086   4.291 -2.0182  0.3177  3.0180
10199TIP3    H252013   1.800   3.197   4.250 -0.7523  0.6762  1.0042
10200TIP3   OH252014   4.875   3.900  15.386  0.5712  0.4951  0.1927
10200TIP3    H152015   4.959   3.946  15.389  0.4983  0.6436 -0.0396
10200TIP3    H252016   4.813   3.965  15.354  0.1346  0.7411  1.4523
10201TIP3   OH252017   5.949   1.691  11.630  0.4721  0.6358 -0.4706
10201TIP3    H152018   5.911   1.648  11.554 -0.3382  0.3886  0.0598
10201TIP3    H252019   5.921   1.637  11.704  1.7649  0.5201 -0.0496
10202TIP3   OH252020   3.079   6.307  12.381 -0.0813 -0.7007  0.0716
10202TIP3    H152021   3.077   6.355  12.298  1.1671  0.1189  0.4823
10202TIP3    H252022   3.029   6.361  12.441 -0.3454 -0.9165  0.0491
10203TIP3   OH252023   5.948   2.646   5.175  0.2889 -0.5024  0.5482
10203TIP3    H152024   5.884   2.683   5.115 -0.8160 -0.7940  1.5013
10203TIP3    H252025   6.028   2.694   5.158 -0.7222  1.3459  0.7623
10204TIP3   OH252026   4.358   4.865   0.527 -0.2044  0.0221  0.2146
10204TIP3    H152027   4.360   4.894   0.618 -1.4194 -0.9010  0.5570
10204TIP3    H252028   4.265   4.872   0.502  0.3560  2.0704 -1.5634
10205TIP3   OH252029   1.745   5.253   5.199  0.7874 -0.3833 -0.4284
10205TIP3    H152030   1.815   5.311   5.169  0.9133  0.1924  0.9259
10205TIP3    H252031   1.693   5.307   5.258  0.5415 -1.4629  0.3688
10206TIP3   OH252032   0.761   2.364   0.385  0.7905 -0.5178 -0.6808
10206TIP3    H152033   0.680   2.334   0.425 -0.2314 -0.3211 -2.5220
10206TIP3    H252034   0.758   2.459   0.391 -0.4742 -0.3256 -3.1148
10207TIP3   OH252035   2.928   3.884   3.973  0.1589 -0.2229 -0.0464
10207TIP3    H152036   2.959   3.945   3.906  0.2312  0.4638  0.6069
10207TIP3    H252037   2.848   3.923   4.007 -0.5466 -1.1719 -0.5649
10208TIP3   OH252038   6.023   6.740  14.353  0.1037 -0.2517  0.0933
10208TIP3    H152039   5.969   6.739  14.274  0.3055  2.1436 -0.1212
10208TIP3    H252040   5.998   6.820  14.399  0.5132 -1.2126  2.1225
10209TIP3   OH252041   4.132   0.795  13.287  0.4358  0.0147 -0.7164
10209TIP3    H152042   4.129   0.837  13.201 -0.3506  0.1936 -0.6139
10209TIP3    H252043   4.072   0.721  13.280  0.7238 -0.2459 -0.4620
10210TIP3   OH252044   1.908   1.449   2.181 -0.4489  0.1893  0.2010
10210TIP3    H152045   2.003   1.453   2.189 -0.6133  0.8201  2.3730
10210TIP3    H252046   1.880   1.540   2.172 -0.8219 -0.0511 -1.6033
10211TIP3   OH252047   3.836   1.079  11.967  0.4012  0.6793  0.0885
10211TIP3    H152048   3.919   1.101  11.924 -0.2739  3.0593 -0.1487
10211TIP3    H252049   3.774   1.069  11.895  0.3410 -0.6058  0.2947
10212TIP3   OH252050   1.541   3.104  13.089 -0.4088  0.4633  0.3855
10212TIP3    H152051   1.512   3.023  13.131 -0.5131  0.5091  0.4029
10212TIP3    H252052   1.635   3.105  13.102 -0.2150 -0.3480 -0.8430
10213TIP3   OH252053   0.883   4.158  13.400  0.4742 -0.4972 -0.0386
10213TIP3    H152054   0.958   4.131  13.345  0.8938 -0.4355  0.4966
10213TIP3    H252055   0.847   4.234  13.354 -1.4205 -2.5251 -2.1958
10214TIP3   OH252056   1.117   0.696   2.715 -0.6995  0.1249  0.0910
10214TIP3    H152057   1.146   0.721   2.803 -0.6781 -2.3451  0.8814
10214TIP3    H252058   1.198   0.682   2.666 -0.6223 -1.2065  0.5612
10215TIP3   OH252059   5.650   1.511   3.537  0.0532  0.3348  0.0960
10215TIP3    H152060   5.715   1.578   3.516  0.4778 -0.1929 -0.2876
10215TIP3    H252061   5.594   1.553   3.603  0.7637  0.8053  0.4148
10216TIP3   OH252062   5.587   5.767   3.056  0.9215  0.3508  0.3842
10216TIP3    H152063   5.522   5.826   3.094 -1.7376 -2.1684  0.1089
10216TIP3    H252064   5.583   5.689   3.111  2.2082 -0.6733 -0.9082
10217TIP3   OH252065   4.588   3.757  16.432 -0.5397  0.2753 -0.3854
10217TIP3    H152066   4.657   3.723  16.489  0.4764  2.0352 -0.4979
10217TIP3    H252067   4.572   3.846  16.464 -3.7748 -0.4888  0.5183
10218TIP3   OH252068   0.275   0.818  15.523  0.5958 -0.0574 -0.4798
10218TIP3    H152069   0.326   0.896  15.503  0.3434  0.1774 -0.2240
10218TIP3    H252070   0.214   0.847  15.591  0.1025 -0.3282 -0.8086
10219TIP3   OH252071   3.682   6.074  15.281  0.4837 -0.0687  0.1595
10219TIP3    H152072   3.641   6.094  15.366  1.0522 -0.2176  0.4700
10219TIP3    H252073   3.767   6.117  15.284  1.0852 -1.2179  0.2267
10220TIP3   OH252074   4.736   0.322   5.651  0.0951 -0.1138 -0.1466
10220TIP3    H152075   4.785   0.332   5.732  1.1622  0.0541 -0.7931
10220TIP3    H252076   4.702   0.409   5.632  1.4572  0.2865 -0.8600
10221TIP3   OH252077   6.189   6.107   4.464 -0.1080 -0.2181  0.3204
10221TIP3    H152078   6.221   6.168   4.398  0.8350 -0.2572  0.7174
10221TIP3    H252079   6.262   6.046   4.478  0.2043  0.5263  2.2758
10222TIP3   OH252080   6.164   5.525  15.727 -0.2382  0.3607  0.3437
10222TIP3    H152081   6.157   5.430  15.724 -0.7197  0.3422  1.3835
10222TIP3    H252082   6.145   5.554  15.638 -0.1108 -0.5118  0.0275
10223TIP3   OH252083   0.949   1.805   4.922  0.0591 -0.0926 -0.1846
10223TIP3    H152084   1.033   1.839   4.892 -1.1700  3.2296 -0.3261
10223TIP3    H252085   0.952   1.814   5.017 -0.1066  0.0352 -0.1899
10224TIP3   OH252086   6.044   3.271  14.343 -0.0345 -0.5925  0.0374
10224TIP3    H152087   6.122   3.290  14.291  0.2338 -1.6540  0.0147
10224TIP3    H252088   5.973   3.316  14.298  0.9512  3.0349  1.7302
10225TIP3   OH252089   6.119   5.540  15.024 -0.1269  0.6061  0.2554
10225TIP3    H152090   6.194   5.503  15.069  1.7506  0.9381 -2.3417
10225TIP3    H252091   6.068   5.464  14.996  2.2950 -0.1457 -2.7219
10226TIP3   OH252092   0.386   2.570   3.908  0.7679 -0.1563 -0.3507
10226TIP3    H152093   0.394   2.475   3.903  0.4953 -0.1022 -2.8890
10226TIP3    H252094   0.475   2.603   3.896  1.2579 -0.0347  2.7379
10227TIP3   OH252095   5.694   6.313  15.343  0.1140  0.9559 -0.4197
10227TIP3    H152096   5.718   6.324  15.435  0.1091  1.7282 -0.5027
10227TIP3    H252097   5.754   6.370  15.296 -0.6655  1.4964 -0.7853
10228TIP3   OH252098   4.998   3.480   0.611  0.5475  0.1089  0.6161
10228TIP3    H152099   4.915   3.473   0.564  2.0879 -0.7784 -2.2035
10228TIP3    H252100   5.002   3.401   0.666 -0.4700  0.2199  0.8765
10229TIP3   OH252101   5.106   4.575  13.147  0.1248 -0.0492 -0.3968
10229TIP3    H152102   5.133   4.666  13.155  1.8908 -0.4479 -1.2473
10229TIP3    H252103   5.049   4.573  13.070 -1.2615  0.5735  0.5762
10230TIP3   OH252104   1.410   0.649  15.860  1.0636  0.1842 -0.7784
10230TIP3    H152105   1.360   0.682  15.786 -0.1099 -1.5584 -0.8332
10230TIP3    H252106   1.348   0.650  15.933  1.4123 -0.5083 -0.4586
10231TIP3   OH252107   0.297   3.887  16.913  0.6773  0.3798  0.0230
10231TIP3    H152108   0.362   3.947  16.878  2.4267 -1.2123  0.3628
10231TIP3    H252109   0.304   3.809  16.857 -1.3429  0.3393 -0.2609
10232TIP3   OH252110   4.171   2.106   4.960 -0.1286 -0.2998  0.0852
10232TIP3    H152111   4.183   2.181   5.017  1.3926  0.3969 -1.1012
10232TIP3    H252112   4.105   2.053   5.005  0.4405  0.5821  2.0885
10233TIP3   OH252113   1.586   2.738   5.857  0.0788 -0.1001 -0.4015
10233TIP3    H152114   1.513   2.757   5.917 -0.1668 -0.8039 -0.4676
10233TIP3    H252115   1.653   2.698   5.913 -0.4534 -1.4795 -0.7044
10234TIP3   OH252116   3.946   2.218   3.545  0.0712 -0.4330 -0.2558
10234TIP3    H152117   3.901   2.231   3.629 -0.2491 -0.3799 -0.4355
10234TIP3    H252118   3.882   2.243   3.479  0.2779 -0.6025 -0.5233
10235TIP3   OH252119   0.550   4.752  11.550  0.3944 -0.0021 -0.3259
10235TIP3    H152120   0.620   4.804  11.510  1.6233 -0.9363  0.5436
10235TIP3    H252121   0.471   4.778  11.503  0.9515  2.6273  0.0465
10236TIP3   OH252122   4.016   1.567  14.857 -0.0693  0.0550 -0.6597
10236TIP3    H152123   4.041   1.636  14.795 -0.0163 -0.9960 -1.8452
10236TIP3    H252124   4.100   1.534  14.891 -0.1185  1.1982  0.6574
10237TIP3   OH252125   3.539   3.405   4.524  0.0297 -0.5857 -0.2429
10237TIP3    H152126   3.597   3.476   4.549  1.2220 -1.6386  0.0771
10237TIP3    H252127   3.558   3.336   4.588 -2.0907 -0.7206  0.3247
10238TIP3   OH252128   2.670   0.992  12.628  0.1852  0.4198  0.6068
10238TIP3    H152129   2.617   1.009  12.550  2.5153  0.1846 -1.1408
10238TIP3    H252130   2.643   0.906  12.658 -0.6423  0.4548 -0.0190
10239TIP3   OH252131   2.395   5.653  16.037  0.1672 -0.5047 -0.0428
10239TIP3    H152132   2.363   5.684  16.121  1.8372 -0.2872  0.5457
10239TIP3    H252133   2.326   5.593  16.006 -0.6675 -0.2572  1.2588
10240TIP3   OH252134   2.337   0.433  12.055  0.0090 -0.0385  0.0566
10240TIP3    H152135   2.334   0.500  12.124  1.5229  0.4147 -0.2716
10240TIP3    H252136   2.358   0.482  11.976  1.7047 -0.9460 -0.0945
10241TIP3   OH252137   3.423   3.811   0.933 -0.2211  0.4492 -0.0189
10241TIP3    H152138   3.451   3.769   0.851 -0.6528 -0.6781  0.3971
10241TIP3    H252139   3.328   3.822   0.923 -0.4242 -0.5272  0.6808
10242TIP3   OH252140   3.765   0.561   1.090  0.6255  0.7321  0.1030
10242TIP3    H152141   3.809   0.615   1.156  2.0662  0.8173 -0.8678
10242TIP3    H252142   3.767   0.615   1.011  1.5525 -0.4757 -0.7296
10243TIP3   OH252143   5.188   6.360  13.425 -0.3161  0.1854  0.0993
10243TIP3    H152144   5.215   6.278  13.467 -0.9688 -0.3422 -0.5037
10243TIP3    H252145   5.226   6.428  13.481  1.1888 -0.5176 -0.0137
10244TIP3   OH252146   4.644   0.400   4.128  0.5414  0.2442 -0.1328
10244TIP3    H152147   4.611   0.487   4.151  1.8234  0.7105  0.0287
10244TIP3    H252148   4.566   0.347   4.119 -0.2247  1.1242  0.9606
10245TIP3   OH252149   1.603   1.675  11.954  0.4807  0.3577  0.0577
10245TIP3    H152150   1.540   1.607  11.930 -0.7641  1.2321  0.7285
10245TIP3    H252151   1.642   1.644  12.035  0.8840 -0.1561 -0.3247
10246TIP3   OH252152   2.181   0.293  12.441  0.3695  0.2840  0.4409
10246TIP3    H152153   2.224   0.219  12.398 -0.8316 -0.0043 -0.3296
10246TIP3    H252154   2.098   0.303  12.394 -0.1446  1.1886  1.4810
10247TIP3   OH252155   3.957   4.984   2.491 -0.2058  0.0667  0.2052
10247TIP3    H152156   3.945   4.909   2.433 -2.2460 -0.5289  1.3181
10247TIP3    H252157   4.003   4.949   2.567 -0.0594  0.2333  0.1950
10248TIP3   OH252158   2.280   6.040   2.211  0.1657 -0.8181 -0.1546
10248TIP3    H152159   2.284   5.946   2.189 -2.4518 -1.3220  1.1147
10248TIP3    H252160   2.192   6.067   2.184  0.5714  1.0851  0.2927
10249TIP3   OH252161   0.945   0.255  13.211  0.2064 -0.4376  0.5327
10249TIP3    H152162   0.975   0.344  13.228 -1.2199 -0.1365  1.6793
10249TIP3    H252163   0.906   0.259  13.123 -1.8058  0.6642  1.4031
10250TIP3   OH252164   5.095   6.157   1.514  0.5460  0.1693 -0.1428
10250TIP3    H152165   5.043   6.237   1.506 -0.1090 -0.3875 -1.8877
10250TIP3    H252166   5.045   6.101   1.574 -0.4872 -0.0452 -1.1849
10251TIP3   OH252167   4.967   5.427   5.441 -0.0133  0.0726 -0.0347
10251TIP3    H152168   4.950   5.334   5.454  0.6048  0.0573  0.7356
10251TIP3    H252169   5.032   5.450   5.508  0.0669  0.9895 -0.4015
10252TIP3   OH252170   4.142   2.289   3.222 -0.0998 -0.1767  0.6567
10252TIP3    H152171   4.231   2.312   3.198 -0.2999  1.4043  1.2879
10252TIP3    H252172   4.094   2.372   3.216 -1.5505 -1.0161  0.2326
10253TIP3   OH252173   1.619   5.528   3.349  0.1045 -0.5518 -0.0086
10253TIP3    H152174   1.655   5.543   3.261 -0.8928 -0.3449 -0.3924
10253TIP3    H252175   1.639   5.436   3.366 -0.6826 -0.9156 -0.9398
10254TIP3   OH252176   0.689   5.680   6.156  0.3482  0.2550 -0.1404
10254TIP3    H152177   0.690   5.763   6.203 -3.5403 -0.4415  1.5501
10254TIP3    H252178   0.731   5.618   6.215 -1.0710  0.1290  0.7637
10255TIP3   OH252179   3.932   4.803  12.407 -0.5304 -0.4303 -1.3117
10255TIP3    H152180   3.846   4.768  12.429 -0.0738  0.9065  3.9625
10255TIP3    H252181   3.915   4.892  12.376 -1.1684  0.1490  0.5542
10256TIP3   OH252182   2.128   5.182   4.041 -0.1227  0.2069 -0.4668
10256TIP3    H152183   2.200   5.230   4.001 -1.0594 -0.3553 -3.0599
10256TIP3    H252184   2.154   5.090   4.034 -1.4154 -0.0892 -2.4193
10257TIP3   OH252185   1.532   1.069   3.301  0.6310  0.2472  0.2223
10257TIP3    H152186   1.592   1.109   3.364 -1.3075  1.3165  1.4751
10257TIP3    H252187   1.485   1.143   3.262  0.3811 -0.5355 -1.0438
10258TIP3   OH252188   2.199   2.640   3.899  0.3612 -0.9173  0.2739
10258TIP3    H152189   2.291   2.666   3.899  0.4145 -1.0915 -0.4329
10258TIP3    H252190   2.199   2.548   3.924  0.3322 -0.7718  0.8161
10259TIP3   OH252191   0.404   0.598  13.098  0.2030  0.6770 -0.1100
10259TIP3    H152192   0.398   0.607  13.003  0.5936  0.2880 -0.1703
10259TIP3    H252193   0.446   0.679  13.128  2.2721 -0.1969 -0.5038
10260TIP3   OH252194   1.588   6.695  16.314 -0.1494  0.4820 -0.1054
10260TIP3    H152195   1.630   6.741  16.241  1.6193  0.3406  0.7753
10260TIP3    H252196   1.602   6.753  16.389  0.2714 -0.5093  0.5956
10261TIP3   OH252197   3.711   2.564   1.346  0.7319 -0.1106 -0.2840
10261TIP3    H152198   3.806   2.575   1.357  0.4748  1.7866  0.3427
10261TIP3    H252199   3.696   2.579   1.253  1.0896 -0.9927 -0.4985
10262TIP3   OH252200   4.151   5.340  11.070  0.0950 -0.4261  0.3483
10262TIP3    H152201   4.244   5.354  11.054 -0.0342 -1.4525 -1.6823
10262TIP3    H252202   4.134   5.251  11.037 -1.5440 -0.3762  0.9447
10263TIP3   OH252203   1.533   5.434   0.152  0.2248  0.2165 -0.1057
10263TIP3    H152204   1.517   5.526   0.131  0.9076  0.3833  0.0872
10263TIP3    H252205   1.452   5.389   0.125  0.0167  0.8185 -0.5144
10264TIP3   OH252206   5.450   4.296   1.387 -0.7457 -0.2825 -0.1188
10264TIP3    H152207   5.476   4.381   1.353 -1.3926 -0.2676 -0.5960
10264TIP3    H252208   5.523   4.238   1.367 -1.2610 -0.3599 -1.9175
10265TIP3   OH252209   4.803   1.276  14.596  0.0721  0.5160 -0.1833
10265TIP3    H152210   4.767   1.191  14.622 -1.3041  0.9010 -0.7597
10265TIP3    H252211   4.790   1.332  14.672  0.1499  0.4634 -0.1304
10266TIP3   OH252212   3.257   6.270  14.600 -0.0066  0.2192 -0.2098
10266TIP3    H152213   3.340   6.222  14.606  0.6150  0.9122 -2.3013
10266TIP3    H252214   3.284   6.361  14.585 -1.1659  0.9126  1.6937
10267TIP3   OH252215   2.086   5.571  14.476 -0.4592  0.1552  0.5760
10267TIP3    H152216   2.144   5.637  14.513  1.4376  0.4730 -2.5755
10267TIP3    H252217   2.014   5.621  14.438  0.6485  0.4546 -1.2427
10268TIP3   OH252218   3.739   3.938  16.611 -0.0292 -1.1299 -0.1748
10268TIP3    H152219   3.834   3.940  16.607 -0.0462  2.0656 -2.5210
10268TIP3    H252220   3.719   3.937  16.705  2.2554 -1.4920  0.3726
10269TIP3   OH252221   2.974   2.731  12.301 -0.1427 -0.4292 -0.2433
10269TIP3    H152222   2.962   2.793  12.373 -2.3883 -1.1525  0.0764
10269TIP3    H252223   2.922   2.655  12.326 -0.3152 -1.0228 -2.2645
10270TIP3   OH252224   5.191   2.422   1.384 -0.6294  0.5456 -0.1814
10270TIP3    H152225   5.234   2.492   1.434  0.3244  0.5401 -0.9535
10270TIP3    H252226   5.257   2.352   1.379 -1.2890 -0.0992 -0.0927
10271TIP3   OH252227   0.771   3.765  12.786 -0.2125 -0.0107  0.2590
10271TIP3    H152228   0.699   3.727  12.736  0.8412 -0.4462 -0.9856
10271TIP3    H252229   0.786   3.851  12.746 -1.0737  0.7921  1.5736
10272TIP3   OH252230   1.642   6.553   1.357 -0.5169  1.0472 -0.6962
10272TIP3    H152231   1.587   6.481   1.327 -1.1979  1.3146 -0.1261
10272TIP3    H252232   1.684   6.520   1.436 -1.0588  1.3626 -0.2658
10273TIP3   OH252233   1.415   2.017  13.446 -0.1284 -0.5613  0.3991
10273TIP3    H152234   1.392   1.945  13.387  1.2981 -1.4121  0.8391
10273TIP3    H252235   1.448   2.086  13.388 -1.2751 -0.3108  0.0003
10274TIP3   OH252236   5.635   0.416   2.295 -0.0665 -0.7831 -0.2065
10274TIP3    H152237   5.598   0.465   2.369 -2.0075 -0.5902 -1.2268
10274TIP3    H252238   5.636   0.325   2.324 -0.4741 -0.6629  0.1902
10275TIP3   OH252239   5.846   0.243  11.344 -0.2718  0.1883  0.0401
10275TIP3    H152240   5.865   0.265  11.253 -0.8653  0.9897  0.1000
10275TIP3    H252241   5.761   0.199  11.341  0.3946 -1.1618  0.0540
10276TIP3   OH252242   1.704   5.702  14.540  0.2773  0.4642  0.4202
10276TIP3    H152243   1.685   5.644  14.466  2.2028 -0.7450  0.8048
10276TIP3    H252244   1.782   5.751  14.513  0.5571  0.5588  1.3679
10277TIP3   OH252245   6.731   1.316  16.052 -0.1044 -0.3879  0.0525
10277TIP3    H152246   6.789   1.371  16.104  0.4671 -0.9384  0.0078
10277TIP3    H252247   6.773   1.230  16.051 -1.6126 -1.1839  1.1613
10278TIP3   OH252248   3.967   0.979   0.224  0.2163 -0.6729 -0.1692
10278TIP3    H152249   3.965   1.074   0.241  1.8277 -0.4649 -0.9309
10278TIP3    H252250   4.005   0.942   0.303  0.9799 -0.4987 -0.4425
10279TIP3   OH252251   1.859   2.476  16.483 -0.2212 -1.0239  0.8615
10279TIP3    H152252   1.766   2.481  16.503 -0.7466  0.3838 -1.5191
10279TIP3    H252253   1.867   2.404  16.420 -0.2332  0.5693 -1.0684
10280TIP3   OH252254   4.017   1.626   0.173 -0.2959  0.5338 -0.2558
10280TIP3    H152255   4.070   1.654   0.098  1.1160  1.5304  1.0640
10280TIP3    H252256   3.945   1.689   0.177 -0.6034  0.2441 -0.9724
10281TIP3   OH252257   4.538   2.592  12.258  0.2305  0.0269 -0.4818
10281TIP3    H152258   4.602   2.661  12.271 -0.7790  0.5173  2.6507
10281TIP3    H252259   4.554   2.530  12.329 -2.2871 -0.1660  0.0303
10282TIP3   OH252260   5.199   0.333   4.116  0.1514  0.0248 -0.4370
10282TIP3    H152261   5.150   0.303   4.040 -1.4900  1.2585  0.0754
10282TIP3    H252262   5.174   0.425   4.126  1.2636  0.2139  0.8804
10283TIP3   OH252263   1.417   1.976   5.855  0.2124 -0.5753  0.2092
10283TIP3    H152264   1.504   1.961   5.892 -0.1000 -0.0026  1.2169
10283TIP3    H252265   1.357   1.940   5.921 -0.3202 -3.9781 -1.8549
10284TIP3   OH252266   3.035   3.961   3.407 -0.1099  0.5329 -0.0094
10284TIP3    H152267   2.998   3.949   3.495  0.1399 -1.5207 -0.1363
10284TIP3    H252268   3.117   4.008   3.423 -0.4118  0.8176  0.7800
10285TIP3   OH252269   3.190   5.668   6.094 -0.0148 -0.3175 -0.2945
10285TIP3    H152270   3.183   5.609   6.170  1.1927  0.1438  0.1914
10285TIP3    H252271   3.150   5.619   6.023 -0.2817 -1.1643  0.4144
10286TIP3   OH252272   0.541   2.405  12.649  0.0169  0.6382 -0.3722
10286TIP3    H152273   0.600   2.415  12.725 -1.0068  0.8792  0.4132
10286TIP3    H252274   0.590   2.351  12.588  0.1432 -1.2036  1.2550
10287TIP3   OH252275   1.418   3.352   5.680 -0.3447 -0.0411  0.0814
10287TIP3    H152276   1.375   3.340   5.596 -1.3024 -0.3184  0.6000
10287TIP3    H252277   1.446   3.265   5.706  2.2409  0.3297 -1.0899
10288TIP3   OH252278   5.583   4.792   1.941 -0.2602  0.0231  0.1839
10288TIP3    H152279   5.543   4.714   1.980  0.8241 -0.5124  0.2653
10288TIP3    H252280   5.574   4.859   2.009  0.3923 -0.5299  0.8441
10289TIP3   OH252281   5.194   3.759  13.396  0.1475 -0.0855  0.5061
10289TIP3    H152282   5.142   3.823  13.348 -0.4394 -0.6678  0.3502
10289TIP3    H252283   5.189   3.679  13.344  0.0335 -0.5459  1.1968
10290TIP3   OH252284   4.091   2.492   2.809  0.0786 -0.2531 -0.1809
10290TIP3    H152285   4.146   2.518   2.883  0.2413  1.8795 -0.9596
10290TIP3    H252286   4.153   2.474   2.738 -0.1308 -0.4591 -0.3118
10291TIP3   OH252287   4.555   4.314  11.611  0.3522 -0.1693 -0.7138
10291TIP3    H152288   4.528   4.396  11.568 -3.1347 -1.5351 -1.4327
10291TIP3    H252289   4.509   4.315  11.695 -0.6385 -1.8717 -1.2120
10292TIP3   OH252290   1.151   6.462   5.313  0.1337 -0.0153 -0.7356
10292TIP3    H152291   1.075   6.417   5.349  0.5394 -0.0654  0.1010
10292TIP3    H252292   1.196   6.395   5.262  1.4062 -1.0082  1.5025
10293TIP3   OH252293   5.766   0.715  16.669  0.0486  0.1864  0.2856
10293TIP3    H152294   5.813   0.749  16.593  0.7601  0.6270  0.9027
10293TIP3    H252295   5.834   0.703  16.736 -0.1165 -2.5474  0.0981
10294TIP3   OH252296   2.023   4.557   2.721 -0.2465  0.0216 -0.7361
10294TIP3    H152297   2.022   4.641   2.768 -0.7571 -0.5027  0.2174
10294TIP3    H252298   2.111   4.552   2.684 -0.5971  1.5551 -1.9124
10295TIP3   OH252299   0.681   2.524  14.953 -0.5882 -0.1065 -0.0679
10295TIP3    H152300   0.768   2.554  14.979 -0.1290 -1.9187  0.6545
10295TIP3    H252301   0.664   2.569  14.870  2.7345 -2.4760 -2.3069
10296TIP3   OH252302   4.907   4.463   5.023 -0.1510  0.4128 -0.4895
10296TIP3    H152303   4.874   4.398   4.961 -0.5014  1.0077 -0.9324
10296TIP3    H252304   5.002   4.461   5.010 -0.3268  1.8824 -2.4481
10297TIP3   OH252305   6.760   0.170  11.326  0.2800  0.0108 -0.2068
10297TIP3    H152306   6.789   0.137  11.411  1.4110 -0.3602 -0.7208
10297TIP3    H252307   6.819   0.129  11.263  0.3917  1.4035 -1.0489
10298TIP3   OH252308   6.657   3.027  16.582 -0.4441  0.0203  0.7207
10298TIP3    H152309   6.718   2.964  16.544 -0.5772 -0.6391  1.5855
10298TIP3    H252310   6.617   2.982  16.656 -1.3067  0.7604  0.7375
10299TIP3   OH252311   0.627   0.377   5.578 -0.2022 -0.1274 -0.6226
10299TIP3    H152312   0.562   0.394   5.646  0.8479  1.6017  0.0291
10299TIP3    H252313   0.675   0.300   5.608 -1.0140 -0.5553 -0.4039
10300TIP3   OH252314   5.885   0.594  11.955 -0.2413  0.4396  0.3279
10300TIP3    H152315   5.797   0.555  11.949 -0.4533  1.0147 -0.3322
10300TIP3    H252316   5.876   0.680  11.916  1.3698 -0.6844 -2.8928
10301TIP3   OH252317   5.631   1.042  11.600  0.4865  0.0170  0.4083
10301TIP3    H152318   5.700   1.052  11.534 -0.1427  0.4747 -0.1928
10301TIP3    H252319   5.594   1.130  11.610  1.7933  0.3796  2.7699
10302TIP3   OH252320   4.403   1.034  10.448  0.3896  0.1696  0.3425
10302TIP3    H152321   4.453   1.111  10.421 -0.4573  0.9268  0.8679
10302TIP3    H252322   4.361   1.060  10.530 -0.0188 -0.8082  0.4611
10303TIP3   OH252323   3.916   3.630  15.118  1.2383  0.1202 -0.3022
10303TIP3    H152324   3.848   3.572  15.085  1.9948  0.7016 -3.1429
10303TIP3    H252325   3.995   3.577  15.120  2.2208  1.1459 -4.1265
10304TIP3   OH252326   3.596   4.857   4.666  0.0885  0.7328  0.2468
10304TIP3    H152327   3.667   4.801   4.697 -1.1120 -0.6985  0.5380
10304TIP3    H252328   3.621   4.945   4.694  1.5051  0.2009  0.7538
10305TIP3   OH252329   2.315   6.235   1.537  0.1724 -0.0987 -0.1468
10305TIP3    H152330   2.306   6.142   1.518  0.5178 -0.4500  1.3246
10305TIP3    H252331   2.406   6.246   1.564  0.0407  0.6023  0.0466
10306TIP3   OH252332   0.915   3.322   2.167  0.3501 -0.7233 -0.4515
10306TIP3    H152333   0.966   3.395   2.133  0.1822 -0.5333 -0.3019
10306TIP3    H252334   0.825   3.355   2.169  0.5089 -0.2660  1.3549
10307TIP3   OH252335   0.180   1.283   0.739 -0.4907 -0.1031 -0.1510
10307TIP3    H152336   0.236   1.340   0.687 -0.6434 -0.4004 -0.6542
10307TIP3    H252337   0.099   1.276   0.688 -0.7794 -0.1161  0.2985
10308TIP3   OH252338   1.962   4.836  13.331 -0.0999 -0.7522  0.3316
10308TIP3    H152339   2.000   4.750  13.348  1.6224 -0.0462  0.3321
10308TIP3    H252340   1.904   4.823  13.256  0.4192 -1.8343  0.0950
10309TIP3   OH252341   5.145   3.687  14.542  0.2502 -0.0800  0.3360
10309TIP3    H152342   5.088   3.716  14.612 -0.0913 -0.9398  0.4304
10309TIP3    H252343   5.091   3.688  14.463  0.5249  0.5193  0.1507
10310TIP3   OH252344   2.512   6.112  12.202  0.2399 -0.1489  0.0175
10310TIP3    H152345   2.432   6.162  12.185  0.8052  1.4602  1.7802
10310TIP3    H252346   2.491   6.023  12.173 -2.0272  0.3351  0.0021
10311TIP3   OH252347   2.160   3.629  15.990 -0.0610 -1.2900 -0.3384
10311TIP3    H152348   2.198   3.660  15.908  1.0137 -1.2904  0.1386
10311TIP3    H252349   2.137   3.709  16.038 -1.5912 -1.2925 -1.0239
10312TIP3   OH252350   4.673   1.053  14.693  0.1858 -0.8555 -0.4027
10312TIP3    H152351   4.734   1.080  14.762  1.7488  0.9657 -2.3973
10312TIP3    H252352   4.687   0.959  14.684  1.7256 -0.6956  0.1084
10313TIP3   OH252353   0.870   2.365  11.713  0.6329  0.7837 -0.1459
10313TIP3    H152354   0.860   2.367  11.808  0.6718  0.3650 -0.1326
10313TIP3    H252355   0.784   2.391  11.680 -0.4974 -2.4515 -0.0273
10314TIP3   OH252356   1.183   4.906  13.730  0.1834  0.2927  0.3048
10314TIP3    H152357   1.117   4.973  13.712  0.0231 -0.1962 -0.9933
10314TIP3    H252358   1.254   4.925  13.669  0.7005  0.0533  0.8267
10315TIP3   OH252359   4.209   5.656   2.146 -0.1435  0.2173 -0.8053
10315TIP3    H152360   4.290   5.704   2.161  0.5182 -1.0126 -0.3214
10315TIP3    H252361   4.142   5.725   2.140  0.4772  1.1519  1.6855
10316TIP3   OH252362   6.750   6.487  14.546  0.3114  0.1532  0.0996
10316TIP3    H152363   6.698   6.563  14.523  0.1039  0.4979  1.6541
10316TIP3    H252364   6.787   6.457  14.462 -0.9167  0.9625 -0.7529
10317TIP3   OH252365   6.312   3.445   2.723  0.3599  0.4824  0.3537
10317TIP3    H152366   6.406   3.463   2.726  0.3236  1.5327 -1.9033
10317TIP3    H252367   6.274   3.503   2.789  1.1016  2.2286 -0.6769
10318TIP3   OH252368   2.700   1.006  13.696 -0.0276 -0.0147 -0.2421
10318TIP3    H152369   2.752   1.081  13.723  1.0675 -1.0293  0.5450
10318TIP3    H252370   2.745   0.972  13.618 -0.6959  0.3114 -0.7843
10319TIP3   OH252371   1.941   1.578   6.422 -0.3458 -0.4666  0.2232
10319TIP3    H152372   1.873   1.521   6.456 -0.1670  0.7351  2.8499
10319TIP3    H252373   1.896   1.658   6.396 -0.0772 -0.0687  0.9605
10320TIP3   OH252374   2.453   2.135  12.881  0.5529 -0.1020 -0.1295
10320TIP3    H152375   2.542   2.104  12.893  0.3848 -0.4984  0.1290
10320TIP3    H252376   2.450   2.219  12.927  0.9652  0.2245 -0.6914
10321TIP3   OH252377   3.189   6.397  15.196  0.5337 -0.8120  0.1930
10321TIP3    H152378   3.250   6.466  15.222  0.6937 -0.8379 -0.1069
10321TIP3    H252379   3.155   6.363  15.279 -1.9166  1.6856  0.3570
10322TIP3   OH252380   1.528   3.303  12.234 -0.9010  0.5963 -0.3362
10322TIP3    H152381   1.469   3.374  12.207  0.4286  1.3038 -1.5777
10322TIP3    H252382   1.508   3.289  12.326 -0.6075  3.2532  0.2203
10323TIP3   OH252383   6.448   5.463   3.347 -0.2268  0.0919  0.2923
10323TIP3    H152384   6.477   5.426   3.263  0.3872 -0.1445  0.6038
10323TIP3    H252385   6.522   5.517   3.376 -0.4930  0.2856  0.6113
10324TIP3   OH252386   4.700   2.464   3.858 -0.2289 -0.2620 -0.4222
10324TIP3    H152387   4.683   2.454   3.765 -0.9750  2.1122 -0.6149
10324TIP3    H252388   4.794   2.474   3.866 -0.1237 -0.8843 -0.8549
10325TIP3   OH252389   4.929   4.114  14.544  0.4775  0.5295  0.2504
10325TIP3    H152390   4.875   4.133  14.467 -1.0635 -0.8124  0.9199
10325TIP3    H252391   5.019   4.116  14.512  0.0194  2.1861 -1.0709
10326TIP3   OH252392   3.647   4.108   1.382 -0.2803  0.2461 -0.0001
10326TIP3    H152393   3.651   4.021   1.423  1.9334 -0.4936 -1.5730
10326TIP3    H252394   3.718   4.157   1.424  0.9301  0.0118 -1.6647
10327TIP3   OH252395   5.805   1.452  16.297 -0.4362  0.0300 -0.0394
10327TIP3    H152396   5.897   1.468  16.318  0.2725 -2.9456 -0.4814
10327TIP3    H252397   5.768   1.415  16.377 -0.6094 -0.9916 -0.5795
10328TIP3   OH252398   3.205   3.389  11.328  0.1552  0.1643  0.5311
10328TIP3    H152399   3.252   3.341  11.259 -0.9029  0.7560 -0.6476
10328TIP3    H252400   3.225   3.481  11.309 -1.0938  0.3978  0.2783
10329TIP3   OH252401   2.745   4.713   1.804  0.2313 -0.1516  0.0166
10329TIP3    H152402   2.686   4.702   1.730 -0.1615  1.0456  0.1355
10329TIP3    H252403   2.832   4.718   1.766  0.0762 -0.0244 -0.3223
10330TIP3   OH252404   4.370   5.674  15.097 -0.4943  0.4938  0.0289
10330TIP3    H152405   4.296   5.631  15.055 -0.3673 -0.7677  1.0422
10330TIP3    H252406   4.445   5.654  15.040 -1.0498  2.7155 -1.6142
10331TIP3   OH252407   2.097   3.823   1.624 -0.2618 -0.3322 -0.3449
10331TIP3    H152408   2.095   3.799   1.717 -3.1507  1.7149  0.2752
10331TIP3    H252409   2.065   3.745   1.578 -1.1351 -0.5902  0.6628
10332TIP3   OH252410   2.187   1.400   0.410  0.2631 -0.1424  0.3123
10332TIP3    H152411   2.190   1.409   0.506 -1.5705 -0.0450  0.3931
10332TIP3    H252412   2.093   1.399   0.389  0.6309 -0.5617 -1.4535
10333TIP3   OH252413   2.897   4.253   1.112 -0.5695  0.5727  0.0544
10333TIP3    H152414   2.919   4.341   1.145 -2.8959  1.5364 -0.7466
10333TIP3    H252415   2.855   4.209   1.186  1.3641 -0.2396  0.7233
10334TIP3   OH252416   5.021   4.096  13.874  0.0978  0.3261 -0.4676
10334TIP3    H152417   4.968   4.115  13.797 -1.6588  0.4773  0.6924
10334TIP3    H252418   4.965   4.038  13.927  0.2949  1.9496  1.6643
10335TIP3   OH252419   6.410   1.700  16.415  0.3664 -1.0048  0.2488
10335TIP3    H152420   6.457   1.760  16.357 -0.3228  0.8308  1.5070
10335TIP3    H252421   6.379   1.630  16.358  3.3612 -1.5866 -0.8844
10336TIP3   OH252422   0.264   6.781  15.971 -0.3933  0.4543 -0.0506
10336TIP3    H152423   0.296   6.755  16.057  0.0126 -0.2713 -0.4146
10336TIP3    H252424   0.198   6.848  15.989 -1.3814 -0.7287  0.9006
10337TIP3   OH252425   2.375   4.950   1.271  0.3684 -0.0166 -0.5602
10337TIP3    H152426   2.308   4.883   1.262  0.3131 -0.1141  0.4845
10337TIP3    H252427   2.435   4.916   1.337 -0.5950  1.6685  1.2933
10338TIP3   OH252428   3.051   3.952   5.216  0.4835  0.8075  0.9190
10338TIP3    H152429   2.984   4.017   5.235  1.1904  1.8615 -0.0694
10338TIP3    H252430   3.132   4.003   5.208  1.4382 -0.4352  2.1395
10339TIP3   OH252431   1.756   6.171   5.340  0.2807  0.2131  0.0544
10339TIP3    H152432   1.833   6.161   5.396 -0.7394  0.4337  1.5752
10339TIP3    H252433   1.790   6.171   5.251  1.8360 -1.7870  0.5705
10340TIP3   OH252434   3.769   3.225  12.268  0.1337  0.5510  0.1459
10340TIP3    H152435   3.812   3.167  12.205  0.9469  0.8744  0.3939
10340TIP3    H252436   3.675   3.208  12.256  0.3330 -0.2932 -0.2739
10341TIP3   OH252437   4.312   4.092   3.904  0.3514 -0.2335 -0.6929
10341TIP3    H152438   4.370   4.143   3.961  0.5185 -0.5606 -0.5685
10341TIP3    H252439   4.252   4.048   3.965 -0.9180  1.1550 -0.8723
10342TIP3   OH252440   5.050   3.698  11.528  0.0196  0.1943  0.1595
10342TIP3    H152441   5.023   3.745  11.607 -0.1776  2.0017 -0.9114
10342TIP3    H252442   5.113   3.633  11.559 -0.1846  0.7271  1.8174
10343TIP3   OH252443   1.996   6.019  14.788  0.7891  0.0567  0.4124
10343TIP3    H152444   2.090   6.041  14.786  0.5184  1.2492  0.0120
10343TIP3    H252445   1.954   6.091  14.741 -0.4257  0.0086  1.3862
10344TIP3   OH252446   1.596   2.075  15.676  0.0072 -0.2815 -0.1357
10344TIP3    H152447   1.609   2.081  15.582  0.9074  0.7290  0.0291
10344TIP3    H252448   1.502   2.086  15.688  0.0489  1.0929 -0.8326
10345TIP3   OH252449   5.827   3.675   5.302  0.0191  0.3436 -0.6381
10345TIP3    H152450   5.841   3.649   5.393  0.3991 -0.0223 -0.8007
10345TIP3    H252451   5.788   3.763   5.308  0.9236  0.7261 -0.1424
10346TIP3   OH252452   1.996   4.006   5.014  0.5250 -0.0224 -0.2112
10346TIP3    H152453   2.053   3.948   5.064  2.1979 -1.1778 -3.2226
10346TIP3    H252454   1.918   3.954   4.996  0.9475 -0.4812 -0.7705
10347TIP3   OH252455   4.843   1.516   1.761 -0.9033  0.2697 -0.5498
10347TIP3    H152456   4.902   1.547   1.693 -1.4631 -1.5549 -1.9651
10347TIP3    H252457   4.896   1.511   1.840  0.3793  0.2763 -1.3946
10348TIP3   OH252458   0.991   5.729  11.230  0.0007 -0.3820  0.2137
10348TIP3    H152459   1.028   5.641  11.229  0.2075 -0.3112  0.9190
10348TIP3    H252460   1.026   5.771  11.151 -0.2958 -1.0020 -0.2559
10349TIP3   OH252461   5.062   6.249   3.289  0.0728  0.5478  0.2082
10349TIP3    H152462   5.085   6.281   3.202  0.6803  1.2114  0.5974
10349TIP3    H252463   5.042   6.156   3.277 -0.9557  0.8787 -0.8182
10350TIP3   OH252464   4.125   1.221   5.507  0.2761 -0.2810 -0.0727
10350TIP3    H152465   4.100   1.301   5.555  0.1312  0.5055 -1.4160
10350TIP3    H252466   4.044   1.169   5.503  0.1028 -0.0143 -0.0943
10351TIP3   OH252467   6.508   5.336   2.867 -0.0320 -0.4496 -0.3359
10351TIP3    H152468   6.536   5.379   2.787  2.4146 -1.4501 -0.1166
10351TIP3    H252469   6.493   5.245   2.841  1.2370 -0.8895  0.3810
10352TIP3   OH252470   1.009   4.068  10.686  0.2154 -0.3360 -0.6014
10352TIP3    H152471   1.098   4.102  10.682  0.7460 -1.7214 -1.4397
10352TIP3    H252472   0.953   4.142  10.665  0.9081  1.3394  2.6994
10353TIP3   OH252473   1.564   0.165  16.095 -0.2193 -0.3449  0.4980
10353TIP3    H152474   1.485   0.126  16.131  0.1662 -3.0665 -1.2388
10353TIP3    H252475   1.627   0.092  16.093  1.6097  1.1704 -0.1826
10354TIP3   OH252476   4.835   1.138  13.996  0.2029  0.3760 -0.2350
10354TIP3    H152477   4.799   1.152  14.084  1.6155 -1.0188  0.6263
10354TIP3    H252478   4.840   1.225  13.958  1.6207  1.3677  1.9499
10355TIP3   OH252479   5.403   5.078  12.877  0.1629 -0.5175  0.9945
10355TIP3    H152480   5.437   4.996  12.842  1.2636  0.7835 -1.1886
10355TIP3    H252481   5.451   5.147  12.831 -3.7406  1.4554 -0.6420
10356TIP3   OH252482   6.733   1.439   2.500  0.3536 -0.0610  0.6969
10356TIP3    H152483   6.717   1.455   2.593 -1.8683  1.4893  0.1226
10356TIP3    H252484   6.808   1.494   2.479  0.5193  0.0162  1.4345
10357TIP3   OH252485   1.864   6.285  11.260 -0.4229 -0.0752  0.0389
10357TIP3    H152486   1.790   6.228  11.243 -1.6081  1.1685  0.8688
10357TIP3    H252487   1.872   6.339  11.181 -0.4335 -0.1748 -0.0297
10358TIP3   OH252488   6.669   6.654  16.872  0.4324  0.0725 -0.0993
10358TIP3    H152489   6.684   6.593  16.799  0.0711 -0.3474  0.1694
10358TIP3    H252490   6.675   6.599  16.950 -0.0871  0.3463  0.1373
10359TIP3   OH252491   6.296   6.013  13.556 -0.0705 -0.0886 -0.3330
10359TIP3    H152492   6.359   5.941  13.559  0.4135  0.3700  0.5501
10359TIP3    H252493   6.287   6.033  13.463  3.0468  1.5621 -0.3768
10360TIP3   OH252494   1.051   2.770   1.108  0.3763  0.4669 -0.1463
10360TIP3    H152495   1.069   2.862   1.089  0.6302  0.3145 -0.6461
10360TIP3    H252496   1.129   2.724   1.079  1.2591  0.3320  2.2358
10361TIP3   OH252497   0.327   1.356   2.077  0.4439 -0.5491  0.4769
10361TIP3    H152498   0.273   1.433   2.058 -0.1301 -0.5957  1.7562
10361TIP3    H252499   0.373   1.338   1.996 -1.7451 -0.7297 -0.8214
10362TIP3   OH252500   4.882   6.050   0.516 -0.1651  0.1754  0.5220
10362TIP3    H152501   4.822   5.976   0.520 -1.2287  0.9725 -0.1986
10362TIP3    H252502   4.879   6.079   0.425 -0.9190  2.0071  1.0891
10363TIP3   OH252503   0.747   2.707  14.055  0.0945  0.7376 -0.1778
10363TIP3    H152504   0.684   2.703  13.983  1.3847  1.4409 -1.4190
10363TIP3    H252505   0.805   2.633  14.039  0.5828  1.0893 -0.0689
10364TIP3   OH252506   4.034   3.793   5.307  0.0399  0.4839 -0.3774
10364TIP3    H152507   4.013   3.743   5.228  0.4945  1.3497 -1.0690
10364TIP3    H252508   3.952   3.796   5.357 -0.3893  0.3528 -1.0629
10365TIP3   OH252509   3.093   3.127   5.495 -0.3114 -0.1777  0.2484
10365TIP3    H152510   3.150   3.059   5.460 -0.9684 -0.1800 -0.8543
10365TIP3    H252511   3.015   3.080   5.525 -0.2111 -0.0508  0.7229
10366TIP3   OH252512   1.146   3.362  12.900 -0.1930  0.0551 -0.0934
10366TIP3    H152513   1.084   3.307  12.852  0.6899 -0.2510 -0.9141
10366TIP3    H252514   1.091   3.430  12.939 -1.3202 -1.4325  1.0421
10367TIP3   OH252515   0.094   0.040   4.983  0.1751 -0.0386  0.5820
10367TIP3    H152516   0.010   0.024   5.026  0.2058  0.6621  0.9136
10367TIP3    H252517   0.111  -0.040   4.934 -0.7971 -0.0974  0.3201
10368TIP3   OH252518   3.636   1.784   4.189 -0.6977 -0.5218 -0.2866
10368TIP3    H152519   3.618   1.868   4.147 -1.2353  0.4490  1.7489
10368TIP3    H252520   3.628   1.719   4.118 -3.0820  0.8307 -1.3727
10369TIP3   OH252521   1.493   4.096  15.012 -0.3254 -0.0143 -0.6216
10369TIP3    H152522   1.461   4.089  15.102  0.9073 -4.0300 -0.3133
10369TIP3    H252523   1.415   4.082  14.958 -0.7417  0.4056 -0.1415
10370TIP3   OH252524   4.746   5.828   5.334  0.0267  0.2583  0.2445
10370TIP3    H152525   4.657   5.801   5.356  0.5946 -0.2674  2.1607
10370TIP3    H252526   4.750   5.823   5.239 -2.3669  1.5688 -0.0031
10371TIP3   OH252527   3.685   3.484  12.984  0.4671 -0.2459  0.0490
10371TIP3    H152528   3.706   3.427  12.910  0.8588  0.3236 -0.2911
10371TIP3    H252529   3.664   3.424  13.056  1.7706 -0.8352 -0.0316
10372TIP3   OH252530   6.497   1.602   0.488 -0.3790 -0.1423 -0.1640
10372TIP3    H152531   6.476   1.513   0.518 -0.1261 -0.6606 -1.4686
10372TIP3    H252532   6.541   1.642   0.563 -1.3193 -0.7879  0.7736
10373TIP3   OH252533   5.713   1.137   4.965  0.1312  0.3625  0.0246
10373TIP3    H152534   5.671   1.116   4.882  0.1526  1.9237 -0.4143
10373TIP3    H252535   5.654   1.102   5.032 -0.0743 -0.5667 -0.6240
10374TIP3   OH252536   6.663   1.419  15.751  0.5673  0.2472 -0.1816
10374TIP3    H152537   6.593   1.361  15.723 -1.0620  1.8273  0.4567
10374TIP3    H252538   6.704   1.374  15.825  0.8461 -1.0794 -1.0950
10375TIP3   OH252539   3.983   5.952  12.669  0.8227  0.3286 -0.3620
10375TIP3    H152540   4.054   5.951  12.733  0.4475  1.5642  0.1225
10375TIP3    H252541   3.995   6.034  12.621  0.0943  0.2431 -0.7058
10376TIP3   OH252542   0.518   1.745  12.281 -0.1154  1.0917  0.1490
10376TIP3    H152543   0.444   1.714  12.333 -1.7537  0.6259 -2.3362
10376TIP3    H252544   0.579   1.671  12.279 -0.8669  0.4717 -0.0840
10377TIP3   OH252545   5.107   3.882   1.762  0.0199 -0.5558  0.1774
10377TIP3    H152546   5.041   3.951   1.777  0.0834 -0.4690  0.0604
10377TIP3    H252547   5.066   3.824   1.698  0.3135 -0.1465 -0.3838
10378TIP3   OH252548   0.889   0.151  12.905 -0.5096 -0.0057  0.3543
10378TIP3    H152549   0.794   0.143  12.905 -0.3941 -1.9403  0.1778
10378TIP3    H252550   0.907   0.229  12.852 -1.9685 -0.2705 -0.5780
10379TIP3   OH252551   1.058   5.390   1.975 -0.4234  0.9481  0.3631
10379TIP3    H152552   1.131   5.407   2.035 -0.0075 -0.5535  0.3152
10379TIP3    H252553   1.014   5.314   2.012 -1.8714  1.7203  0.2780
10380TIP3   OH252554   5.915   4.984  12.860 -0.6235  0.3391 -0.4327
10380TIP3    H152555   5.969   4.918  12.903  0.1770  1.3847  0.2026
10380TIP3    H252556   5.900   4.949  12.772 -1.4157 -1.3350  0.3212
10381TIP3   OH252557   2.678   3.845   0.097  0.3423 -0.1409 -0.0406
10381TIP3    H152558   2.641   3.923   0.140  1.4538 -0.0404  0.7603
10381TIP3    H252559   2.713   3.878   0.014 -0.7555 -0.1222 -0.5189
10382TIP3   OH252560   2.357   1.170  16.758  0.0680  0.0152  0.0430
10382TIP3    H152561   2.357   1.266  16.756  0.2842  0.0447  0.9584
10382TIP3    H252562   2.423   1.148  16.824 -0.6556 -0.7389  0.5370
10383TIP3   OH252563   3.063   4.923  17.153  0.1080  0.0989 -0.1587
10383TIP3    H152564   3.120   4.997  17.168 -0.7319  0.4662  1.5133
10383TIP3    H252565   2.985   4.960  17.111 -1.4299  0.7376  2.9524
10384TIP3   OH252566   3.290   0.148  16.398  0.0538 -0.1201  0.1921
10384TIP3    H152567   3.368   0.185  16.357 -0.2114  0.7590  0.4665
10384TIP3    H252568   3.237   0.224  16.421 -0.1475 -0.6307  1.4764
10385TIP3   OH252569   1.956   5.635   0.022  0.2467  0.4113 -0.3203
10385TIP3    H152570   1.969   5.541   0.036 -1.6526  0.2532  0.8032
10385TIP3    H252571   2.011   5.677   0.089  1.9964  0.1902 -1.5626
10386TIP3   OH252572   6.028   1.325   2.121  0.2278  0.0033 -0.7529
10386TIP3    H152573   5.986   1.403   2.157  2.1175 -0.1066  1.9395
10386TIP3    H252574   6.070   1.356   2.040  1.5116  1.9936  0.6001
10387TIP3   OH252575   2.846   3.657  14.681  0.5886  0.0807  0.2828
10387TIP3    H152576   2.839   3.592  14.750 -0.8369  1.2219  1.2757
10387TIP3    H252577   2.936   3.689  14.686  0.5459  0.0431  1.5278
10388TIP3   OH252578   3.621   1.869  15.401  0.0750 -0.0909 -0.1642
10388TIP3    H152579   3.639   1.780  15.434 -0.1089  0.1237  0.5432
10388TIP3    H252580   3.669   1.926  15.460  0.2256  0.2821 -0.6437
10389TIP3   OH252581   0.393   6.221   5.666  0.4097 -0.0398 -0.4808
10389TIP3    H152582   0.399   6.132   5.632 -0.6351 -0.0040 -0.7824
10389TIP3    H252583   0.383   6.210   5.761  1.0627 -0.2113 -0.4278
10390TIP3   OH252584   6.440   4.484  15.298  0.4005 -0.4565  0.1262
10390TIP3    H152585   6.480   4.410  15.344 -1.0876 -1.7411 -0.5377
10390TIP3    H252586   6.375   4.519  15.359  0.9317  0.1693  0.3452
10391TIP3   OH252587   0.130   4.552  11.916 -0.3824 -0.3131 -0.2391
10391TIP3    H152588   0.170   4.630  11.955 -0.1749 -0.1590 -0.7581
10391TIP3    H252589   0.105   4.498  11.991  0.3720 -0.2008  0.1005
10392TIP3   OH252590   0.412   6.293   5.179 -0.1829  0.1750 -0.3280
10392TIP3    H152591   0.473   6.224   5.154  2.5885  2.7400 -1.1638
10392TIP3    H252592   0.354   6.251   5.244  2.4501 -2.4419  0.5678
10393TIP3   OH252593   2.608   4.644   2.803  0.3772  0.0639 -0.2462
10393TIP3    H152594   2.657   4.693   2.869 -0.4404  1.1139 -0.3833
10393TIP3    H252595   2.551   4.586   2.854 -0.3138  0.9331 -0.0155
10394TIP3   OH252596   6.511   3.389   4.350 -0.0730  0.4359  0.6218
10394TIP3    H152597   6.592   3.440   4.348  1.8266 -2.3708 -0.3365
10394TIP3    H252598   6.520   3.331   4.426 -0.4246 -0.9895 -0.3810
10395TIP3   OH252599   4.703   6.246  14.395 -0.0832  0.0144 -0.8446
10395TIP3    H152600   4.627   6.285  14.352  0.0775 -0.2278 -1.3582
10395TIP3    H252601   4.685   6.254  14.488 -1.9709 -2.3650 -0.9112
10396TIP3   OH252602   5.709   3.039   0.043  0.0872 -1.0655  0.0706
10396TIP3    H152603   5.713   3.009  -0.048 -0.2979  0.6625 -0.5443
10396TIP3    H252604   5.619   3.068   0.055  0.7101  0.9017  0.2574
10397TIP3   OH252605   6.478   6.048   2.854 -0.2861 -0.4975  0.1394
10397TIP3    H152606   6.551   5.986   2.851 -1.6640 -2.2830  0.9381
10397TIP3    H252607   6.427   6.020   2.930 -1.9998  0.4325 -0.6170
10398TIP3   OH252608   1.179   6.565   3.038 -0.2945 -0.1576  0.3639
10398TIP3    H152609   1.191   6.633   2.971 -0.9710  1.0665  1.4478
10398TIP3    H252610   1.263   6.559   3.082 -0.4121  0.4650  0.6863
10399TIP3   OH252611   0.510   0.679  13.441 -0.0810  0.3350  0.0015
10399TIP3    H152612   0.531   0.751  13.381 -1.7517 -0.6545 -1.9338
10399TIP3    H252613   0.423   0.701  13.475 -0.0237 -0.1163  0.4533
10400TIP3   OH252614   3.716   3.928   2.013  0.1857  0.0293  0.2215
10400TIP3    H152615   3.697   4.014   1.977  0.0467  0.3573  1.0603
10400TIP3    H252616   3.811   3.927   2.026  0.0044  0.6774  1.7330
10401TIP3   OH252617   4.895   1.317  12.113  0.3003 -0.1031  0.2306
10401TIP3    H152618   4.905   1.339  12.206  0.6218 -0.1020  0.1966
10401TIP3    H252619   4.912   1.399  12.067  0.8952 -0.2803  0.1337
10402TIP3   OH252620   2.934   5.644  13.142 -0.5565 -0.4392 -0.3292
10402TIP3    H152621   2.848   5.605  13.131 -1.3409  0.6679  1.4558
10402TIP3    H252622   2.990   5.598  13.079 -2.1541 -2.0364 -0.6455
10403TIP3   OH252623   3.282   1.410   5.679 -0.2966  0.4765  0.6129
10403TIP3    H152624   3.282   1.373   5.590 -0.3035  1.0865  0.3516
10403TIP3    H252625   3.230   1.349   5.731 -0.8315  0.4512  0.0536
10404TIP3   OH252626   4.978   6.451   0.043 -0.0837  0.0407  0.7151
10404TIP3    H152627   4.982   6.547   0.033 -1.0549 -0.1181 -2.1539
10404TIP3    H252628   5.069   6.425   0.056  0.7273  1.1561 -1.9882
10405TIP3   OH252629   0.630   2.079  12.917 -0.6038 -0.1096  0.4041
10405TIP3    H152630   0.559   2.037  12.966 -0.3001 -0.0740  0.8858
10405TIP3    H252631   0.702   2.084  12.980 -1.0993  2.5388  0.8938
10406TIP3   OH252632   2.113   3.351   5.915 -0.3578  0.8618 -0.5415
10406TIP3    H152633   2.143   3.417   5.978 -1.3545 -1.2063  2.2815
10406TIP3    H252634   2.017   3.362   5.913 -0.5438 -0.5361  0.0486
10407TIP3   OH252635   4.395   6.273  17.041 -0.6459  0.2323  0.1151
10407TIP3    H152636   4.347   6.218  17.104 -0.0062  0.4139  0.7674
10407TIP3    H252637   4.375   6.362  17.068  0.8581  0.3203  1.0333
10408TIP3   OH252638   2.062   5.504  12.170  0.4616 -0.0452 -0.2429
10408TIP3    H152639   2.134   5.561  12.196 -0.0983  0.8326 -0.5770
10408TIP3    H252640   2.046   5.526  12.078  0.4752 -1.0089 -0.4879
10409TIP3   OH252641   0.704   0.372  15.560 -0.4603  0.1559  0.3142
10409TIP3    H152642   0.721   0.447  15.617  1.1412 -0.2231  0.3730
10409TIP3    H252643   0.714   0.296  15.617  1.5126 -0.2425 -0.5082
10410TIP3   OH252644   6.140   1.873   5.056 -0.5270 -0.0407 -0.7688
10410TIP3    H152645   6.082   1.807   5.017  0.7136 -0.6476 -1.6610
10410TIP3    H252646   6.199   1.822   5.112 -0.0363  0.4009 -0.8800
10411TIP3   OH252647   4.876   0.824  14.482  0.2536  0.7493  0.3215
10411TIP3    H152648   4.904   0.894  14.422  0.7551 -1.0418 -1.6408
10411TIP3    H252649   4.794   0.792  14.445  0.7069 -0.5676  0.3926
10412TIP3   OH252650   3.327   3.917   0.553 -0.5712 -0.5481 -0.0046
10412TIP3    H152651   3.396   3.919   0.487 -0.4640 -0.2456  0.1117
10412TIP3    H252652   3.313   3.824   0.571  0.6530 -0.6013  0.8501
10413TIP3   OH252653   5.271   5.599   3.585  0.4282 -0.1181 -0.0419
10413TIP3    H152654   5.344   5.653   3.556  0.6583 -0.2506  0.2863
10413TIP3    H252655   5.197   5.628   3.532  0.5312  0.5707  0.1813
10414TIP3   OH252656   5.901   6.446   4.562 -0.3427 -0.1376  0.0474
10414TIP3    H152657   5.889   6.366   4.512 -2.2709  0.5312 -0.6238
10414TIP3    H252658   5.977   6.488   4.522 -0.7120 -0.5308 -1.1045
10415TIP3   OH252659   5.492   5.973   0.703 -0.0515  0.1758  0.0278
10415TIP3    H152660   5.456   5.918   0.773  0.2192  1.5016  1.2604
10415TIP3    H252661   5.464   6.062   0.726  3.2875  1.2049  0.6240
10416TIP3   OH252662   5.818   3.719  15.906 -0.3556 -0.1115 -0.6871
10416TIP3    H152663   5.854   3.644  15.859 -0.6500 -1.5721  1.2627
10416TIP3    H252664   5.795   3.781  15.837  1.5938 -1.0133 -2.2695
10417TIP3   OH252665   6.145   2.531  15.296 -0.0881  0.2780  0.7464
10417TIP3    H152666   6.118   2.440  15.311 -1.3045  0.1857 -1.5268
10417TIP3    H252667   6.076   2.583  15.336 -0.7771  0.1119 -0.1686
10418TIP3   OH252668   5.796   1.937  13.914 -0.3941  0.3700 -0.2846
10418TIP3    H152669   5.809   2.029  13.935 -2.3149 -0.1026  4.1931
10418TIP3    H252670   5.881   1.896  13.932  0.1708  1.0842 -1.2665
10419TIP3   OH252671   2.588   6.514  11.472 -0.3089  0.4351 -0.4413
10419TIP3    H152672   2.604   6.581  11.406  0.6256 -0.1217 -0.7846
10419TIP3    H252673   2.640   6.439  11.445 -1.4167 -0.4804 -0.1109
10420TIP3   OH252674   3.736   1.585  14.170  0.0268 -0.2179  0.2835
10420TIP3    H152675   3.746   1.672  14.208  0.5560 -0.2177  0.1559
10420TIP3    H252676   3.690   1.599  14.087  0.2451 -0.0417  0.1931
10421TIP3   OH252677   6.316   0.059   4.047  0.4512  0.6655 -0.4210
10421TIP3    H152678   6.333   0.008   3.967 -0.4290 -1.3148  0.5704
10421TIP3    H252679   6.221   0.064   4.052  0.4492 -0.2595  1.0632
10422TIP3   OH252680   4.648   0.690  11.842 -0.3109 -0.0507 -0.2333
10422TIP3    H152681   4.697   0.763  11.805 -1.1385 -0.2388 -1.7965
10422TIP3    H252682   4.696   0.666  11.921  0.8289  1.1893 -0.5125
10423TIP3   OH252683   2.202   1.988   2.804  0.0641  0.3387  0.4795
10423TIP3    H152684   2.134   2.052   2.785  0.4650  0.7044  0.2599
10423TIP3    H252685   2.155   1.905   2.813 -0.2405  0.2589 -1.4186
10424TIP3   OH252686   5.669   6.137   2.482 -0.2598  0.2976  0.5577
10424TIP3    H152687   5.574   6.148   2.493 -0.4016 -0.4883  0.1727
10424TIP3    H252688   5.698   6.219   2.441 -0.5712  1.0403  1.7714
10425TIP3   OH252689   4.121   3.041   5.119  0.0682  0.4968  0.1795
10425TIP3    H152690   4.063   2.965   5.112  0.3410  0.3274 -0.2943
10425TIP3    H252691   4.208   3.007   5.096  0.8101  0.2231  2.9847
10426TIP3   OH252692   2.638   5.950  15.396 -0.0220 -0.2734 -0.0890
10426TIP3    H152693   2.714   5.975  15.449 -1.2624 -0.6662  1.9552
10426TIP3    H252694   2.571   5.926  15.459 -1.6876 -0.5064 -1.8573
10427TIP3   OH252695   2.018   4.734  11.310 -0.4583  0.1745 -0.1241
10427TIP3    H152696   2.003   4.694  11.225  1.8410  0.2501 -0.6184
10427TIP3    H252697   2.005   4.663  11.373 -0.7834 -0.2324 -0.6511
10428TIP3   OH252698   5.194   5.208   0.805  0.3092  0.4569 -0.1794
10428TIP3    H152699   5.135   5.238   0.874 -1.0162  2.0980 -1.9210
10428TIP3    H252700   5.276   5.254   0.823 -0.4719  2.0332 -0.4857
10429TIP3   OH252701   2.706   5.196   4.274  0.0713 -0.5210 -0.2265
10429TIP3    H152702   2.680   5.246   4.352  0.0819  1.3555 -1.3703
10429TIP3    H252703   2.646   5.121   4.274 -0.1494 -0.3972  1.3943
10430TIP3   OH252704   0.660   2.264   3.900  0.3066  0.0326 -0.2910
10430TIP3    H152705   0.695   2.195   3.956  2.4025 -1.1419 -2.8547
10430TIP3    H252706   0.565   2.259   3.913  0.5890 -1.3789  1.7110
10431TIP3   OH252707   0.714   3.043  11.753 -0.2498  0.1614 -0.0572
10431TIP3    H152708   0.785   3.099  11.721 -0.2227  0.1404 -0.0337
10431TIP3    H252709   0.675   3.006  11.674 -1.4579  1.6485 -0.2134
10432TIP3   OH252710   1.864   1.256  16.951  0.3232  0.0101  0.3494
10432TIP3    H152711   1.955   1.260  16.978  0.4479 -0.5361  0.0194
10432TIP3    H252712   1.861   1.187  16.885 -0.4380 -0.4086  0.8115
10433TIP3   OH252713   3.548   4.770  16.879  0.3675 -0.4693 -0.6663
10433TIP3    H152714   3.600   4.850  16.888  0.3882 -0.6764  2.3571
10433TIP3    H252715   3.458   4.798  16.894  0.5721 -1.1518  2.6668
10434TIP3   OH252716   4.440   0.402   5.523 -0.0309  0.4119 -0.2558
10434TIP3    H152717   4.483   0.444   5.597 -0.6356  0.2125  0.2226
10434TIP3    H252718   4.465   0.310   5.530  1.0759  0.6272 -1.1476
10435TIP3   OH252719   5.657   2.269   1.085  0.4314  0.0666  0.0560
10435TIP3    H152720   5.733   2.248   1.030  2.6432 -1.8853  3.5226
10435TIP3    H252721   5.582   2.248   1.030  2.4197 -1.0420 -2.4629
10436TIP3   OH252722   3.985   5.102   5.324 -0.5015  0.6180 -0.9010
10436TIP3    H152723   3.930   5.074   5.397 -0.2784  0.2971 -0.8532
10436TIP3    H252724   4.073   5.106   5.360 -0.5124  1.2906 -0.9357
10437TIP3   OH252725   3.669   4.592   0.596  0.5618  0.5384 -0.3567
10437TIP3    H152726   3.580   4.575   0.628  0.6667  0.6423  0.0003
10437TIP3    H252727   3.696   4.672   0.642  1.5934 -0.5976  1.1328
10438TIP3   OH252728   4.796   1.824   3.767 -0.7448 -0.3027  0.3199
10438TIP3    H152729   4.709   1.854   3.794 -0.5666  1.8448 -1.2748
10438TIP3    H252730   4.809   1.743   3.815 -3.1515 -0.0808  1.4791
10439TIP3   OH252731   3.417   2.812   1.197 -0.4288 -0.1744  0.1936
10439TIP3    H152732   3.378   2.728   1.171 -1.2566  0.2320  0.0786
10439TIP3    H252733   3.464   2.841   1.119 -2.0832  0.5647 -0.5856
10440TIP3   OH252734   0.213   5.660   3.510  0.1517  0.0560  0.0794
10440TIP3    H152735   0.168   5.653   3.594  0.1541  1.6972  0.2517
10440TIP3    H252736   0.208   5.573   3.473 -0.4065 -0.5511  1.5032
10441TIP3   OH252737   3.296   1.782   1.285 -0.0210  0.9116  0.3819
10441TIP3    H152738   3.212   1.741   1.267 -0.1200  0.5456  1.6593
10441TIP3    H252739   3.308   1.844   1.212 -2.7540  3.1276  1.6229
10442TIP3   OH252740   5.995   6.756   3.378  0.1884  0.2860 -0.5062
10442TIP3    H152741   6.049   6.707   3.315 -1.5818  0.8076 -2.5347
10442TIP3    H252742   5.994   6.845   3.345  0.7314  1.0369  1.3674
10443TIP3   OH252743   6.688   2.648  12.255  0.4255 -0.1327 -0.3654
10443TIP3    H152744   6.638   2.569  12.238 -1.4025  0.6426  1.0747
10443TIP3    H252745   6.751   2.623  12.322  0.1247 -0.4651 -0.2039
10444TIP3   OH252746   2.338   4.681   1.052  1.1519  0.2969 -0.0325
10444TIP3    H152747   2.352   4.610   0.989  1.0472  1.7640 -1.7942
10444TIP3    H252748   2.249   4.712   1.034  0.7697  0.1427  1.4974
10445TIP3   OH252749   0.102   0.595   6.135 -0.2285  0.6428  0.3494
10445TIP3    H152750   0.109   0.688   6.113  0.3187  0.9430  1.6662
10445TIP3    H252751   0.163   0.551   6.076 -1.0655  0.9928 -0.8283
10446TIP3   OH252752   6.741   1.002   5.276 -0.3744 -0.0878 -0.4986
10446TIP3    H152753   6.742   0.938   5.348  0.0172 -0.6741 -1.0138
10446TIP3    H252754   6.710   1.083   5.317  0.2725 -0.2905  0.4378
10447TIP3   OH252755   2.111   2.999   4.654  0.5144  0.5827  0.5486
10447TIP3    H152756   2.043   3.052   4.694 -0.4046 -0.2070  0.0565
10447TIP3    H252757   2.093   3.002   4.560 -0.1109 -1.2923  0.5703
10448TIP3   OH252758   0.166   2.187  14.476 -0.4199 -0.1764 -0.3829
10448TIP3    H152759   0.238   2.235  14.516  0.1066  0.3009 -1.8148
10448TIP3    H252760   0.125   2.140  14.548 -0.0079  1.2205  0.8146
10449TIP3   OH252761   3.275   5.110   5.863  0.5614  0.1606  0.2100
10449TIP3    H152762   3.268   5.196   5.821  2.9284 -0.7730 -2.4228
10449TIP3    H252763   3.238   5.050   5.799  0.2407 -0.9528  1.4108
10450TIP3   OH252764   2.309   6.247  13.259  0.5524  0.1632 -0.0712
10450TIP3    H152765   2.277   6.157  13.256 -1.1723  0.6457  1.6647
10450TIP3    H252766   2.396   6.240  13.298 -0.4747 -0.6343  2.2449
10451TIP3   OH252767   0.036   5.678   4.385 -0.4991  0.1383 -0.2204
10451TIP3    H152768  -0.057   5.681   4.410 -0.9174  0.2970 -1.7188
10451TIP3    H252769   0.036   5.699   4.292  1.0739  0.3137 -0.1970
10452TIP3   OH252770   3.385   0.833   5.893 -0.2819  0.7715  0.1443
10452TIP3    H152771   3.292   0.808   5.888 -0.0673 -0.2981  1.0833
10452TIP3    H252772   3.425   0.765   5.948  1.4205  0.1472 -1.7288
10453TIP3   OH252773   6.395   2.846  16.226  0.2025 -0.7982 -0.6795
10453TIP3    H152774   6.481   2.828  16.187  1.7969  1.8315  1.3764
10453TIP3    H252775   6.411   2.853  16.320 -2.3954 -0.7869 -0.1521
10454TIP3   OH252776   1.654   6.640  10.826  0.3942  0.8339 -0.1435
10454TIP3    H152777   1.580   6.582  10.842 -0.8933  2.4986  0.1728
10454TIP3    H252778   1.616   6.717  10.784  2.0378  1.5037 -0.4755
10455TIP3   OH252779   6.248   2.960  15.656 -0.1303  0.0998  0.2027
10455TIP3    H152780   6.336   2.965  15.691  0.1047  2.7196 -0.4840
10455TIP3    H252781   6.192   2.996  15.725 -0.7892 -2.0111  0.8345
10456TIP3   OH252782   4.608   1.030  10.787 -0.0541 -0.0822 -0.0093
10456TIP3    H152783   4.695   0.990  10.782 -0.7325 -1.5357 -1.4035
10456TIP3    H252784   4.578   1.012  10.876  0.8018 -0.1937  0.2607
10457TIP3   OH252785   2.339   3.380  13.862 -0.0566  0.0199 -0.3910
10457TIP3    H152786   2.410   3.324  13.892 -1.0722 -0.4001  1.2972
10457TIP3    H252787   2.260   3.327  13.871 -0.6110  0.4173 -2.4144
10458TIP3   OH252788   2.874   4.736  11.739 -0.2034 -0.3181 -0.1996
10458TIP3    H152789   2.945   4.751  11.802  0.7196  0.6056 -1.4024
10458TIP3    H252790   2.836   4.822  11.723 -1.4757 -0.7710  0.2606
10459TIP3   OH252791   2.600   1.969  14.386 -0.1990 -0.3250 -0.1838
10459TIP3    H152792   2.629   1.882  14.414  4.0635  0.1676 -2.1848
10459TIP3    H252793   2.681   2.020  14.379 -2.2990  3.2812 -0.9517
10460TIP3   OH252794   1.117   1.813  14.867 -0.8263  0.0290  0.6675
10460TIP3    H152795   1.093   1.757  14.794  1.1656  0.0007 -0.0491
10460TIP3    H252796   1.207   1.841  14.847 -0.7062  1.1018  2.4477
10461TIP3   OH252797   4.545   6.067   5.853 -0.0804  0.3267 -0.5909
10461TIP3    H152798   4.501   6.148   5.879 -2.6407 -0.6601 -1.5631
10461TIP3    H252799   4.548   6.015   5.934  0.2810  0.8015 -0.2883
10462TIP3   OH252800   5.134   6.701  13.712  0.0097 -0.5387  0.5887
10462TIP3    H152801   5.222   6.731  13.735  0.3541 -1.4361  0.4754
10462TIP3    H252802   5.126   6.615  13.754 -0.5954 -0.7283  0.1040
10463TIP3   OH252803   2.909   1.056  15.449 -0.5024  0.1366  0.3637
10463TIP3    H152804   2.960   1.003  15.511  0.2081  2.1855  1.6446
10463TIP3    H252805   2.818   1.041  15.475 -0.2911 -0.1235  0.9893
10464TIP3   OH252806   6.668   5.192  14.001 -0.2378  0.0309 -0.5703
10464TIP3    H152807   6.638   5.265  14.055 -0.9992 -0.8236  0.2011
10464TIP3    H252808   6.763   5.189  14.016 -0.4071 -0.0691  0.5855
10465TIP3   OH252809   5.436   5.657   4.270 -0.4408 -0.2173 -0.1801
10465TIP3    H152810   5.523   5.652   4.230 -0.4300 -0.0881 -0.1750
10465TIP3    H252811   5.436   5.590   4.337  0.2110  0.7997  0.8745
10466TIP3   OH252812   5.676   3.355  15.427  0.4131 -0.8960 -0.0736
10466TIP3    H152813   5.613   3.426  15.415  0.3470 -0.9209  0.1129
10466TIP3    H252814   5.637   3.280  15.382  1.0026 -0.5243 -1.2183
10467TIP3   OH252815   1.303   4.468   4.048 -0.0949  0.4857 -0.1071
10467TIP3    H152816   1.222   4.517   4.036 -0.2107  0.5176  0.7698
10467TIP3    H252817   1.363   4.505   3.982 -0.4539  1.1936 -0.0504
10468TIP3   OH252818   3.232   6.555  14.810 -0.0831  0.8839  0.3799
10468TIP3    H152819   3.269   6.533  14.724  0.1157 -0.7786  0.8593
10468TIP3    H252820   3.138   6.555  14.795 -0.0347  3.8914 -0.5532
10469TIP3   OH252821   5.326   5.887   4.922 -0.2989 -0.3987  0.3612
10469TIP3    H152822   5.272   5.817   4.885 -0.3780 -0.1755  0.0516
10469TIP3    H252823   5.263   5.953   4.950 -0.1739  0.0245 -0.3387
10470TIP3   OH252824   6.650   2.634   4.294  0.8095 -0.1577  0.7276
10470TIP3    H152825   6.736   2.618   4.333  0.6717 -0.5823  0.8676
10470TIP3    H252826   6.649   2.579   4.216  0.6983 -0.0942  0.6847
10471TIP3   OH252827   1.246   5.574   3.913  0.1637 -0.0034  0.1203
10471TIP3    H152828   1.280   5.589   3.825 -0.3614 -0.1111 -0.1049
10471TIP3    H252829   1.222   5.660   3.945  2.1276  0.3051  0.9173
10472TIP3   OH252830   0.885   3.609  13.888  0.6656  0.5427 -0.4112
10472TIP3    H152831   0.928   3.640  13.968  0.0139  0.7014 -0.1109
10472TIP3    H252832   0.791   3.609  13.910  0.5654 -0.5949 -0.7736
10473TIP3   OH252833   6.280   0.876  16.436  0.0707  0.3853  0.0274
10473TIP3    H152834   6.277   0.821  16.358  2.8259 -1.0591  0.8009
10473TIP3    H252835   6.312   0.961  16.405  1.3441 -0.2412 -0.4294
10474TIP3   OH252836   6.176   2.335   2.114  0.0993  0.0549 -0.0268
10474TIP3    H152837   6.185   2.340   2.209  2.4629  0.4959 -0.2010
10474TIP3    H252838   6.162   2.426   2.087  0.9653  0.1437 -0.1950
10475TIP3   OH252839   4.526   1.342   3.779  0.0049 -0.1204 -0.5783
10475TIP3    H152840   4.589   1.269   3.783  0.2679  0.0547 -1.3397
10475TIP3    H252841   4.518   1.371   3.870  0.5170 -0.5803 -0.3770
10476TIP3   OH252842   2.216   5.344  11.574 -0.9537  0.4496 -0.5041
10476TIP3    H152843   2.153   5.392  11.521 -1.9107 -0.3517 -0.1185
10476TIP3    H252844   2.230   5.262  11.526 -0.7882  0.3006 -0.2040
10477TIP3   OH252845   0.866   0.805   4.810 -0.6731  0.2074  0.2808
10477TIP3    H152846   0.878   0.713   4.787 -2.8160  0.0618 -0.4146
10477TIP3    H252847   0.937   0.824   4.872  4.2783  0.0842 -4.6134
10478TIP3   OH252848   0.187   1.708   2.611 -0.1205  0.1462 -0.0660
10478TIP3    H152849   0.162   1.670   2.695 -0.4578  0.1995 -0.1397
10478TIP3    H252850   0.121   1.776   2.595  0.3370  0.5961 -0.0513
10479TIP3   OH252851   3.845   3.847   0.068  0.1310  0.8123  0.3433
10479TIP3    H152852   3.890   3.862  -0.015  2.3655  1.1669  1.5297
10479TIP3    H252853   3.781   3.918   0.075  0.8160  1.5230 -0.4830
10480TIP3   OH252854   4.924   6.736   0.032 -0.4247  0.1904 -0.8908
10480TIP3    H152855   4.962   6.805  -0.023 -1.3049  0.6433 -0.9345
10480TIP3    H252856   4.841   6.772   0.062 -0.1709 -0.2466  0.3610
10481TIP3   OH252857   3.996   6.782  17.042  1.0445  0.2936 -0.3136
10481TIP3    H152858   3.969   6.756  16.954  1.8436  0.2848 -0.5607
10481TIP3    H252859   3.959   6.870  17.053  0.3556  0.0174 -0.3872
10482TIP3   OH252860   4.687   4.616   0.868 -0.3916 -0.1204  0.2676
10482TIP3    H152861   4.606   4.591   0.913  0.3796 -2.1537  0.6481
10482TIP3    H252862   4.756   4.595   0.930  0.5384 -0.2380 -0.7798
10483TIP3   OH252863   0.275   2.664   2.547 -0.0362  0.0365 -0.1775
10483TIP3    H152864   0.282   2.690   2.638 -3.3085 -1.9572  0.8006
10483TIP3    H252865   0.287   2.745   2.497 -0.7517  1.6670  2.1638
10484TIP3   OH252866   6.307   6.151  10.347  0.0008  0.3833  0.1363
10484TIP3    H152867   6.251   6.077  10.370 -4.1456  2.3050 -2.5319
10484TIP3    H252868   6.273   6.224  10.400  0.8081  1.3636 -0.6518
10485TIP3   OH252869   2.070   5.733  15.767 -0.4495  0.0900 -0.2996
10485TIP3    H152870   2.146   5.720  15.710 -0.3214 -2.5419  0.3157
10485TIP3    H252871   2.002   5.677  15.729 -2.0285  2.1566 -0.6547
10486TIP3   OH252872   2.390   2.699  12.465 -0.2746  0.0124 -0.2523
10486TIP3    H152873   2.377   2.605  12.451  0.0922  0.1162 -1.3755
10486TIP3    H252874   2.446   2.703  12.542  1.1957 -0.7767 -1.2298
10487TIP3   OH252875   1.487   3.779  11.773 -0.4520 -0.1940  0.2148
10487TIP3    H152876   1.442   3.815  11.696 -0.5448 -0.3883  0.1772
10487TIP3    H252877   1.497   3.853  11.832  1.9737  0.6000 -1.0496
10488TIP3   OH252878   3.413   3.873  13.888 -0.0872  0.2813 -0.0557
10488TIP3    H152879   3.457   3.818  13.952 -0.6230 -1.2478 -0.9347
10488TIP3    H252880   3.464   3.863  13.808 -1.3912 -0.6862 -0.8051
10489TIP3   OH252881   6.209   6.786  15.379  0.1821 -0.3373 -0.0149
10489TIP3    H152882   6.215   6.875  15.346 -0.8706 -0.0442  0.5636
10489TIP3    H252883   6.250   6.789  15.465  3.1424 -1.1518 -1.2471
10490TIP3   OH252884   4.836   6.009   1.273  0.2277 -0.4146 -0.5270
10490TIP3    H152885   4.834   6.006   1.369 -0.7071  0.3960 -0.5032
10490TIP3    H252886   4.875   6.094   1.253  0.2887 -0.5233 -0.8716
10491TIP3   OH252887   0.257   4.041   3.807 -0.1377 -0.3458  0.0226
10491TIP3    H152888   0.326   3.975   3.812 -0.3136 -0.5412 -0.0838
10491TIP3    H252889   0.270   4.096   3.884  1.1823  0.6593 -0.8614
10492TIP3   OH252890   2.444   2.441   0.474  0.0737 -0.2939 -0.1855
10492TIP3    H152891   2.449   2.504   0.402  1.1485 -0.1560 -0.0113
10492TIP3    H252892   2.484   2.487   0.549 -1.3277 -0.3143  0.6025
10493TIP3   OH252893   4.163   2.213  11.761 -0.4230 -0.4139 -0.1573
10493TIP3    H152894   4.118   2.229  11.677  2.6146  3.9644 -1.2745
10493TIP3    H252895   4.253   2.193  11.736  0.2401 -0.4712  2.1073
10494TIP3   OH252896   3.726   0.497   1.392 -0.1356 -0.8585 -0.3499
10494TIP3    H152897   3.752   0.567   1.452 -1.0888 -0.4850 -0.3493
10494TIP3    H252898   3.808   0.461   1.360  0.3748 -0.1183  0.0886
10495TIP3   OH252899   4.880   6.069   5.381 -0.2973 -0.3651  0.8401
10495TIP3    H152900   4.810   6.004   5.382 -0.7507  0.1079  1.4277
10495TIP3    H252901   4.876   6.109   5.468 -0.6205  1.0543  0.1995
10496TIP3   OH252902   6.084   1.504  13.763 -0.4063 -0.0093  0.2443
10496TIP3    H152903   6.045   1.457  13.837  2.1460 -0.5936  1.3257
10496TIP3    H252904   6.022   1.492  13.692 -2.6455 -0.0196  2.0635
10497TIP3   OH252905   4.248   2.372  12.523 -0.8594  0.2468  0.5426
10497TIP3    H152906   4.284   2.422  12.596 -2.1099 -0.2318  1.5279
10497TIP3    H252907   4.168   2.418  12.499 -0.3444  0.5303 -0.7077
10498TIP3   OH252908   4.177   0.001  16.682  0.0300 -0.5598 -0.0892
10498TIP3    H152909   4.186   0.085  16.727  0.0070 -0.5465 -0.1101
10498TIP3    H252910   4.237  -0.058  16.728  3.8892  0.6638 -3.0342
10499TIP3   OH252911   2.987   4.102  12.755  0.3047 -0.4361  0.0183
10499TIP3    H152912   2.984   4.080  12.662 -0.8088 -3.1476  0.5990
10499TIP3    H252913   3.065   4.058  12.788 -1.3825 -2.8811  1.0170
10500TIP3   OH252914   0.290   3.345  11.357 -0.1592 -0.2297  0.4606
10500TIP3    H152915   0.227   3.307  11.419 -0.0778 -1.9585 -0.4471
10500TIP3    H252916   0.375   3.319  11.392 -0.1252 -1.7130 -0.5992
10501TIP3   OH252917   4.005   2.178   4.047 -0.2724 -0.0366 -0.3608
10501TIP3    H152918   3.932   2.241   4.050 -0.0095  0.3199 -1.1175
10501TIP3    H252919   4.029   2.165   4.138 -1.2513 -0.1229 -0.1003
10502TIP3   OH252920   5.416   0.967   2.706 -0.4599 -0.5009  0.0904
10502TIP3    H152921   5.351   1.013   2.760  0.5449  0.1738  0.7585
10502TIP3    H252922   5.405   1.005   2.618 -0.5029  0.1179  0.3564
10503TIP3   OH252923   2.925   2.647   2.011  0.3942 -0.1637  0.4528
10503TIP3    H152924   2.862   2.678   2.076 -0.4507  0.5993 -0.6825
10503TIP3    H252925   2.870   2.614   1.939  1.2955  0.1206 -0.3813
10504TIP3   OH252926   0.369   5.201   1.508  0.2623 -0.0020  0.1460
10504TIP3    H152927   0.352   5.291   1.535  1.5055  0.6685 -1.2038
10504TIP3    H252928   0.285   5.156   1.520 -0.0477  0.9800  2.0642
10505TIP3   OH252929   4.138   5.375  12.176  0.7486 -0.1153  0.7598
10505TIP3    H152930   4.228   5.397  12.153  0.6209  1.5488  1.7282
10505TIP3    H252931   4.111   5.311  12.109  1.6899  1.4896 -1.2530
10506TIP3   OH252932   3.556   0.864   1.971  0.0968 -0.5900 -0.1321
10506TIP3    H152933   3.630   0.923   1.963 -0.1477 -0.1359  0.7582
10506TIP3    H252934   3.595   0.779   1.992  0.3761 -0.3362  0.4138
10507TIP3   OH252935   6.265   3.116  13.030 -0.0095  0.9225  0.3332
10507TIP3    H152936   6.187   3.077  13.068 -0.7183  2.0312  0.0835
10507TIP3    H252937   6.338   3.074  13.076 -0.7594  0.1817  0.8768
10508TIP3   OH252938   3.924   3.205   2.396 -0.5199 -0.0562 -0.0928
10508TIP3    H152939   3.838   3.170   2.421 -0.2017 -0.5754  0.2883
10508TIP3    H252940   3.908   3.247   2.311 -0.8801 -1.3195 -0.6822
10509TIP3   OH252941   1.288   4.966   2.414  0.0884 -0.0606  0.3882
10509TIP3    H152942   1.367   4.924   2.380 -0.3961 -0.4287 -0.3082
10509TIP3    H252943   1.236   4.894   2.450 -1.3136 -0.3009 -1.9233
10510TIP3   OH252944   3.395   2.871   3.744 -0.1450  0.0147  0.1416
10510TIP3    H152945   3.430   2.870   3.833  0.5473  3.5780  0.0705
10510TIP3    H252946   3.302   2.890   3.756 -0.2607 -0.5437  0.1273
10511TIP3   OH252947   5.286   5.995   5.256  0.1379  0.4464  0.3955
10511TIP3    H152948   5.314   6.024   5.169  0.9877 -1.0938  0.1138
10511TIP3    H252949   5.325   6.058   5.316  2.3423 -0.2829 -0.1581
10512TIP3   OH252950   0.344   0.403   4.500  0.0197  0.3766  0.1408
10512TIP3    H152951   0.325   0.492   4.531  0.3570  0.3719  0.3695
10512TIP3    H252952   0.260   0.372   4.465  0.1153  1.1186 -0.7996
10513TIP3   OH252953   1.726   4.485  11.551 -0.3089  0.5910 -0.6177
10513TIP3    H152954   1.766   4.401  11.572  0.8263  0.7213 -2.1281
10513TIP3    H252955   1.636   4.463  11.527  0.0017 -0.2190 -1.0786
10514TIP3   OH252956   3.319   4.173  14.508 -0.1439  0.1258  0.0596
10514TIP3    H152957   3.273   4.204  14.586  0.3934  1.0700  0.0243
10514TIP3    H252958   3.405   4.215  14.514  0.6845 -1.5135  0.0791
10515TIP3   OH252959   4.165   5.780  14.307  0.2346 -0.0719 -0.2370
10515TIP3    H152960   4.100   5.785  14.377 -1.6059 -1.7319 -1.6987
10515TIP3    H252961   4.244   5.749  14.350 -1.3254 -2.8367  0.9071
10516TIP3   OH252962   0.670   2.761  12.729 -0.0606  0.2380  0.1803
10516TIP3    H152963   0.755   2.750  12.686  0.3125  2.1954  0.3334
10516TIP3    H252964   0.625   2.827  12.676 -1.1486 -0.1494  0.6006
10517TIP3   OH252965   4.484   1.416   5.259  0.7853  0.2769 -0.0430
10517TIP3    H152966   4.412   1.470   5.292  0.8172  0.1633  0.2129
10517TIP3    H252967   4.469   1.330   5.298  1.9973  0.6703  1.3945
10518TIP3   OH252968   1.703   5.627   2.281 -0.8371 -0.1713  0.1233
10518TIP3    H152969   1.784   5.608   2.235 -0.8443 -0.3674  0.1927
10518TIP3    H252970   1.697   5.560   2.349 -2.0283 -1.3600 -1.0963
10519TIP3   OH252971   0.901   5.399   0.067  0.0087  0.0574 -0.3785
10519TIP3    H152972   0.855   5.381   0.149  0.7926 -0.3249 -0.0063
10519TIP3    H252973   0.868   5.485   0.039 -0.4686  0.0662  0.1909
10520TIP3   OH252974   3.186   0.760   0.481 -0.4156  0.1425  0.9433
10520TIP3    H152975   3.261   0.819   0.471 -2.1972  2.3087 -0.9699
10520TIP3    H252976   3.188   0.705   0.403 -0.9635  0.4164  0.7322
10521TIP3   OH252977   0.668   2.285  12.445 -0.2247 -0.3850  0.1841
10521TIP3    H152978   0.681   2.224  12.518  1.1855 -0.3369 -0.0009
10521TIP3    H252979   0.750   2.281  12.396 -0.1188  1.6098  0.1268
10522TIP3   OH252980   4.836   5.170  15.098 -0.3903  0.0775 -0.5418
10522TIP3    H152981   4.868   5.087  15.063 -2.3714 -1.2814  0.6410
10522TIP3    H252982   4.858   5.165  15.192 -1.6189  0.3055 -0.2306
10523TIP3   OH252983   2.075   6.190  14.232  0.1463  0.0812  0.1639
10523TIP3    H152984   2.013   6.165  14.163  0.0826 -0.0066  0.2526
10523TIP3    H252985   2.111   6.273  14.202  0.6674 -0.3200 -0.3422
10524TIP3   OH252986   5.573   3.107   6.005 -0.1484 -0.2142  0.2749
10524TIP3    H152987   5.498   3.142   5.957  0.1201 -0.1761 -0.1273
10524TIP3    H252988   5.557   3.130   6.096  0.5842  2.0255 -0.0984
10525TIP3   OH252989   3.177   2.697   2.668  0.0558 -0.2507 -0.2172
10525TIP3    H152990   3.268   2.721   2.654  0.1811 -0.1051  0.7924
10525TIP3    H252991   3.150   2.747   2.745  0.0115 -2.5080  1.3368
10526TIP3   OH252992   6.181   3.856   1.899  0.0147  0.2862  0.3365
10526TIP3    H152993   6.188   3.820   1.810 -0.0606 -2.0773  1.1994
10526TIP3    H252994   6.233   3.936   1.896  1.6760 -0.7513 -1.3560
10527TIP3   OH252995   4.358   3.318  13.539  0.0849 -0.2723 -0.0653
10527TIP3    H152996   4.307   3.236  13.536 -1.0507  0.3760  0.7286
10527TIP3    H252997   4.296   3.385  13.512 -0.0156  0.7594  2.4346
10528TIP3   OH252998   4.159   0.459   2.901 -0.8238 -0.3557  0.3355
10528TIP3    H152999   4.132   0.472   2.810 -3.5652  1.1107  1.2519
10528TIP3    H253000   4.121   0.375   2.926 -2.8257  0.6876  0.9762
10529TIP3   OH253001   5.383   1.671  15.848 -0.0009 -0.5924  0.0710
10529TIP3    H153002   5.397   1.713  15.763 -0.6830 -0.0239  0.2345
10529TIP3    H253003   5.434   1.590  15.843  0.7616 -0.0854 -0.5070
10530TIP3   OH253004   5.510   5.588   3.947 -0.0552  0.4724  0.3196
10530TIP3    H153005   5.446   5.538   3.896  0.1179  0.6237 -0.0489
10530TIP3    H253006   5.478   5.678   3.943 -0.5802  0.3513  1.3048
10531TIP3   OH253007   6.770   4.103  16.376 -0.0343  0.4766  0.3689
10531TIP3    H153008   6.683   4.067  16.358 -0.5211  1.4113  0.8394
10531TIP3    H253009   6.758   4.159  16.452  0.8772  1.0394  0.1071
10532TIP3   OH253010   0.188   1.189  12.021 -0.0097 -0.7495 -0.0506
10532TIP3    H153011   0.186   1.265  11.963  1.1136 -1.7525 -1.4753
10532TIP3    H253012   0.178   1.226  12.109 -2.8271  0.7200 -0.8681
10533TIP3   OH253013   0.530   6.688  12.528 -0.5577  0.3221 -0.7722
10533TIP3    H153014   0.470   6.687  12.453 -0.6880  1.3083 -0.6836
10533TIP3    H253015   0.502   6.762  12.581  1.5204  1.6158 -1.3704
10534TIP3   OH253016   4.611   5.277   3.433  0.0129  0.0593  0.2300
10534TIP3    H153017   4.667   5.329   3.376  0.3369 -0.6897 -0.1545
10534TIP3    H253018   4.587   5.336   3.505  1.9694  0.1750  0.8396
10535TIP3   OH253019   0.192   1.666  11.285  0.1050 -0.7420  0.1701
10535TIP3    H153020   0.110   1.644  11.242  0.2259 -2.9965  0.9641
10535TIP3    H253021   0.167   1.692  11.374  0.2225 -1.1734  0.3317
10536TIP3   OH253022   2.107   3.708   1.891 -0.1389 -0.3047 -0.4633
10536TIP3    H153023   2.069   3.642   1.949 -0.0454  1.1438  1.3409
10536TIP3    H253024   2.125   3.782   1.948  2.7933  0.1368 -1.7553
10537TIP3   OH253025   5.584   0.776   1.588 -0.7104 -0.2986  0.8027
10537TIP3    H153026   5.495   0.771   1.552 -0.2868 -4.7435 -0.2280
10537TIP3    H253027   5.640   0.789   1.512 -0.3333  1.1317  1.2927
10538TIP3   OH253028   1.887   4.843  16.730  0.7235  0.2260 -0.3236
10538TIP3    H153029   1.944   4.920  16.735  0.9283  0.0099  1.0980
10538TIP3    H253030   1.929   4.786  16.666  1.3163  0.6989 -0.3666
10539TIP3   OH253031   3.189   3.023   0.968  0.5491  0.0632 -0.1896
10539TIP3    H153032   3.284   3.012   0.972  0.5015 -0.7677 -1.1196
10539TIP3    H253033   3.175   3.090   0.901  0.4416 -0.5646 -0.8059
10540TIP3   OH253034   4.316   1.324   3.138 -0.3026  0.0981  0.2526
10540TIP3    H153035   4.273   1.262   3.079  0.4915  0.2812 -0.5412
10540TIP3    H253036   4.273   1.311   3.222 -0.4649 -1.2124 -0.0126
10541TIP3   OH253037   5.743   0.768  14.808 -0.2508  0.7520  0.3472
10541TIP3    H153038   5.677   0.701  14.789 -1.1918  1.7896 -0.1818
10541TIP3    H253039   5.725   0.794  14.898 -0.7967  1.2462  0.1091
10542TIP3   OH253040   4.017   1.698  15.416 -0.1697  0.2797 -0.0665
10542TIP3    H153041   4.026   1.720  15.509 -0.0637 -1.1924  0.2924
10542TIP3    H253042   4.000   1.604  15.415 -0.7527  0.3735 -1.5184
10543TIP3   OH253043   3.203   2.954   4.057 -0.3128  0.1921  0.5459
10543TIP3    H153044   3.184   2.929   3.966 -1.5222 -1.5977  1.2388
10543TIP3    H253045   3.175   3.046   4.063 -0.1203  0.3684 -0.9051
10544TIP3   OH253046   3.031   2.371   1.276  0.2829 -0.2912  0.3696
10544TIP3    H153047   3.085   2.301   1.312 -0.0518 -0.1713  1.1117
10544TIP3    H253048   3.065   2.451   1.315  1.2554  0.0836 -1.1670
10545TIP3   OH253049   5.834   2.872  10.962  0.3573  0.2558  0.0207
10545TIP3    H153050   5.925   2.860  10.988  0.4048  2.8316  1.3089
10545TIP3    H253051   5.839   2.899  10.870  0.7073 -1.3401 -0.4688
10546TIP3   OH253052   5.139   2.267  13.260 -0.0837  0.6636  0.8487
10546TIP3    H153053   5.115   2.333  13.194 -0.5801 -1.4094 -1.1603
10546TIP3    H253054   5.070   2.273  13.326 -0.9296  1.1739 -0.0562
10547TIP3   OH253055   4.027   1.902  15.241  0.6221 -0.0193  0.1127
10547TIP3    H153056   4.030   1.827  15.299 -0.8011 -0.2789 -0.1100
10547TIP3    H253057   4.117   1.913  15.210  1.6465  0.7560  3.0951
10548TIP3   OH253058   4.823   4.902   5.263  0.0384 -0.0346  0.4038
10548TIP3    H153059   4.837   4.893   5.169  0.9055  1.6714  0.3253
10548TIP3    H253060   4.871   4.829   5.302 -1.6119 -1.6862 -0.5146
10549TIP3   OH253061   3.191   3.583   5.242  0.0933  0.0063 -0.2517
10549TIP3    H153062   3.119   3.567   5.303 -0.0759 -2.1189 -0.9287
10549TIP3    H253063   3.150   3.626   5.167 -0.5079 -1.1692 -0.6258
10550TIP3   OH253064   1.759   0.353   0.180  0.0627  0.2808 -0.3288
10550TIP3    H153065   1.844   0.313   0.197 -1.2717 -3.2857 -1.0692
10550TIP3    H253066   1.756   0.363   0.085  0.0031  1.3959 -0.2262
10551TIP3   OH253067   0.965   1.216  15.216 -0.3089 -0.4110  0.0183
10551TIP3    H153068   0.956   1.129  15.255  2.7630  0.0728  2.1635
10551TIP3    H253069   1.026   1.204  15.144  0.8100  0.0200  0.8551
10552TIP3   OH253070   3.145   2.399  13.202  0.0808 -0.6663  0.1644
10552TIP3    H153071   3.179   2.327  13.255 -0.0026 -1.5588 -0.9510
10552TIP3    H253072   3.057   2.415  13.236  1.1996  1.1088  2.5364
10553TIP3   OH253073   4.407   2.918   3.148  0.4968  0.2006  0.0546
10553TIP3    H153074   4.317   2.889   3.133  1.0939 -2.3119  0.7560
10553TIP3    H253075   4.409   3.009   3.118 -2.1643  0.2142 -0.2946
10554TIP3   OH253076   5.512   0.471  15.646 -0.4625 -0.2163  0.0650
10554TIP3    H153077   5.434   0.454  15.699 -0.2327 -2.5752 -0.2437
10554TIP3    H253078   5.573   0.514  15.706 -1.5900  0.6768  0.6067
10555TIP3   OH253079   0.647   4.946  13.368  0.0491  0.5360 -0.0952
10555TIP3    H153080   0.608   4.926  13.283  0.1739 -1.7647  0.3489
10555TIP3    H253081   0.731   4.986  13.347  0.3945 -0.6669 -1.0586
10556TIP3   OH253082   5.179   0.659   3.841 -0.7170 -0.1774 -0.2866
10556TIP3    H153083   5.100   0.608   3.819  0.9009 -2.0072 -2.3511
10556TIP3    H253084   5.178   0.732   3.780 -0.7667 -0.2526 -0.3761
10557TIP3   OH253085   0.646   1.562   1.170  0.3657 -0.4984 -0.1751
10557TIP3    H153086   0.559   1.542   1.134  0.5548 -0.7007 -0.5173
10557TIP3    H253087   0.637   1.542   1.263 -1.4451  4.0548  0.8943
10558TIP3   OH253088   5.648   0.898   0.845  1.1518 -0.6314 -0.1826
10558TIP3    H153089   5.561   0.936   0.852  1.3302  0.2331 -2.0142
10558TIP3    H253090   5.666   0.863   0.932 -1.4115 -1.7230  0.0168
10559TIP3   OH253091   0.582   3.098   2.210  0.2560 -0.7919  0.6940
10559TIP3    H153092   0.613   3.161   2.275 -0.7388 -0.7000  1.0995
10559TIP3    H253093   0.622   3.128   2.128 -1.7394  1.6268  0.4792
10560TIP3   OH253094   0.929   2.990   0.852 -0.4272 -0.1463  0.7498
10560TIP3    H153095   0.924   2.914   0.795 -1.3924  1.1998 -1.0785
10560TIP3    H253096   1.019   3.021   0.842 -0.3502 -0.4069  0.6142
10561TIP3   OH253097   0.553   3.718  15.322 -0.0055 -0.4547 -0.5498
10561TIP3    H153098   0.548   3.813  15.315  0.3200 -0.5465 -3.3436
10561TIP3    H253099   0.510   3.697  15.405 -2.2976  1.9510 -0.9960
10562TIP3   OH253100   1.479   1.541  14.291 -0.0074  0.3828  0.5440
10562TIP3    H153101   1.432   1.520  14.210  0.8526  2.5538 -0.6054
10562TIP3    H253102   1.485   1.458  14.338 -2.1878 -0.5731 -0.7201
10563TIP3   OH253103   0.385   5.154  12.928 -0.3823  0.8711  0.6540
10563TIP3    H153104   0.351   5.174  12.840 -0.2451  0.7560  0.5731
10563TIP3    H253105   0.426   5.068  12.918 -1.1829  0.4303  1.0559
10564TIP3   OH253106   1.296   3.775  13.328 -0.6630  0.0420  0.1530
10564TIP3    H153107   1.343   3.827  13.262  1.3771 -0.2532  1.2908
10564TIP3    H253108   1.223   3.831  13.354 -0.5476  0.8548 -1.1559
10565TIP3   OH253109   6.385   5.975  13.838  0.4071 -0.5366 -0.4529
10565TIP3    H153110   6.355   6.028  13.912  1.2413  1.0512 -1.1978
10565TIP3    H253111   6.311   5.918  13.817  0.3016 -1.3700  1.8566
10566TIP3   OH253112   5.952   3.625   6.100  0.4897  0.2728 -0.1196
10566TIP3    H153113   5.903   3.584   6.029 -0.5770  2.4868 -0.7662
10566TIP3    H253114   6.039   3.587   6.094 -0.8992 -3.5481  0.8384
10567TIP3   OH253115   5.830   5.662  15.788 -0.2284  0.9237  0.0912
10567TIP3    H153116   5.839   5.586  15.846  0.4136  0.1350 -1.0067
10567TIP3    H253117   5.808   5.734  15.847 -2.0323 -0.3214  1.0326
10568TIP3   OH253118   5.772   1.814   4.229  0.3217  0.3736 -0.4977
10568TIP3    H153119   5.686   1.794   4.266 -0.7912  1.6503 -2.2447
10568TIP3    H253120   5.788   1.743   4.167  0.8186 -0.1894  0.2693
10569TIP3   OH253121   6.164   1.933  14.216 -0.4317 -0.0887  0.0584
10569TIP3    H153122   6.154   1.838  14.227  0.4478 -0.1082  0.8890
10569TIP3    H253123   6.258   1.948  14.221 -0.5879  0.8767  0.3644
10570TIP3   OH253124   2.390   5.350   5.115  0.1474  0.6064 -0.2794
10570TIP3    H153125   2.410   5.293   5.189 -0.7919  2.4233  1.4901
10570TIP3    H253126   2.296   5.339   5.101  0.1486  0.9719 -0.5927
10571TIP3   OH253127   5.623   1.977  16.392 -0.0201 -0.0716 -0.8391
10571TIP3    H153128   5.606   2.024  16.473 -0.8056 -2.1359  0.2521
10571TIP3    H253129   5.585   2.032  16.323  1.4444  2.1529  0.0229
10572TIP3   OH253130   4.055   5.758  14.620 -0.2440 -0.4564 -0.5503
10572TIP3    H153131   3.977   5.760  14.674 -0.3605 -0.4497 -0.7173
10572TIP3    H253132   4.090   5.669  14.631 -0.6598 -0.6856 -1.0114
10573TIP3   OH253133   0.998   6.471   2.515 -0.6600 -0.6573 -0.3313
10573TIP3    H153134   0.911   6.434   2.498 -0.5859 -1.0382  0.1123
10573TIP3    H253135   1.041   6.408   2.573  0.0114 -0.5969 -0.7561
10574TIP3   OH253136   0.461   0.706   4.333  0.2880  0.1008  0.1399
10574TIP3    H153137   0.496   0.711   4.421  0.2765  0.7343  0.1110
10574TIP3    H253138   0.475   0.615   4.307  1.3413  0.1923  0.3577
10575TIP3   OH253139   1.155   1.592  16.821  0.5427 -0.1692  0.4750
10575TIP3    H153140   1.092   1.609  16.751 -0.3484 -1.1656  1.0023
10575TIP3    H253141   1.233   1.641  16.795  0.1214 -0.2393 -1.0361
10576TIP3   OH253142   1.440   4.512   2.181  0.2340 -0.4263 -0.0134
10576TIP3    H153143   1.386   4.445   2.223  0.0878 -0.8228 -0.8208
10576TIP3    H253144   1.393   4.594   2.196 -0.4722 -0.7340 -0.4950
10577TIP3   OH253145   1.936   5.964  11.247  0.0937 -0.5138  0.1631
10577TIP3    H153146   1.913   6.051  11.213  0.1327 -0.2793  0.7144
10577TIP3    H253147   1.864   5.907  11.219 -1.0717  0.1568  1.6543
10578TIP3   OH253148   5.007   0.533   2.853 -1.1573  0.1930  0.0593
10578TIP3    H153149   4.923   0.500   2.885 -1.5474 -0.0956 -1.2207
10578TIP3    H253150   5.038   0.466   2.792  0.4187 -0.1059  1.0984
10579TIP3   OH253151   4.504   4.856  15.890 -0.1291  0.3073  0.1039
10579TIP3    H153152   4.479   4.892  15.975 -2.0603  0.3165 -0.4052
10579TIP3    H253153   4.457   4.911  15.827 -1.2206 -1.5594 -0.7965
10580TIP3   OH253154   2.922   4.665   5.321 -0.0013  0.0800  0.1244
10580TIP3    H153155   3.005   4.625   5.299 -0.5723 -0.7193 -0.6116
10580TIP3    H253156   2.899   4.628   5.406  0.1642 -0.0508  0.1114
10581TIP3   OH253157   3.875   2.584   5.384 -0.2166  0.2855 -0.1890
10581TIP3    H153158   3.831   2.668   5.368  1.4198  0.8915 -1.8018
10581TIP3    H253159   3.864   2.535   5.303  1.9689  0.4404 -0.6288
10582TIP3   OH253160   4.160   3.145   5.989 -0.5591  0.3464 -0.2308
10582TIP3    H153161   4.074   3.103   5.977 -0.7513  0.5026  0.5445
10582TIP3    H253162   4.139   3.229   6.029  0.0449 -0.1770  1.2263
10583TIP3   OH253163   1.086   1.983   5.757 -0.3868 -0.2052  0.0207
10583TIP3    H153164   1.006   1.942   5.724  0.7885 -1.2936 -1.6272
10583TIP3    H253165   1.129   1.913   5.806  0.4506 -0.2313 -0.7312
10584TIP3   OH253166   4.883   3.445  14.967  0.6716 -0.0036  0.0365
10584TIP3    H153167   4.869   3.532  15.004  0.7347  0.1525 -0.2983
10584TIP3    H253168   4.929   3.461  14.884 -0.0179 -0.3008 -0.4157
10585TIP3   OH253169   3.299   2.449  15.840  0.1768  0.1470 -0.2794
10585TIP3    H153170   3.334   2.484  15.922 -1.7752 -0.4695  0.8911
10585TIP3    H253171   3.256   2.367  15.866  1.5229 -1.2912 -2.3269
10586TIP3   OH253172   1.602   4.866   0.574 -0.4961  0.0036 -0.0868
10586TIP3    H153173   1.672   4.920   0.610  0.7424  0.1506 -2.5447
10586TIP3    H253174   1.628   4.776   0.596 -0.3363  0.1388  0.2949
10587TIP3   OH253175   5.165   1.817   4.728  0.4728 -0.5353  0.0116
10587TIP3    H153176   5.124   1.735   4.699 -0.8213  0.9019 -2.5837
10587TIP3    H253177   5.258   1.797   4.732  0.1153 -2.3166  0.1420
10588TIP3   OH253178   5.177   6.519  12.395 -0.2119 -0.3578  0.1457
10588TIP3    H153179   5.272   6.522  12.382 -0.1000 -0.1113  1.0250
10588TIP3    H253180   5.154   6.603  12.435 -0.7225 -0.6255  0.4323
10589TIP3   OH253181   4.429   2.099  16.696 -0.3467 -0.0618  0.2820
10589TIP3    H153182   4.422   2.045  16.775  1.6257  1.7698  1.8018
10589TIP3    H253183   4.512   2.071  16.656  0.8125  1.8629  1.2037
10590TIP3   OH253184   6.493   3.735  12.495  0.5324  0.1651  0.2205
10590TIP3    H153185   6.575   3.690  12.475  0.6798 -0.0556  1.2652
10590TIP3    H253186   6.516   3.796  12.565  0.4138  2.1442 -1.3551
10591TIP3   OH253187   0.728   3.705   2.973  0.2386 -0.1103 -0.5635
10591TIP3    H153188   0.767   3.640   2.915  0.0044 -0.5098 -0.2768
10591TIP3    H253189   0.720   3.661   3.057  0.7101  0.5142 -0.1785
10592TIP3   OH253190   6.145   5.744  13.934  0.5182  0.1418  0.4226
10592TIP3    H153191   6.224   5.700  13.904  0.8569  0.3394  1.0022
10592TIP3    H253192   6.116   5.797  13.859  1.4003  0.6993  0.4650
10593TIP3   OH253193   4.610   4.372  12.438  0.2460 -0.0194 -0.8725
10593TIP3    H153194   4.519   4.396  12.420  0.8516  2.4081 -1.0428
10593TIP3    H253195   4.635   4.426  12.513  0.9994 -2.1120  0.4750
10594TIP3   OH253196   5.980   6.320  10.433  0.3062 -0.1058  0.6376
10594TIP3    H153197   5.898   6.364  10.455  0.8869  0.2051  2.4001
10594TIP3    H253198   5.991   6.255  10.502  1.7079  0.1123  0.6537
10595TIP3   OH253199   3.206   0.712  10.873  0.5824 -0.2250  0.9458
10595TIP3    H153200   3.161   0.781  10.922 -0.1167 -0.8779  1.2560
10595TIP3    H253201   3.299   0.730  10.885  0.4190 -0.1524  2.1938
10596TIP3   OH253202   1.480   3.783  14.749 -0.1900  0.8395  0.5057
10596TIP3    H153203   1.392   3.803  14.717 -0.4279 -0.1521  0.4938
10596TIP3    H253204   1.533   3.858  14.722 -0.4635  0.2533 -1.8717
10597TIP3   OH253205   3.769   5.781   3.297  0.4339  0.2910 -0.1564
10597TIP3    H153206   3.677   5.805   3.309  0.8541  1.6016  0.6111
10597TIP3    H253207   3.774   5.691   3.330 -0.2669  0.7498  1.2911
10598TIP3   OH253208   2.872   3.046   3.977 -0.4505  0.5583 -0.1637
10598TIP3    H153209   2.927   3.120   4.001  0.9925 -0.9592  1.5966
10598TIP3    H253210   2.891   3.030   3.885 -0.3168  1.9792 -0.3904
10599TIP3   OH253211   0.627   1.772   0.413 -0.7929  0.2846 -0.0062
10599TIP3    H153212   0.582   1.783   0.329 -0.7428  0.1353 -0.0534
10599TIP3    H253213   0.720   1.776   0.391 -0.7482  3.0857  0.4145
10600TIP3   OH253214   3.747   6.397   2.804 -0.0599  0.1429  0.5209
10600TIP3    H153215   3.717   6.307   2.798  0.4072  0.0730 -1.0286
10600TIP3    H253216   3.837   6.395   2.774 -0.0338  1.1212  0.4844
10601TIP3   OH253217   4.790   0.680   0.010 -0.0196  0.5662 -0.3300
10601TIP3    H153218   4.724   0.632   0.061  1.3071  0.8397  1.7580
10601TIP3    H253219   4.792   0.767   0.050  1.1853  0.7397 -0.7326
10602TIP3   OH253220   2.845   0.641   3.367 -0.1251 -1.0421  0.0039
10602TIP3    H153221   2.824   0.691   3.446 -2.0659 -0.3955 -0.8775
10602TIP3    H253222   2.904   0.698   3.318 -2.0602  0.3203 -0.8364
10603TIP3   OH253223   4.345   2.995  14.905  0.1435  0.1762 -0.3532
10603TIP3    H153224   4.338   3.056  14.832  0.9739  0.6818 -0.0290
10603TIP3    H253225   4.406   2.927  14.873  0.0165  0.0608 -0.3515
10604TIP3   OH253226   3.041   0.569   3.940 -0.2043  0.1543 -0.2505
10604TIP3    H153227   2.989   0.577   4.019  1.0321  3.9033  0.3814
10604TIP3    H253228   2.984   0.603   3.870  0.7239  2.9037  0.2098
10605TIP3   OH253229   0.489   4.574  15.549 -0.4072  0.5574  0.4987
10605TIP3    H153230   0.431   4.638  15.590 -2.3880 -0.8488  0.0470
10605TIP3    H253231   0.431   4.504  15.520  1.3431 -0.1968 -1.4572
10606TIP3   OH253232   2.857   4.809  12.340 -0.0858 -0.4915  0.0047
10606TIP3    H153233   2.934   4.753  12.348 -0.7698 -1.3484  0.9185
10606TIP3    H253234   2.892   4.898  12.336  1.0117 -0.9446 -1.2347
10607TIP3   OH253235   1.988   3.597   5.003  0.0722 -0.1542  0.2507
10607TIP3    H153236   1.970   3.625   5.093  0.8474  1.4865 -0.0718
10607TIP3    H253237   2.065   3.540   5.011 -0.1053 -0.3359  0.6697
10608TIP3   OH253238   3.845   0.038  15.673  0.1896  0.7797  0.3068
10608TIP3    H153239   3.794  -0.023  15.619  0.9451  0.8612 -0.5141
10608TIP3    H253240   3.808   0.028  15.761 -0.6424  0.1820 -0.0929
10609TIP3   OH253241   6.251   6.284   6.330 -0.2345 -0.3600  0.4394
10609TIP3    H153242   6.214   6.367   6.300 -0.3797 -0.0324  1.4881
10609TIP3    H253243   6.208   6.218   6.276 -1.2428  0.1298  0.6281
10610TIP3   OH253244   0.508   1.012   1.601 -0.0491 -0.0762  0.9197
10610TIP3    H153245   0.487   0.919   1.605  0.1330 -0.2492 -1.1416
10610TIP3    H253246   0.599   1.015   1.572 -0.1436  0.7510  0.6711
10611TIP3   OH253247   3.214   0.387  11.619  0.2681 -0.0492 -0.2076
10611TIP3    H153248   3.215   0.302  11.576  2.2730  0.7568 -1.9707
10611TIP3    H253249   3.161   0.443  11.563 -1.2031 -0.1326  1.0433
10612TIP3   OH253250   2.836   4.238   0.619  0.3684 -0.0772 -0.1282
10612TIP3    H153251   2.866   4.148   0.604  2.1784  0.3409  0.6901
10612TIP3    H253252   2.910   4.281   0.662 -1.3165  1.1438  1.7577
10613TIP3   OH253253   3.837   3.187   4.943  0.0973 -0.5555 -0.1693
10613TIP3    H153254   3.842   3.240   5.022  0.1970 -0.9820  0.1147
10613TIP3    H253255   3.803   3.102   4.973 -1.4212 -0.2227 -0.8301
10614TIP3   OH253256   2.209   2.438   4.483 -0.1918 -0.2339 -0.3930
10614TIP3    H153257   2.267   2.403   4.550  1.1228  2.8800  0.2374
10614TIP3    H253258   2.189   2.362   4.427  1.7900 -2.1077  1.2574
10615TIP3   OH253259   5.087   3.193   6.056  0.0924  0.0931 -0.4757
10615TIP3    H153260   5.091   3.265   6.118 -1.1270 -1.0091  0.9706
10615TIP3    H253261   5.133   3.121   6.100  0.3508 -0.3318 -1.4186
10616TIP3   OH253262   5.086   6.012   4.293  0.1782  0.4411 -0.8082
10616TIP3    H153263   5.000   6.048   4.312 -0.2117 -0.5122 -0.7246
10616TIP3    H253264   5.092   5.933   4.348  1.4788  1.0100 -0.0802
10617TIP3   OH253265   4.759   5.043   0.264  0.6263 -0.2200  0.1865
10617TIP3    H153266   4.715   5.007   0.341  0.0658  0.9101  0.4187
10617TIP3    H253267   4.767   5.136   0.283 -0.2356  0.2307 -1.4516
10618TIP3   OH253268   0.982   4.482  16.876 -0.0430 -0.0215 -0.0729
10618TIP3    H153269   0.904   4.432  16.900 -1.0124  1.0058 -0.9721
10618TIP3    H253270   1.005   4.450  16.788  0.1203  0.1811 -0.1051
10619TIP3   OH253271   2.793   0.086  15.015 -0.6440 -0.3677 -0.1729
10619TIP3    H153272   2.737   0.085  15.092 -2.0703  1.8959 -1.0970
10619TIP3    H253273   2.881   0.100  15.049 -1.3111  1.0699  1.0525
10620TIP3   OH253274   4.482   4.105  14.123 -0.4516  0.6143 -0.1355
10620TIP3    H153275   4.477   4.016  14.158 -0.3466  0.9959  0.8905
10620TIP3    H253276   4.470   4.162  14.200  0.7496  1.4854 -0.5615
10621TIP3   OH253277   2.496   3.899  13.506 -0.3033  0.1162  0.3936
10621TIP3    H153278   2.433   3.920  13.575 -2.3035  0.8098 -1.5184
10621TIP3    H253279   2.448   3.915  13.425  1.9107 -0.7704 -1.1759
10622TIP3   OH253280   5.773   2.815  12.651 -0.6845 -1.0272 -0.5894
10622TIP3    H153281   5.732   2.731  12.632  1.0956 -2.4511  1.3133
10622TIP3    H253282   5.704   2.867  12.692 -1.4509 -2.1019 -0.4704
10623TIP3   OH253283   5.986   3.171  16.608  0.2279 -0.0144 -0.2358
10623TIP3    H153284   5.951   3.091  16.648  1.3169 -0.4112 -0.0412
10623TIP3    H253285   5.935   3.241  16.648  0.8267 -0.4492  1.3978
10624TIP3   OH253286   6.304   5.461  13.246 -0.1393 -0.1785  0.3958
10624TIP3    H153287   6.360   5.450  13.323  0.5760 -0.8807 -0.2164
10624TIP3    H253288   6.265   5.375  13.232 -0.8354  0.1307  0.4026
10625TIP3   OH253289   3.062   0.402  13.105 -0.0138  0.0497 -0.5405
10625TIP3    H153290   3.035   0.441  13.189 -0.6558 -2.0088  0.2802
10625TIP3    H253291   3.150   0.434  13.091 -0.6570  2.1238 -0.1646
10626TIP3   OH253292   1.631   5.363  15.507  0.2146  0.0579 -0.3393
10626TIP3    H153293   1.692   5.308  15.456  0.0572  0.1130 -0.5878
10626TIP3    H253294   1.668   5.451  15.501  0.5423 -0.0388  0.1742
10627TIP3   OH253295   3.913   2.796  11.403 -0.2427 -0.6213  0.5948
10627TIP3    H153296   3.871   2.747  11.333 -0.0945 -4.2318  2.7778
10627TIP3    H253297   4.006   2.794  11.382 -0.1565 -2.0515  1.0197
10628TIP3   OH253298   0.494   1.407  15.026  0.0599  0.2556  0.9245
10628TIP3    H153299   0.505   1.502  15.019  2.8458 -0.0061  0.7439
10628TIP3    H253300   0.498   1.376  14.936 -1.5731 -0.0308  0.9147
10629TIP3   OH253301   0.194   4.679   4.361  0.6214 -0.2696 -0.2680
10629TIP3    H153302   0.160   4.745   4.301 -1.5158  0.4007  1.5550
10629TIP3    H253303   0.231   4.729   4.434  0.3281 -1.0665  0.4441
10630TIP3   OH253304   3.654   3.156   4.126  0.7160 -0.3401 -0.2981
10630TIP3    H153305   3.697   3.155   4.211  0.0525  0.9891  0.0864
10630TIP3    H253306   3.724   3.176   4.064  1.0192 -0.2843  0.0591
10631TIP3   OH253307   0.779   2.449   3.730 -0.6787  0.7792 -0.1125
10631TIP3    H153308   0.855   2.391   3.726 -1.4688 -0.2232 -1.3358
10631TIP3    H253309   0.729   2.417   3.805  0.1502  1.5544  0.8083
10632TIP3   OH253310   2.173   6.591   1.282 -1.2773 -0.5168  0.5837
10632TIP3    H153311   2.077   6.591   1.286 -1.4453  0.1109 -1.8425
10632TIP3    H253312   2.196   6.682   1.266 -0.1643 -0.4843  2.1790
10633TIP3   OH253313   5.471   3.186   5.352 -0.1292  0.3865  0.3620
10633TIP3    H153314   5.468   3.276   5.318 -0.0034 -0.1823 -1.2510
10633TIP3    H253315   5.455   3.195   5.446  0.8226  2.1844  0.3962
10634TIP3   OH253316   2.732   6.621   0.549 -0.7520 -0.3381 -0.4198
10634TIP3    H153317   2.713   6.664   0.633  2.8450 -1.6820  1.3001
10634TIP3    H253318   2.669   6.549   0.544 -0.0441 -1.2335  2.0450
10635TIP3   OH253319   5.915   0.109  15.771 -0.0780 -0.2116  0.2816
10635TIP3    H153320   5.926   0.161  15.851  1.5445  1.4487 -0.9525
10635TIP3    H253321   5.840   0.148  15.727 -1.7688 -1.9020  1.4696
10636TIP3   OH253322   5.102   1.886  14.251 -0.3428  0.3457 -0.2627
10636TIP3    H153323   5.086   1.849  14.338 -1.2157  0.5279 -0.3371
10636TIP3    H253324   5.017   1.885  14.208 -0.2619  1.7759 -0.5275
10637TIP3   OH253325   1.599   5.637   3.613  0.0785  0.1469 -0.5129
10637TIP3    H153326   1.679   5.592   3.638  1.0535  0.4306 -2.8304
10637TIP3    H253327   1.584   5.609   3.522 -1.5338  1.3943 -0.6750
10638TIP3   OH253328   6.257   5.708   1.156  0.1536  0.4311 -0.0293
10638TIP3    H153329   6.227   5.795   1.181 -0.5425  0.9739 -2.5278
10638TIP3    H253330   6.341   5.721   1.112 -0.4192  0.0033 -1.3089
10639TIP3   OH253331   2.511   3.969  14.466 -0.3521  0.2462 -0.2090
10639TIP3    H153332   2.516   3.901  14.533 -0.2941 -0.7947 -1.2388
10639TIP3    H253333   2.470   3.925  14.391 -0.3145  1.3496 -0.8887
10640TIP3   OH253334   5.297   5.974   2.256 -0.1797 -0.1130  0.0464
10640TIP3    H153335   5.325   5.924   2.179 -2.0096 -0.2924 -0.5607
10640TIP3    H253336   5.348   5.938   2.328 -1.0884 -2.5845 -0.4501
10641TIP3   OH253337   4.022   5.490   3.543 -0.7509  0.5401  0.0426
10641TIP3    H153338   4.108   5.452   3.559 -0.3144  0.3521 -2.4298
10641TIP3    H253339   4.037   5.584   3.539 -0.7937  0.5587  0.2817
10642TIP3   OH253340   2.867   3.936  14.469  0.9033  0.0628  0.2161
10642TIP3    H153341   2.913   4.015  14.498  1.2679 -0.5932  1.5097
10642TIP3    H253342   2.804   3.918  14.538  0.8694 -0.8176 -0.0240
10643TIP3   OH253343   1.161   2.407  10.939  0.4605  0.3878 -0.2964
10643TIP3    H153344   1.161   2.357  10.858  1.0420  0.6259 -0.4471
10643TIP3    H253345   1.075   2.451  10.941  0.4874  0.4629 -0.8259
10644TIP3   OH253346   3.143   1.470   2.444  0.2559  0.5264  0.2956
10644TIP3    H153347   3.137   1.410   2.518  1.5373 -0.4479 -0.3573
10644TIP3    H253348   3.052   1.491   2.424 -0.1312  0.6503  1.9879
10645TIP3   OH253349   5.588   4.618  13.178 -0.0257 -0.5714 -0.0369
10645TIP3    H153350   5.651   4.594  13.246  1.0740 -0.6297 -1.0317
10645TIP3    H253351   5.641   4.661  13.111 -1.2897  0.7477 -0.2452
10646TIP3   OH253352   0.188   1.665   4.595 -0.2471  0.1433  0.4983
10646TIP3    H153353   0.180   1.755   4.629 -1.1290 -0.3959  1.7890
10646TIP3    H253354   0.116   1.618   4.635  0.2337 -1.1696 -0.1370
10647TIP3   OH253355   1.838   3.680   5.774  0.3907 -0.1960 -0.0728
10647TIP3    H153356   1.895   3.633   5.714 -0.3907 -1.6564  0.2759
10647TIP3    H253357   1.836   3.769   5.741  2.8139 -0.0963 -0.1181
10648TIP3   OH253358   4.849   6.463   3.029  0.0312 -0.1105  0.3242
10648TIP3    H153359   4.804   6.444   3.111  0.5187 -0.1684  0.5820
10648TIP3    H253360   4.778   6.474   2.965 -0.3156 -0.9207  0.5631
10649TIP3   OH253361   3.861   2.958   5.401  0.1863 -0.1019  0.1405
10649TIP3    H153362   3.937   2.947   5.343 -0.0427 -0.8973 -0.0327
10649TIP3    H253363   3.868   3.047   5.435 -0.9195  1.2833 -2.9227
10650TIP3   OH253364   2.489   3.779   3.418  0.1280  0.7094  0.8446
10650TIP3    H153365   2.498   3.743   3.330  1.2466  1.9848  0.4080
10650TIP3    H253366   2.419   3.726   3.458  0.3732 -0.6255 -0.4000
10651TIP3   OH253367   5.623   4.664   4.914  0.4771  0.2908  0.3572
10651TIP3    H153368   5.653   4.707   4.834  4.1381 -1.4189  0.6263
10651TIP3    H253369   5.618   4.571   4.892 -1.4992  0.0941  1.3720
10652TIP3   OH253370   3.708   5.000  12.695  0.5213  0.0003 -0.4605
10652TIP3    H153371   3.650   5.075  12.682  1.3916  0.8751  0.4897
10652TIP3    H253372   3.789   5.025  12.650  1.2525  0.1967  0.9075
10653TIP3   OH253373   1.558   4.580  12.160  0.0224  0.6595 -0.4575
10653TIP3    H153374   1.527   4.664  12.194  1.3062  0.7310  0.5954
10653TIP3    H253375   1.574   4.596  12.067 -0.2053  1.4412 -0.3651
10654TIP3   OH253376   6.402   2.116   2.224 -0.2111  0.1740 -0.2150
10654TIP3    H153377   6.372   2.190   2.277  2.0360  0.7152  0.4119
10654TIP3    H253378   6.442   2.056   2.288 -0.4809 -0.7789 -0.9247
10655TIP3   OH253379   5.118   2.798   1.110  0.4906  0.0079 -0.3350
10655TIP3    H153380   5.186   2.788   1.043  0.6118  1.6675 -0.4997
10655TIP3    H253381   5.152   2.863   1.170 -1.3139  1.6526 -0.9618
10656TIP3   OH253382   5.214   3.313  12.710  0.1578 -0.0487  0.3689
10656TIP3    H153383   5.160   3.233  12.711 -0.2494  0.2242  0.1623
10656TIP3    H253384   5.152   3.384  12.699  0.5275  0.3000  0.5181
10657TIP3   OH253385   5.851   2.190   0.234 -0.3596 -0.1968  0.0906
10657TIP3    H153386   5.773   2.207   0.287 -0.3078 -0.6848  0.3244
10657TIP3    H253387   5.849   2.259   0.167 -0.8091 -0.0057  0.2927
10658TIP3   OH253388   0.548   2.013  15.889 -0.2008 -0.0002  0.2230
10658TIP3    H153389   0.453   2.020  15.882 -0.1864 -0.6350 -0.6922
10658TIP3    H253390   0.563   1.986  15.980 -0.7473  2.2826  1.0740
10659TIP3   OH253391   2.236   0.456   4.471  0.3512  0.4944 -0.1223
10659TIP3    H153392   2.322   0.496   4.479  0.1664  0.9250 -0.2930
10659TIP3    H253393   2.177   0.528   4.451 -0.2263  0.3741  1.0669
10660TIP3   OH253394   2.604   6.784  14.816 -0.3017 -0.1762 -0.0848
10660TIP3    H153395   2.662   6.836  14.871 -1.0916  1.7869 -1.0069
10660TIP3    H253396   2.658   6.756  14.742  0.7172 -2.6757  1.4563
10661TIP3   OH253397   3.419   1.466  13.731 -0.2528 -0.0044  0.1178
10661TIP3    H153398   3.390   1.401  13.794 -1.2753 -0.5650 -0.9035
10661TIP3    H253399   3.341   1.518  13.711  0.6924  2.0967  1.4924
10662TIP3   OH253400   3.188   3.915  10.840 -0.4523  0.2935  0.1574
10662TIP3    H153401   3.121   3.865  10.888 -0.5236  1.3744  1.2390
10662TIP3    H253402   3.232   3.850  10.786 -0.8552 -0.8515  1.1563
10663TIP3   OH253403   2.665   2.246   5.731 -0.2865 -0.2114 -0.2581
10663TIP3    H153404   2.741   2.189   5.744 -0.6101 -0.7474 -0.6794
10663TIP3    H253405   2.590   2.191   5.753 -0.5352  0.4567  0.5987
10664TIP3   OH253406   2.842   0.724  11.745  0.1673 -0.5412  0.2929
10664TIP3    H153407   2.811   0.682  11.665  0.8572  1.3408 -1.0449
10664TIP3    H253408   2.898   0.659  11.787  0.7977 -1.1374 -1.4106
10665TIP3   OH253409   3.040   3.024  12.024 -0.0740 -0.3753 -0.4507
10665TIP3    H153410   2.946   3.014  12.016 -0.1205 -2.8523  1.7853
10665TIP3    H253411   3.075   2.999  11.939 -1.3973  0.4887 -1.2669
10666TIP3   OH253412   6.352   0.150  11.857  0.2739  0.7502  0.4237
10666TIP3    H153413   6.294   0.164  11.782 -0.4692 -0.0013  0.8414
10666TIP3    H253414   6.357   0.236  11.900 -0.5027  0.8409  0.3532
10667TIP3   OH253415   6.400   6.283  13.351  0.0481  0.2783  0.5279
10667TIP3    H153416   6.386   6.335  13.429  1.7325  0.1667  0.9512
10667TIP3    H253417   6.335   6.213  13.356 -1.1505  1.3814  0.7877
10668TIP3   OH253418   3.378   2.064   4.554  0.1493 -0.4731  0.0470
10668TIP3    H153419   3.367   1.999   4.485 -0.0731 -1.1012  0.6569
10668TIP3    H253420   3.473   2.080   4.556  0.0593  0.2737 -1.0348
10669TIP3   OH253421   6.549   0.893  15.021  0.0717  0.3935  0.1112
10669TIP3    H153422   6.577   0.906  15.112 -0.7031  2.6710  0.0878
10669TIP3    H253423   6.469   0.945  15.013  0.5795  0.9215 -2.0926
10670TIP3   OH253424   2.372   6.422  16.068  0.1393  0.4072 -0.1479
10670TIP3    H153425   2.466   6.433  16.053  0.2184  0.0585  0.0759
10670TIP3    H253426   2.359   6.447  16.160  0.1893 -0.5223  0.1272
10671TIP3   OH253427   2.334   5.846  11.628  0.6822  0.3687  0.1529
10671TIP3    H153428   2.356   5.921  11.683  1.7757  0.0424  0.1787
10671TIP3    H253429   2.253   5.872  11.584  0.1162  0.8903  1.4291
10672TIP3   OH253430   3.022   2.621   1.407  0.1257 -0.0047 -0.1356
10672TIP3    H153431   3.103   2.671   1.399 -1.2870  3.0292  2.1432
10672TIP3    H253432   2.957   2.686   1.436 -2.9263 -2.4388 -0.9744
10673TIP3   OH253433   2.037   2.958  11.136  0.2411  0.1215  0.1218
10673TIP3    H153434   2.122   3.002  11.143  1.0922 -1.3189 -0.5893
10673TIP3    H253435   1.981   3.002  11.200  1.5207  1.1051  0.5977
10674TIP3   OH253436   3.775   1.392   2.293 -0.2783 -0.1681  0.7319
10674TIP3    H153437   3.803   1.404   2.384  0.0365 -0.4022  0.6669
10674TIP3    H253438   3.846   1.430   2.241 -0.3983 -0.1504  0.5812
10675TIP3   OH253439   2.717   6.425   3.936 -0.0033 -0.4252  0.1655
10675TIP3    H153440   2.635   6.402   3.892  0.3292  0.0565 -0.7352
10675TIP3    H253441   2.691   6.474   4.014 -0.5797 -0.7257  0.1628
10676TIP3   OH253442   1.929   3.656   3.581  0.1011 -0.4624  0.2462
10676TIP3    H153443   1.888   3.656   3.668  0.8424 -0.2958  0.6065
10676TIP3    H253444   2.021   3.678   3.598  0.2696 -0.4979 -0.5762
10677TIP3   OH253445   3.544   4.857   5.747  0.2628  0.1771 -0.8724
10677TIP3    H153446   3.527   4.948   5.722  0.4816  0.6236  0.5391
10677TIP3    H253447   3.633   4.857   5.780  0.0736 -0.4445 -0.3456
10678TIP3   OH253448   5.307   4.817   4.723  0.1534  0.5841  0.0611
10678TIP3    H153449   5.379   4.828   4.785  1.5610  0.7705 -1.5279
10678TIP3    H253450   5.334   4.866   4.646  0.6055 -3.1405 -2.4089
10679TIP3   OH253451   5.455   3.141  13.253  0.3201 -0.6165  0.3456
10679TIP3    H153452   5.489   3.167  13.338 -0.3280 -1.4240  0.8710
10679TIP3    H253453   5.360   3.149  13.262  0.1307 -2.5156  0.3381
10680TIP3   OH253454   0.858   4.510  11.420 -0.1156  0.0690 -0.4466
10680TIP3    H153455   0.775   4.464  11.433 -0.2271  0.0600 -1.1565
10680TIP3    H253456   0.833   4.601  11.409  0.2271  0.6324  2.6879
10681TIP3   OH253457   2.849   5.289   4.561  0.5052 -0.0949  0.0959
10681TIP3    H153458   2.919   5.225   4.545  1.5104  0.5725  1.5890
10681TIP3    H253459   2.818   5.268   4.649 -0.3520  0.3938 -0.0831
10682TIP3   OH253460   5.294   3.536   4.885 -0.0215  0.4098  0.0300
10682TIP3    H153461   5.272   3.453   4.927  0.6896 -0.2603 -0.8940
10682TIP3    H253462   5.380   3.521   4.845 -0.4763  1.1664 -1.2933
10683TIP3   OH253463   4.284   4.931  14.770  0.3484  0.1270  0.2094
10683TIP3    H153464   4.281   5.004  14.833 -2.0390 -0.5828  1.0409
10683TIP3    H253465   4.360   4.879  14.797  0.7664  1.1137  1.0072
10684TIP3   OH253466   5.074   3.865   5.110  0.1381 -0.0524  0.0763
10684TIP3    H153467   5.027   3.931   5.162 -0.4725  0.4006 -1.0036
10684TIP3    H253468   5.027   3.783   5.127 -0.2697  0.1594 -0.0142
10685TIP3   OH253469   2.950   3.400  11.495 -0.5489 -0.5352  0.4993
10685TIP3    H153470   2.901   3.474  11.460  0.4685  0.6112  1.4265
10685TIP3    H253471   3.010   3.375  11.425  0.3735  0.7274  0.8007
10686TIP3   OH253472   6.073   3.009  13.184  0.0905  0.3298  0.6618
10686TIP3    H153473   6.102   2.937  13.241  2.0803 -0.6670 -1.4639
10686TIP3    H253474   5.986   2.981  13.154  1.2951 -1.8751 -1.0629
10687TIP3   OH253475   4.461   3.805  16.798 -0.1129 -0.3688  0.3664
10687TIP3    H153476   4.473   3.894  16.764  0.1214 -0.6904 -0.4028
10687TIP3    H253477   4.424   3.818  16.886  1.8210  0.5579  1.1021
10688TIP3   OH253478   4.879   5.942  11.546  0.3396  0.3647  0.2512
10688TIP3    H153479   4.793   5.964  11.582 -0.6762 -2.9851  0.2398
10688TIP3    H253480   4.914   5.876  11.605  1.7148 -0.2676 -1.1953
10689TIP3   OH253481   0.208   4.535  15.517 -0.1799  0.1956  0.5685
10689TIP3    H153482   0.118   4.503  15.521 -0.0453 -0.2011  0.4330
10689TIP3    H253483   0.211   4.605  15.582 -1.3241  2.0705 -1.2690
10690TIP3   OH253484   4.906   4.608   5.825  0.5750 -0.4588  0.4263
10690TIP3    H153485   4.877   4.697   5.844  0.3140 -0.4440 -0.0189
10690TIP3    H253486   4.855   4.582   5.747 -0.0674 -1.3452  1.1129
10691TIP3   OH253487   6.043   3.953   0.049 -0.2149  0.3181  0.5822
10691TIP3    H153488   6.068   3.927  -0.039  0.5097  1.1993  0.5076
10691TIP3    H253489   5.972   4.017   0.036  1.1836  1.9286  0.5046
10692TIP3   OH253490   3.243   4.150   5.243  0.5533  0.0736 -0.0524
10692TIP3    H153491   3.209   4.179   5.328 -2.2231 -2.0008 -0.3008
10692TIP3    H253492   3.215   4.218   5.182  0.9639  0.6889  0.4366
10693TIP3   OH253493   4.706   2.979  14.938  0.3823 -0.1842  0.2479
10693TIP3    H153494   4.731   3.046  15.001  0.2789  0.5607 -0.4911
10693TIP3    H253495   4.752   2.900  14.967  0.5843  0.2289  1.0615
10694TIP3   OH253496   5.413   0.235  12.741  0.2691  0.3525  0.2302
10694TIP3    H153497   5.368   0.159  12.706 -0.7112  1.6068 -1.3659
10694TIP3    H253498   5.475   0.199  12.805 -1.3191 -1.6186  0.7585
10695TIP3   OH253499   5.053   2.222  11.663  0.1765  0.1059 -0.7462
10695TIP3    H153500   5.101   2.276  11.726  0.6374 -0.1070 -0.9104
10695TIP3    H253501   4.966   2.263  11.658  0.8908  1.5841 -1.8005
10696TIP3   OH253502   5.193   2.934  15.309 -0.1708  0.5731  0.0896
10696TIP3    H153503   5.191   3.028  15.294 -0.6813  0.4565 -0.6525
10696TIP3    H253504   5.161   2.923  15.399  2.4922  1.2723  1.2189
10697TIP3   OH253505   6.609   0.089   6.127  0.5855  0.3038 -0.4793
10697TIP3    H153506   6.630   0.053   6.213  1.7727 -0.5035 -1.0771
10697TIP3    H253507   6.621   0.015   6.066  2.7040  1.5243 -1.6989
10698TIP3   OH253508   2.020   0.654  16.589 -0.6396  0.4861  0.2183
10698TIP3    H153509   1.951   0.590  16.600 -0.7170  0.5023 -0.1451
10698TIP3    H253510   2.010   0.685  16.499 -0.5238  0.9121  0.3468
10699TIP3   OH253511   4.793   0.767  15.784 -0.2242  0.1372 -0.0450
10699TIP3    H153512   4.799   0.854  15.743 -0.2233  0.3820  0.4664
10699TIP3    H253513   4.868   0.762  15.842 -0.3089 -0.1456  0.0420
10700TIP3   OH253514   1.459   2.145  11.624 -0.0976  0.2330  0.2657
10700TIP3    H153515   1.414   2.219  11.584 -0.2085 -0.0737 -0.1782
10700TIP3    H253516   1.491   2.093  11.551 -3.2060 -2.1711  0.4121
10701TIP3   OH253517   4.719   3.504  13.303 -0.2736  0.7798  0.6085
10701TIP3    H153518   4.639   3.453  13.298 -0.0967  0.5124  0.4912
10701TIP3    H253519   4.696   3.588  13.263 -0.0845  0.1738 -0.8263
10702TIP3   OH253520   4.773   4.579   0.591  0.1406  0.0674  0.0122
10702TIP3    H153521   4.866   4.566   0.605  0.3705 -1.6981 -2.5610
10702TIP3    H253522   4.740   4.608   0.676  2.3837 -2.9825  2.1174
10703TIP3   OH253523   5.217   1.071   5.874 -0.0132  0.2959 -0.2221
10703TIP3    H153524   5.217   1.068   5.778  0.8089  0.6980 -0.2470
10703TIP3    H253525   5.138   1.119   5.896 -0.6114 -0.4466 -0.6609
10704TIP3   OH253526   4.621   0.288  10.498 -0.3438  0.1064 -0.1967
10704TIP3    H153527   4.572   0.344  10.437  0.8636  1.4664  0.0408
10704TIP3    H253528   4.559   0.273  10.570 -0.2494  2.4484  0.4786
10705TIP3   OH253529   0.301   4.324  15.185  0.2967 -0.1769  0.2987
10705TIP3    H153530   0.329   4.410  15.217 -1.6211 -0.1041  1.9935
10705TIP3    H253531   0.270   4.340  15.096  1.0265  0.6635  0.1907
10706TIP3   OH253532   3.191   1.200  13.009 -0.5647 -0.1017 -0.7015
10706TIP3    H153533   3.240   1.281  13.017  0.8004 -0.9537 -0.0973
10706TIP3    H253534   3.144   1.208  12.926 -1.4503  1.7932 -0.0710
10707TIP3   OH253535   0.557   1.080  13.613  0.0003 -0.1930  0.1535
10707TIP3    H153536   0.585   1.091  13.704  1.6003  2.4933 -0.5682
10707TIP3    H253537   0.466   1.050  13.620 -0.0487  0.2937  2.6249
10708TIP3   OH253538   3.598   2.800  12.959  0.5029  0.5003  0.2733
10708TIP3    H153539   3.672   2.834  13.009  0.0835  2.1934 -0.2050
10708TIP3    H253540   3.558   2.736  13.018  1.3507  0.7946  1.2087
10709TIP3   OH253541   6.249   5.546   3.516 -0.7548 -0.1878 -0.5993
10709TIP3    H153542   6.299   5.527   3.437 -0.0383 -0.9995  0.0371
10709TIP3    H253543   6.176   5.484   3.514 -1.7007  0.9081 -1.4596
10710TIP3   OH253544   0.692   6.370  13.099 -0.1517 -0.0492  0.2273
10710TIP3    H153545   0.751   6.416  13.039  1.0853  1.7728  2.6728
10710TIP3    H253546   0.704   6.277  13.077  0.9080  0.4822 -1.6958
10711TIP3   OH253547   4.464   4.436  16.416 -0.1485 -0.0495  0.1034
10711TIP3    H153548   4.551   4.464  16.387 -0.7368  1.4005 -0.3752
10711TIP3    H253549   4.408   4.511  16.396 -1.3108 -0.5336  1.4129
10712TIP3   OH253550   1.812   2.700  14.985 -0.3307 -0.0540  0.0518
10712TIP3    H153551   1.827   2.699  14.891 -0.9235  1.1882 -0.0613
10712TIP3    H253552   1.899   2.688  15.023 -0.1199 -0.8215 -0.6339
10713TIP3   OH253553   2.625   0.053   6.011  0.1392 -0.0013 -0.8866
10713TIP3    H153554   2.532   0.075   6.009  0.1282  0.4845  1.4325
10713TIP3    H253555   2.628  -0.038   6.042  0.4247 -0.3715 -1.9675
10714TIP3   OH253556   5.342   1.897  13.245  0.4273  0.3325  0.3758
10714TIP3    H153557   5.387   1.871  13.325  0.3743  1.2356  0.7153
10714TIP3    H253558   5.256   1.854  13.251  1.5087 -2.1888 -0.7392
10715TIP3   OH253559   4.873   0.629   5.845 -0.2498 -0.4436  0.1422
10715TIP3    H153560   4.922   0.677   5.778 -1.3846  1.0649  0.3310
10715TIP3    H253561   4.904   0.539   5.838  2.5728  0.4305  0.3086
10716TIP3   OH253562   1.552   0.111   0.119  0.2465 -0.5581  0.2425
10716TIP3    H153563   1.570   0.170   0.045 -1.6745  2.2937  1.8484
10716TIP3    H253564   1.639   0.091   0.155  1.0125  0.9138 -0.6769
10717TIP3   OH253565   5.508   2.869  14.796 -0.4893 -0.1964 -0.1381
10717TIP3    H153566   5.580   2.807  14.804  1.0662  1.5936  0.5153
10717TIP3    H253567   5.506   2.893  14.703  0.7423  0.7990  0.0657
10718TIP3   OH253568   6.762   4.298  15.829 -0.1017  0.1771 -0.3958
10718TIP3    H153569   6.793   4.225  15.883 -0.2487  0.4046  0.0017
10718TIP3    H253570   6.773   4.375  15.885 -0.3073  0.4084 -0.6737
10719TIP3   OH253571   2.877   5.512   4.388  0.6869  0.0368  0.3109
10719TIP3    H153572   2.870   5.492   4.295  1.7776 -0.2037  0.2651
10719TIP3    H253573   2.863   5.428   4.432  1.2664 -0.0659  0.3063
10720TIP3   OH253574   6.294   3.491   6.441 -0.0703 -0.5863  0.2689
10720TIP3    H153575   6.228   3.548   6.402  0.0795 -0.4847  0.1617
10720TIP3    H253576   6.336   3.448   6.366 -0.4051 -1.0877  0.3658
10721TIP3   OH253577   2.459   5.752  14.267 -0.5817  0.0903  0.4240
10721TIP3    H153578   2.440   5.811  14.340  0.1366 -0.1496  0.8203
10721TIP3    H253579   2.544   5.781  14.234 -0.6345 -0.1694  0.0532
10722TIP3   OH253580   6.767   5.974  15.634  0.2038 -0.6046  0.4450
10722TIP3    H153581   6.814   6.013  15.560 -0.7646 -0.6908 -0.2238
10722TIP3    H253582   6.821   5.900  15.660  1.3450  0.3197  0.8245
10723TIP3   OH253583   2.489   5.108  12.002 -0.0439  0.2523 -0.1026
10723TIP3    H153584   2.498   5.043  12.071 -0.5287 -0.4641 -0.7058
10723TIP3    H253585   2.568   5.162  12.010 -0.5894  0.8536  1.6779
10724TIP3   OH253586   1.923   5.562   1.983  0.3426 -0.4776 -0.3152
10724TIP3    H153587   1.886   5.506   1.915 -0.3262 -1.8020  1.0774
10724TIP3    H253588   1.959   5.501   2.048  1.7180  0.7481  0.1293
10725TIP3   OH253589   0.399   6.496   5.558  0.7005 -0.2025 -0.1330
10725TIP3    H153590   0.428   6.538   5.639 -1.4286 -0.0989  0.6422
10725TIP3    H253591   0.343   6.561   5.516 -0.1586 -1.1176 -0.4606
10726TIP3   OH253592   6.791   0.745   4.068 -0.1917 -0.2245 -0.4868
10726TIP3    H153593   6.766   0.826   4.113  0.2076 -1.3514  1.9066
10726TIP3    H253594   6.886   0.753   4.057 -0.3681  0.3347 -1.8302
10727TIP3   OH253595   5.640   3.004  11.987  0.2042 -0.0282 -0.4213
10727TIP3    H153596   5.596   2.936  11.936 -0.3709  1.7983 -2.5237
10727TIP3    H253597   5.690   3.054  11.922 -0.0431  2.0337  0.8867
10728TIP3   OH253598   6.264   0.216  13.019 -0.5210 -0.4438 -0.0607
10728TIP3    H153599   6.358   0.230  13.017 -0.4737 -0.5599  0.8668
10728TIP3    H253600   6.232   0.274  13.088 -1.1761 -0.1709 -0.5797
10729TIP3   OH253601   4.298   0.105  12.757 -0.5565  0.4387 -0.2619
10729TIP3    H153602   4.370   0.042  12.759 -0.3283  0.7043  0.6210
10729TIP3    H253603   4.304   0.150  12.842  0.7315  3.2146 -1.6757
10730TIP3   OH253604   0.172   4.252   3.595 -0.0568 -0.4029 -0.2385
10730TIP3    H153605   0.244   4.292   3.643  0.0241 -1.1594  0.2915
10730TIP3    H253606   0.100   4.248   3.658 -0.4959  0.1335 -0.6943
10731TIP3   OH253607   3.128   2.864  16.409 -0.2669 -0.4068 -0.0107
10731TIP3    H153608   3.130   2.898  16.498 -1.2328 -0.1378 -0.0791
10731TIP3    H253609   3.046   2.899  16.372 -0.1612 -0.9834 -0.8088
10732TIP3   OH253610   2.398   2.971  10.908 -0.3536  0.6029 -0.3845
10732TIP3    H153611   2.356   3.020  10.837  0.7128  3.9467  1.0957
10732TIP3    H253612   2.484   2.948  10.874 -0.5706  0.4151 -0.8222
10733TIP3   OH253613   4.474   1.945  12.981  0.4280 -0.2553  0.2476
10733TIP3    H153614   4.420   1.886  13.033  1.0042  0.0051  1.1681
10733TIP3    H253615   4.534   1.985  13.044  0.4180  0.9016 -0.4421
10734TIP3   OH253616   3.407   1.617   4.348  0.4718 -0.1681  0.5407
10734TIP3    H153617   3.338   1.608   4.282  0.7083 -0.7917  0.3711
10734TIP3    H253618   3.476   1.557   4.319  1.1328  0.5309  0.6510
10735TIP3   OH253619   1.937   2.649   4.078  0.6274 -1.1228 -0.4600
10735TIP3    H153620   1.871   2.592   4.040 -1.5554  1.5744 -1.1127
10735TIP3    H253621   1.998   2.668   4.006 -0.0742 -0.6953 -0.9509
10736TIP3   OH253622   5.780   1.621   5.870  0.0196  0.1105 -0.2229
10736TIP3    H153623   5.789   1.600   5.963 -0.3599  1.0698  0.0325
10736TIP3    H253624   5.804   1.539   5.825  1.5015  0.0132  0.6630
10737TIP3   OH253625   2.432   5.012   3.336  0.4726 -0.6941 -0.2686
10737TIP3    H153626   2.518   5.039   3.303  0.5686 -0.9324 -0.2160
10737TIP3    H253627   2.373   5.023   3.261  0.6264 -0.9119 -0.4224
10738TIP3   OH253628   3.738   0.225   5.103  0.3349 -0.1712  0.1235
10738TIP3    H153629   3.753   0.251   5.012 -0.3642  1.6732  0.4860
10738TIP3    H253630   3.768   0.134   5.108 -0.6891 -0.7012 -2.2163
10739TIP3   OH253631   3.483   4.522   1.846  0.3125 -0.0147 -0.2808
10739TIP3    H153632   3.561   4.508   1.793 -0.0642 -0.3396 -0.7722
10739TIP3    H253633   3.486   4.614   1.871  1.1820 -0.1888  0.2571
10740TIP3   OH253634   6.397   6.726  15.660 -0.0978  0.5254  0.0530
10740TIP3    H153635   6.333   6.797  15.664  0.8218  1.5390 -1.9833
10740TIP3    H253636   6.482   6.770  15.654  0.6687 -0.7761  0.8557
10741TIP3   OH253637   5.545   4.838  10.578  0.1652 -0.0483 -0.0820
10741TIP3    H153638   5.633   4.807  10.603 -0.2964 -2.7122 -1.3776
10741TIP3    H253639   5.494   4.829  10.659  0.8724  0.7023  0.4644
10742TIP3   OH253640   0.232   0.794   1.955 -0.5018 -0.5145  0.6178
10742TIP3    H153641   0.153   0.752   1.991  0.1377 -0.6531  1.8861
10742TIP3    H253642   0.251   0.744   1.875 -0.8531 -1.4197  1.0886
10743TIP3   OH253643   2.637   5.325  11.125  0.0975  0.1654 -0.0751
10743TIP3    H153644   2.567   5.304  11.187 -0.0397 -0.0398 -0.2997
10743TIP3    H253645   2.707   5.264  11.147 -0.2680 -0.4795 -0.6703
10744TIP3   OH253646   5.643   4.869  12.742  0.2963  0.2075  0.0550
10744TIP3    H153647   5.565   4.815  12.732  0.6626 -0.5368  1.0268
10744TIP3    H253648   5.668   4.892  12.653 -1.0665  0.5167 -0.2614
10745TIP3   OH253649   3.697   1.315   2.824 -0.0912 -0.4308 -0.2576
10745TIP3    H153650   3.784   1.329   2.862 -0.1593  0.7956 -0.5135
10745TIP3    H253651   3.636   1.354   2.887 -0.5152 -1.7668  0.1860
10746TIP3   OH253652   2.743   6.715  13.588  0.3279  0.8822 -0.4107
10746TIP3    H153653   2.832   6.710  13.623 -0.4796 -0.8365  1.5669
10746TIP3    H253654   2.686   6.714  13.665 -1.4495  0.6562 -1.6684
10747TIP3   OH253655   4.586   6.701   3.370  0.4250  0.3462 -0.6064
10747TIP3    H153656   4.631   6.712   3.454 -1.7401 -0.8804  0.8086
10747TIP3    H253657   4.654   6.672   3.310  1.9896  0.9656  0.7939
10748TIP3   OH253658   2.971   5.742   0.762  0.2442  0.4840 -0.0875
10748TIP3    H153659   3.036   5.678   0.733  0.7329  0.2504  1.4482
10748TIP3    H253660   3.023   5.820   0.784  0.0635  0.2069  1.4042
10749TIP3   OH253661   3.439   1.592  11.190 -0.5698  0.3128  0.0231
10749TIP3    H153662   3.452   1.528  11.120  1.5809 -1.0113  1.5406
10749TIP3    H253663   3.471   1.674  11.154  0.6892 -0.3888 -0.5096
10750TIP3   OH253664   6.063   2.986  15.859  0.3074 -0.5697 -0.4138
10750TIP3    H153665   5.971   2.999  15.838  0.3306 -0.2675 -0.3373
10750TIP3    H253666   6.069   2.895  15.886 -0.1398 -0.3391  0.4946
10751TIP3   OH253667   5.089   4.384  14.917  0.8240  0.0030 -0.2274
10751TIP3    H153668   5.104   4.473  14.885 -1.3197 -0.0755 -1.6682
10751TIP3    H253669   5.156   4.331  14.874  0.2496  0.4886 -1.7897
10752TIP3   OH253670   5.464   5.116   1.815  0.4941 -0.7308 -0.3508
10752TIP3    H153671   5.468   5.083   1.905  1.2536 -1.2457 -0.5625
10752TIP3    H253672   5.463   5.036   1.761  2.4783 -0.4429 -0.8867
10753TIP3   OH253673   5.046   5.395  14.303 -0.4785  0.1719  0.3386
10753TIP3    H153674   5.093   5.368  14.224  1.2194  1.5738  0.8039
10753TIP3    H253675   5.103   5.369  14.375  0.7823  3.7230  0.8638
10754TIP3   OH253676   2.729   4.044  13.538  0.7437  0.2498 -0.4817
10754TIP3    H153677   2.664   3.975  13.548  0.7333  0.4458  1.0192
10754TIP3    H253678   2.684   4.124  13.565  1.5740  0.3775  0.6276
10755TIP3   OH253679   3.737   0.178   2.270 -0.0185  0.2464 -0.2500
10755TIP3    H153680   3.774   0.142   2.351  0.3376 -1.4115 -1.1200
10755TIP3    H253681   3.695   0.103   2.227  0.7246  0.8565 -2.1227
10756TIP3   OH253682   0.073   0.018   3.390  0.4894  0.2567  0.2737
10756TIP3    H153683   0.143  -0.019   3.445 -1.0100 -1.8309  0.8946
10756TIP3    H253684   0.049   0.100   3.435  2.5308  1.0690 -0.0047
10757TIP3   OH253685   5.571   2.856   5.278 -0.0192  0.0921 -0.5509
10757TIP3    H153686   5.556   2.849   5.372 -0.7392 -1.6057 -0.7639
10757TIP3    H253687   5.492   2.900   5.245  0.8648  2.0447 -0.2348
10758TIP3   OH253688   6.187   3.821   1.322  0.2094 -0.1910 -0.5444
10758TIP3    H153689   6.180   3.725   1.316  0.3951 -0.2142 -0.3827
10758TIP3    H253690   6.272   3.836   1.361  0.9343  0.0833 -2.1337
10759TIP3   OH253691   1.988   4.355  16.971 -0.0465 -0.0138  0.4166
10759TIP3    H153692   1.934   4.284  16.935 -0.7204  0.5534  0.3011
10759TIP3    H253693   2.045   4.312  17.035  2.0079 -1.3083 -2.0468
10760TIP3   OH253694   6.158   4.470   2.437  0.4640 -0.5367 -0.5786
10760TIP3    H153695   6.157   4.565   2.447 -3.4173 -0.6147  2.4802
10760TIP3    H253696   6.123   4.454   2.350 -2.2564  1.0383  0.0956
10761TIP3   OH253697   2.774   6.051   2.121 -0.1519  0.4677  0.0542
10761TIP3    H153698   2.734   6.000   2.050  0.9733 -0.7883  0.2814
10761TIP3    H253699   2.716   6.037   2.196 -0.4975  0.5069 -0.2039
10762TIP3   OH253700   0.157   4.217   2.291  0.1504 -0.3441  0.0800
10762TIP3    H153701   0.070   4.256   2.283  0.7721  1.0733 -0.1199
10762TIP3    H253702   0.179   4.226   2.384 -1.4831 -4.3629  1.0653
10763TIP3   OH253703   4.578   4.392   1.858 -0.4739 -0.6838  0.8603
10763TIP3    H153704   4.668   4.375   1.885 -0.5494 -0.9496  0.9516
10763TIP3    H253705   4.563   4.484   1.880  0.1240 -0.3359 -0.1632
10764TIP3   OH253706   3.658   3.447   2.071  0.0347  0.5567  0.0289
10764TIP3    H153707   3.605   3.525   2.087 -0.3986 -0.1490  2.5747
10764TIP3    H253708   3.639   3.423   1.980 -1.4760  2.1834 -0.1433
10765TIP3   OH253709   4.786   2.069   6.275  0.4185 -0.1248  0.2868
10765TIP3    H153710   4.745   2.042   6.357  0.9285 -2.2582 -0.0989
10765TIP3    H253711   4.847   1.998   6.254  0.9151  0.7679 -1.5151
10766TIP3   OH253712   4.724   5.366  16.534 -0.1804 -0.0834  0.6204
10766TIP3    H153713   4.667   5.370  16.610 -1.9114  2.3767 -0.6613
10766TIP3    H253714   4.732   5.457  16.506  2.4110 -0.6391 -0.7356
10767TIP3   OH253715   4.734   3.037   4.983  0.0819  0.0583 -0.4842
10767TIP3    H153716   4.683   2.964   5.018  1.3333 -0.5511  0.1277
10767TIP3    H253717   4.669   3.101   4.957 -1.1165 -1.6199 -1.8651
10768TIP3   OH253718   6.009   4.882   5.589 -0.1506  0.0538 -0.2664
10768TIP3    H153719   6.015   4.889   5.493  0.2798 -0.8397 -0.3165
10768TIP3    H253720   6.028   4.790   5.607  1.4513  0.5552  0.8004
10769TIP3   OH253721   4.543   6.030   2.599 -0.4068 -0.3222  0.2322
10769TIP3    H153722   4.574   5.979   2.674 -0.1690  0.5889  0.7662
10769TIP3    H253723   4.601   6.106   2.595 -0.1143 -0.5857 -1.1793
10770TIP3   OH253724   0.715   4.488   5.260 -0.1439  0.3668  0.1630
10770TIP3    H153725   0.650   4.443   5.314  0.3738 -0.8186 -0.1649
10770TIP3    H253726   0.771   4.533   5.323 -0.2831  0.0117  0.5486
10771TIP3   OH253727   0.074   4.321  14.734 -0.2547 -0.3520  0.1844
10771TIP3    H153728   0.039   4.396  14.686 -0.2919 -0.3255  0.2532
10771TIP3    H253729   0.130   4.276  14.671  0.1852  0.0303  0.3000
10772TIP3   OH253730   3.670   5.725   2.513  0.1588 -0.1219  0.0002
10772TIP3    H153731   3.748   5.775   2.536 -0.0655 -0.5143  1.7096
10772TIP3    H253732   3.598   5.786   2.527  0.0438 -0.2453 -0.0545
10773TIP3   OH253733   2.380   1.413   4.874 -0.0638 -0.5784 -0.4476
10773TIP3    H153734   2.433   1.458   4.939 -0.8477  0.7055 -0.6614
10773TIP3    H253735   2.434   1.338   4.846  1.2056  0.1264  0.0452
10774TIP3   OH253736   1.059   3.233  14.314 -0.4794  0.4681  0.4036
10774TIP3    H153737   1.113   3.312  14.303 -2.4063  1.6027 -1.8183
10774TIP3    H253738   1.038   3.206  14.225 -0.1016 -2.4918  1.1168
10775TIP3   OH253739   3.169   1.920   0.771 -0.1123  0.5911  0.5831
10775TIP3    H153740   3.160   1.827   0.750 -1.0297  0.6606  0.6389
10775TIP3    H253741   3.100   1.962   0.720  0.8372  1.3474 -0.1027
10776TIP3   OH253742   6.696   5.567  14.298 -0.2675 -0.0554 -0.6358
10776TIP3    H153743   6.780   5.522  14.294 -0.1822 -0.2713  1.8151
10776TIP3    H253744   6.718   5.660  14.299 -0.0499 -0.1073 -0.2348
10777TIP3   OH253745   5.550   6.060   3.548 -0.2067  0.5674  0.3205
10777TIP3    H153746   5.597   6.004   3.486 -2.0761 -0.1608 -0.5167
10777TIP3    H253747   5.591   6.042   3.633  1.4995  0.5514 -0.4655
10778TIP3   OH253748   2.257   2.330  12.026 -0.5809 -0.1908 -0.3953
10778TIP3    H153749   2.287   2.273  12.097  2.0084  0.9419 -0.4611
10778TIP3    H253750   2.165   2.347  12.046 -0.9328 -2.8047  0.6519
10779TIP3   OH253751   1.279   4.863   4.022  0.0744 -0.3393 -0.2961
10779TIP3    H153752   1.349   4.832   3.964  2.0726  2.6976  0.2459
10779TIP3    H253753   1.219   4.909   3.964  1.3909  1.5781 -0.2235
10780TIP3   OH253754   5.585   1.937   1.438 -0.2457 -0.5783  0.1526
10780TIP3    H153755   5.552   2.018   1.476  2.2727  1.5774 -1.9029
10780TIP3    H253756   5.679   1.939   1.454  0.0681 -2.3837 -1.1665
10781TIP3   OH253757   1.370   0.802   1.921 -0.2602 -0.8307 -0.2214
10781TIP3    H153758   1.324   0.844   1.994  0.0789 -0.1276 -0.3981
10781TIP3    H253759   1.366   0.867   1.850 -0.3544 -1.3972 -0.7438
10782TIP3   OH253760   6.114   3.443  12.755 -0.3103  0.1052  0.1053
10782TIP3    H153761   6.019   3.433  12.748 -0.2616 -0.1726 -0.2088
10782TIP3    H253762   6.142   3.465  12.666 -0.0986  0.3187  0.2281
10783TIP3   OH253763   4.606   3.644  15.599 -0.8618  0.3054  0.1652
10783TIP3    H153764   4.571   3.698  15.529  0.4072  1.0475  0.0826
10783TIP3    H253765   4.621   3.558  15.558  1.3920  1.1542 -0.9833
10784TIP3   OH253766   2.473   6.542   0.269 -0.3799  0.1533  0.2107
10784TIP3    H153767   2.506   6.491   0.343  2.7627 -0.5608 -1.4817
10784TIP3    H253768   2.414   6.606   0.308  1.0904 -0.2155  3.3385
10785TIP3   OH253769   4.472   4.186   1.244 -0.4127  0.0514 -0.2768
10785TIP3    H153770   4.443   4.140   1.165 -2.3251 -1.3732  1.1461
10785TIP3    H253771   4.402   4.248   1.263 -0.7210 -0.6656  1.0736
10786TIP3   OH253772   3.312   2.592   6.734  0.0521  0.1773  0.9412
10786TIP3    H153773   3.221   2.568   6.748  0.9504 -4.0219  0.7930
10786TIP3    H253774   3.333   2.650   6.807 -2.5612  0.9740  1.1720
10787TIP3   OH253775   6.634   4.449   2.914  0.5178 -0.0003  0.2002
10787TIP3    H153776   6.692   4.432   2.840  0.7588 -1.8813  0.7679
10787TIP3    H253777   6.553   4.403   2.892 -0.7128  2.3003 -0.4240
10788TIP3   OH253778   0.689   0.365   3.841  0.2755 -0.4255 -0.1171
10788TIP3    H153779   0.710   0.287   3.892  0.9604 -0.7429 -0.8673
10788TIP3    H253780   0.725   0.437   3.893 -0.7929 -0.5356  0.8254
10789TIP3   OH253781   6.426   5.888  11.807 -0.4995  0.0893 -0.2820
10789TIP3    H153782   6.412   5.845  11.723  0.4811  1.2226 -1.0469
10789TIP3    H253783   6.515   5.863  11.833 -0.1985  1.0397 -0.3763
10790TIP3   OH253784   6.762   5.241   3.382  0.0353 -0.3890  0.4140
10790TIP3    H153785   6.704   5.250   3.307  1.1841  1.7807 -0.2880
10790TIP3    H253786   6.833   5.185   3.350  0.1542 -0.0617  0.0972
10791TIP3   OH253787   5.908   6.793  15.338 -0.2830  0.9704 -0.0497
10791TIP3    H153788   6.003   6.782  15.333 -0.0280  1.4809  2.4008
10791TIP3    H253789   5.882   6.744  15.415 -1.7762  2.1747  0.2571
10792TIP3   OH253790   1.753   3.456  13.349  0.0550 -0.1540 -0.5586
10792TIP3    H153791   1.671   3.489  13.385  0.3053  0.2836 -0.3692
10792TIP3    H253792   1.737   3.444  13.256 -0.2963 -0.3089 -0.4774
10793TIP3   OH253793   3.010   3.768  11.820 -0.2781 -0.3707 -0.0551
10793TIP3    H153794   3.012   3.862  11.799 -3.6383 -0.6553 -2.3112
10793TIP3    H253795   3.082   3.731  11.768  0.5346  0.7920  0.1862
10794TIP3   OH253796   1.220   5.159   1.011 -0.5145  0.2652  0.6095
10794TIP3    H153797   1.186   5.147   0.922 -0.0692 -0.2042  0.4966
10794TIP3    H253798   1.262   5.075   1.031 -1.3784  0.0448  1.5988
10795TIP3   OH253799   1.286   1.559   2.701  0.0381 -0.1011  0.9633
10795TIP3    H153800   1.255   1.542   2.612  2.3857 -1.0064  0.2411
10795TIP3    H253801   1.218   1.614   2.740 -1.6162 -0.6419 -0.9829
10796TIP3   OH253802   1.492   0.009  15.306 -0.1197 -0.1791  0.1719
10796TIP3    H153803   1.517  -0.048  15.233 -0.7598 -1.0406  0.6137
10796TIP3    H253804   1.560   0.076  15.308  0.3831 -0.6509 -0.6657
10797TIP3   OH253805   3.176   5.578  16.561  0.0339 -0.1986 -0.2489
10797TIP3    H153806   3.202   5.669  16.547  0.1075 -0.2485 -0.4483
10797TIP3    H253807   3.241   5.544  16.623  1.8669 -0.9538 -2.4202
10798TIP3   OH253808   0.563   0.361   2.357 -0.0519  0.3003  0.6416
10798TIP3    H153809   0.614   0.373   2.438  0.6248 -0.8947  0.4072
10798TIP3    H253810   0.565   0.267   2.341 -0.8932  0.4341 -0.3259
10799TIP3   OH253811   2.016   4.139  16.462 -0.2007  0.1998  0.2027
10799TIP3    H153812   1.927   4.116  16.491 -0.2210 -2.2572 -1.5293
10799TIP3    H253813   2.072   4.113  16.535 -0.7913  0.8952  0.9267
10800TIP3   OH253814   0.038   5.616   1.329 -0.5468 -0.2445 -0.4822
10800TIP3    H153815   0.052   5.525   1.355 -0.7520 -0.2115 -0.2532
10800TIP3    H253816   0.017   5.611   1.235  2.1985 -0.1954 -1.1636
10801TIP3   OH253817   6.718   4.862  15.631 -0.4628  0.0132  0.4802
10801TIP3    H153818   6.803   4.899  15.608  0.1363 -0.3731  1.9832
10801TIP3    H253819   6.656   4.935  15.621  0.3738  0.8621  1.3991
10802TIP3   OH253820   1.481   3.040   0.187  0.2693 -0.2175  0.5674
10802TIP3    H153821   1.556   3.059   0.244 -0.0976 -1.1145  1.3711
10802TIP3    H253822   1.449   2.956   0.217 -0.7713 -0.0774 -0.1060
10803TIP3   OH253823   3.940   6.559   5.420  0.1127 -0.4725 -0.1544
10803TIP3    H153824   3.974   6.640   5.458  0.5277 -1.9680  2.9925
10803TIP3    H253825   3.921   6.582   5.329  2.2570  2.5352 -0.0216
10804TIP3   OH253826   0.026   5.490  10.859 -0.0601 -0.0489  0.3540
10804TIP3    H153827   0.024   5.455  10.770  0.5952 -1.7687  0.9744
10804TIP3    H253828   0.051   5.582  10.848  0.9797 -0.4745 -1.1744
10805TIP3   OH253829   4.531   3.269   5.692  0.3034  0.9231 -0.3894
10805TIP3    H153830   4.534   3.195   5.632  2.1842  0.4944  0.1767
10805TIP3    H253831   4.540   3.229   5.779 -0.6430  1.6738  0.0729
10806TIP3   OH253832   0.401   6.643   4.142 -1.1609  0.8586 -0.5167
10806TIP3    H153833   0.409   6.733   4.173  2.1972  1.0872 -1.7031
10806TIP3    H253834   0.423   6.648   4.049  1.7605 -1.4481 -0.0751
10807TIP3   OH253835   0.565   4.538  17.064  0.3962  0.4539  0.2410
10807TIP3    H153836   0.582   4.579  17.149  0.0039 -0.1081  0.5962
10807TIP3    H253837   0.515   4.603  17.015  0.5241  0.7365  0.4823
10808TIP3   OH253838   1.686   2.875   1.031 -0.8285  0.2233 -0.0603
10808TIP3    H153839   1.673   2.961   0.991  1.0658  0.6813  0.2085
10808TIP3    H253840   1.647   2.813   0.969 -0.3987  1.1254 -1.2553
10809TIP3   OH253841   6.766   3.182   5.412  0.0928 -0.2718 -0.6514
10809TIP3    H153842   6.770   3.127   5.490  0.1001  2.7239  1.6569
10809TIP3    H253843   6.697   3.143   5.359 -0.3076 -2.1507  1.0984
10810TIP3   OH253844   1.221   3.257  16.585  0.6324  0.5125  0.0269
10810TIP3    H153845   1.233   3.223  16.674 -3.5090 -0.6611  0.3261
10810TIP3    H253846   1.225   3.179  16.529 -0.5481  0.6678 -0.3012
10811TIP3   OH253847   1.454   2.185  15.334  0.3749  0.1181 -0.2985
10811TIP3    H153848   1.548   2.167  15.343  0.3757 -0.6347 -1.6367
10811TIP3    H253849   1.413   2.129  15.399  0.8530  0.7818  0.6139
10812TIP3   OH253850   2.830   1.923  15.238  0.6019 -0.2818 -0.1887
10812TIP3    H153851   2.798   1.954  15.153 -0.6828 -1.2018 -0.0775
10812TIP3    H253852   2.878   1.843  15.218  1.4497  0.2240 -0.1842
10813TIP3   OH253853   3.004   6.287  16.473 -0.0249  0.3749 -0.1557
10813TIP3    H153854   3.002   6.343  16.551  0.0062 -0.1748  0.2482
10813TIP3    H253855   3.097   6.274  16.455  0.0426 -1.3285  1.0866
10814TIP3   OH253856   4.677   2.827  13.576 -0.5031  0.3140  0.3517
10814TIP3    H153857   4.760   2.785  13.598 -1.0897 -0.0738  1.9444
10814TIP3    H253858   4.612   2.756  13.577 -0.8542  0.5655 -1.1127
10815TIP3   OH253859   2.637   6.647  13.998 -0.1554  0.6313 -0.3693
10815TIP3    H153860   2.613   6.601  14.078 -4.0872  0.5127 -1.3996
10815TIP3    H253861   2.671   6.579  13.940 -0.0140  0.2103  0.2062
10816TIP3   OH253862   5.136   3.686   3.508  0.1163  0.1893  0.0069
10816TIP3    H153863   5.087   3.751   3.558 -0.3381 -1.2259  1.5200
10816TIP3    H253864   5.223   3.723   3.498 -0.3207  1.3107  0.2374
10817TIP3   OH253865   4.736   1.346   4.197  1.1740 -0.0041 -0.1310
10817TIP3    H153866   4.710   1.323   4.286  0.8120 -0.7673 -0.4302
10817TIP3    H253867   4.704   1.436   4.185  0.9164 -0.0277  0.3800
10818TIP3   OH253868   0.571   6.774   1.329 -0.5787  0.8520  0.0273
10818TIP3    H153869   0.553   6.711   1.260 -0.9956 -1.4283  2.0776
10818TIP3    H253870   0.660   6.755   1.358 -1.4474 -0.3976  2.1192
10819TIP3   OH253871   3.753   3.059   3.358  0.0580 -0.2869 -0.7553
10819TIP3    H153872   3.795   3.077   3.442 -2.0761 -0.6523  0.4735
10819TIP3    H253873   3.691   3.132   3.347  0.9598  0.2549 -2.5065
10820TIP3   OH253874   6.444   3.567  11.817 -0.2295  0.5031  0.1433
10820TIP3    H153875   6.528   3.576  11.862  0.7661 -0.7724 -1.3312
10820TIP3    H253876   6.396   3.501  11.867  0.4650 -0.1819 -0.0690
10821TIP3   OH253877   4.960   4.560  12.169  0.0090 -0.0659  0.6570
10821TIP3    H153878   4.927   4.517  12.248 -0.2493  1.1707  1.2478
10821TIP3    H253879   5.043   4.515  12.150 -0.0970 -0.6110  1.4185
10822TIP3   OH253880   5.461   5.025   5.355 -0.0382  0.0534  0.3251
10822TIP3    H153881   5.440   4.976   5.434  0.9359 -0.4719  0.2705
10822TIP3    H253882   5.530   5.086   5.382 -0.2983  0.4602  0.0779
10823TIP3   OH253883   6.039   6.289  15.894  0.1944 -0.2714  0.5631
10823TIP3    H153884   6.022   6.214  15.837 -0.1108  0.6247 -0.5556
10823TIP3    H253885   6.083   6.251  15.970 -0.1689 -1.6148  0.1333
10824TIP3   OH253886   3.153   4.263  14.754  0.4939 -0.4726  0.2881
10824TIP3    H153887   3.161   4.357  14.772 -0.5382  0.2988 -2.7299
10824TIP3    H253888   3.194   4.221  14.830 -0.1098  2.3434  2.3517
10825TIP3   OH253889   4.268   4.010  13.256 -0.2480  0.0544 -0.3606
10825TIP3    H153890   4.228   4.094  13.276 -1.6720 -0.3737 -1.3078
10825TIP3    H253891   4.235   3.986  13.170 -0.0405 -1.5799 -0.0327
10826TIP3   OH253892   3.722   6.024  14.599  0.2859 -0.0544  0.4203
10826TIP3    H153893   3.805   6.071  14.591 -0.6983  1.8297  0.5893
10826TIP3    H253894   3.737   5.960  14.669  1.0348  1.6658  1.9300
10827TIP3   OH253895   3.277   0.159   2.813 -0.2552  0.2386 -0.0988
10827TIP3    H153896   3.236   0.112   2.885 -0.5400  0.5901 -0.0272
10827TIP3    H253897   3.322   0.092   2.762  1.6786  0.1865  1.5296
10828TIP3   OH253898   5.026   0.145  17.045 -0.2471 -0.0035 -0.1876
10828TIP3    H153899   5.059   0.185  16.964  0.5014 -1.7261 -0.7706
10828TIP3    H253900   5.045   0.210  17.113 -0.0659  1.0872 -1.2381
10829TIP3   OH253901   5.966   3.020  11.325 -0.1028  0.0146  0.2567
10829TIP3    H153902   5.931   3.079  11.391  3.1678  2.4989  0.0345
10829TIP3    H253903   6.034   2.970  11.371 -0.1157 -0.7073 -0.4765
10830TIP3   OH253904   2.885   4.689  13.967 -0.2929 -0.2922 -0.1827
10830TIP3    H153905   2.794   4.683  13.995 -0.7276  1.6135 -1.0525
10830TIP3    H253906   2.884   4.752  13.895  1.8179  0.3898  0.3124
10831TIP3   OH253907   3.311   1.161  16.171  0.0484  0.4034  0.6348
10831TIP3    H153908   3.312   1.174  16.076 -1.4364  1.6506  0.7521
10831TIP3    H253909   3.287   1.246  16.207 -1.3059 -0.4979  2.0140
10832TIP3   OH253910   2.022   3.061  15.728 -0.0625 -0.4851 -0.0153
10832TIP3    H153911   2.000   3.112  15.650  0.2461  0.0283  0.2301
10832TIP3    H253912   2.117   3.067  15.735 -0.2011  0.7299  1.2316
10833TIP3   OH253913   2.347   5.782   0.508  0.5378  0.1926  0.5230
10833TIP3    H153914   2.340   5.716   0.576 -0.8839  1.2430  1.4681
10833TIP3    H253915   2.257   5.814   0.497  0.9979  1.1135 -0.7528
10834TIP3   OH253916   1.890   3.830   4.395  0.1261  0.3431 -0.7596
10834TIP3    H153917   1.800   3.821   4.362  0.4266 -2.0919 -1.1535
10834TIP3    H253918   1.880   3.860   4.485 -1.1009  0.1277 -0.8072
10835TIP3   OH253919   6.364   0.491  14.327  0.0364 -0.5789  0.1855
10835TIP3    H153920   6.297   0.445  14.377 -1.3131  0.7078 -0.3509
10835TIP3    H253921   6.328   0.579  14.314  0.1819 -0.8723 -3.2002
10836TIP3   OH253922   4.189   3.683   4.286  0.5427  0.4597 -0.5005
10836TIP3    H153923   4.096   3.693   4.269  0.7914  0.9228 -1.6350
10836TIP3    H253924   4.214   3.603   4.239  0.7557  0.4349 -0.3473
10837TIP3   OH253925   0.332   3.789  12.286  1.0896  0.1516 -0.1478
10837TIP3    H153926   0.281   3.846  12.344  1.2862  0.5021 -0.3135
10837TIP3    H253927   0.364   3.719  12.343 -2.0715 -1.8373 -0.5703
10838TIP3   OH253928   3.710   0.715   2.616 -0.3996 -0.3712 -0.6110
10838TIP3    H153929   3.729   0.623   2.597 -1.7118 -0.7056 -0.4079
10838TIP3    H253930   3.642   0.739   2.553  0.9845  0.9236 -1.6603
10839TIP3   OH253931   3.179   5.659  12.048 -0.7137 -0.1803 -0.1997
10839TIP3    H153932   3.251   5.627  12.102  0.0314  0.1403 -0.9822
10839TIP3    H253933   3.107   5.674  12.110 -0.2923 -1.0116  0.5121
10840TIP3   OH253934   0.928   6.117  16.406  0.2987 -0.2184 -0.5211
10840TIP3    H153935   0.958   6.181  16.471 -0.7991  1.0021 -1.1640
10840TIP3    H253936   0.892   6.045  16.459 -0.8171  0.8688  0.2699
10841TIP3   OH253937   1.326   4.305  16.865 -0.3007  0.1064  0.4071
10841TIP3    H153938   1.392   4.313  16.934 -0.8678 -1.0743  1.1114
10841TIP3    H253939   1.250   4.268  16.909 -0.8606 -0.1527 -0.7460
10842TIP3   OH253940   4.252   3.956   5.173 -0.6447 -0.8457 -0.2312
10842TIP3    H153941   4.160   3.973   5.196 -0.5153 -0.6949  0.1863
10842TIP3    H253942   4.267   3.866   5.201 -1.4616 -1.8986 -2.8555
10843TIP3   OH253943   4.888   3.335  12.731  0.2547  0.0443 -0.0235
10843TIP3    H153944   4.833   3.256  12.727 -1.1751  1.0309 -2.4860
10843TIP3    H253945   4.879   3.367  12.820 -1.1809 -1.2190  0.3249
10844TIP3   OH253946   5.925   0.203  13.886  0.1163  0.1881  0.6535
10844TIP3    H153947   5.909   0.134  13.823  1.0503  0.3547  0.2133
10844TIP3    H253948   6.002   0.174  13.935 -1.3715 -0.5885  2.6874
10845TIP3   OH253949   6.356   4.729   3.655  0.5326 -0.2511  0.4316
10845TIP3    H153950   6.412   4.651   3.661  0.9659 -0.1168 -1.3893
10845TIP3    H253951   6.270   4.695   3.629  0.3784 -0.2246  0.8902
10846TIP3   OH253952   2.756   4.104  14.270  0.0140  0.2696 -0.2297
10846TIP3    H153953   2.711   4.173  14.317  1.1403  0.5572  0.4538
10846TIP3    H253954   2.802   4.055  14.337  0.4474 -0.2264 -0.8751
10847TIP3   OH253955   4.438   0.472  13.683 -0.2300 -0.1839  0.1126
10847TIP3    H153956   4.367   0.519  13.727 -0.1286  0.0854 -0.0111
10847TIP3    H253957   4.479   0.421  13.753 -0.4201 -0.1850  0.2228
10848TIP3   OH253958   2.629   2.706   1.384  0.1464  0.4202  0.5075
10848TIP3    H153959   2.608   2.627   1.335  0.4623  0.2012  0.7190
10848TIP3    H253960   2.576   2.700   1.464  0.0504  0.4989  0.4491
10849TIP3   OH253961   5.930   5.252   4.660  0.8107 -0.0518 -0.3178
10849TIP3    H153962   5.939   5.229   4.568  0.1984  0.4229 -0.5055
10849TIP3    H253963   5.849   5.211   4.687  0.4783  0.6324 -0.2620
10850TIP3   OH253964   3.699   4.773   0.155  0.0764  0.7599 -0.6011
10850TIP3    H153965   3.791   4.797   0.166  0.1061  0.7686 -0.8514
10850TIP3    H253966   3.657   4.799   0.236  0.8157 -1.7793  0.7028
10851TIP3   OH253967   4.378   0.485   3.326  0.0498 -0.4271  0.4838
10851TIP3    H153968   4.359   0.420   3.393 -1.0195 -1.2992 -0.6255
10851TIP3    H253969   4.312   0.471   3.259  1.9288 -0.5771 -1.4528
10852TIP3   OH253970   2.537   0.823  12.196 -0.2382  0.2416  0.1793
10852TIP3    H153971   2.618   0.838  12.245  1.0427  1.0894 -2.0546
10852TIP3    H253972   2.530   0.728  12.188  1.1693  0.1790 -0.5267
10853TIP3   OH253973   2.674   6.062  14.382  0.3066 -0.1662  0.0742
10853TIP3    H153974   2.763   6.031  14.397  0.4792  1.0193  1.7964
10853TIP3    H253975   2.677   6.155  14.402 -1.3709 -0.1296  0.3435
10854TIP3   OH253976   4.914   0.922  12.219 -0.7627 -0.2498  0.2812
10854TIP3    H153977   4.825   0.957  12.229 -0.3506  0.6109  1.1584
10854TIP3    H253978   4.928   0.869  12.298 -0.0034  0.7915  0.8778
10855TIP3   OH253979   4.224   0.533   1.347 -0.4700 -0.2384 -0.1235
10855TIP3    H153980   4.144   0.520   1.295 -0.9781  1.7620  0.0779
10855TIP3    H253981   4.277   0.593   1.294  0.0182  0.0131  0.6304
10856TIP3   OH253982   0.945   6.639   5.010  0.3230 -0.0686 -0.7981
10856TIP3    H153983   1.031   6.680   4.997  0.7260 -0.9713 -1.1052
10856TIP3    H253984   0.908   6.684   5.085  1.8667 -0.8850  0.5176
10857TIP3   OH253985   3.626   6.639   5.848 -0.0701 -0.6283  0.0614
10857TIP3    H153986   3.541   6.597   5.856 -0.3630  0.0581  0.6101
10857TIP3    H253987   3.609   6.731   5.864  0.9554 -0.6386  1.3347
10858TIP3   OH253988   2.084   5.556   4.609  0.1002  0.1541  0.3356
10858TIP3    H153989   2.086   5.623   4.677  0.7602 -2.2329  2.8226
10858TIP3    H253990   2.167   5.509   4.619 -0.9639 -1.9932 -0.2638
10859TIP3   OH253991   1.579   0.892   2.171 -0.0448 -0.1376  0.4570
10859TIP3    H153992   1.495   0.937   2.180  0.0428  0.2337 -0.5387
10859TIP3    H253993   1.614   0.922   2.088  0.3770 -1.4708  0.1316
10860TIP3   OH253994   6.351   1.488   5.403  0.7064  0.2439 -0.5800
10860TIP3    H153995   6.321   1.465   5.491 -0.4301  0.8523 -0.7888
10860TIP3    H253996   6.436   1.531   5.417  0.9493 -0.4548  0.1361
10861TIP3   OH253997   6.389   4.440  13.516  0.0838  0.3841 -0.5981
10861TIP3    H153998   6.313   4.494  13.537 -0.9232 -1.4273  0.6949
10861TIP3    H253999   6.457   4.467  13.578 -0.2115  0.5587 -0.3500
10862TIP3   OH254000   6.771   4.655  13.087 -0.1655 -0.1452  0.6139
10862TIP3    H154001   6.822   4.593  13.034  0.6468 -0.4194  1.6899
10862TIP3    H254002   6.713   4.698  13.023  0.3078 -0.9374 -0.3892
10863TIP3   OH254003   4.739   3.220  11.417  0.5158  0.3662  0.0387
10863TIP3    H154004   4.737   3.312  11.390 -1.0234  0.7848  1.4055
10863TIP3    H254005   4.673   3.177  11.363  0.9323  0.1442 -0.2990
10864TIP3   OH254006   2.817   2.482   3.800 -0.6105  0.3224  0.3354
10864TIP3    H154007   2.912   2.485   3.797 -0.5068 -1.7762  0.1932
10864TIP3    H254008   2.789   2.573   3.785  1.3293  0.8260 -0.4609
10865TIP3   OH254009   1.314   5.632  16.569  0.4537  0.5908 -0.2352
10865TIP3    H154010   1.344   5.653  16.480 -1.7372 -2.0256 -1.7368
10865TIP3    H254011   1.219   5.637  16.564  0.1766 -1.6458  1.3208
10866TIP3   OH254012   5.873   4.407   4.613 -0.6037 -0.2477 -0.0457
10866TIP3    H154013   5.855   4.314   4.627  0.9870 -0.7061 -0.8351
10866TIP3    H254014   5.894   4.441   4.700  0.1105 -0.9466  0.0700
10867TIP3   OH254015   4.529   5.213   5.263  0.0471 -0.7323  0.5202
10867TIP3    H154016   4.550   5.183   5.175 -0.1591  1.3486 -0.3002
10867TIP3    H254017   4.444   5.175   5.283 -0.6516  0.0574 -0.8537
10868TIP3   OH254018   2.782   2.919  14.926  0.6681 -0.1154  0.0956
10868TIP3    H154019   2.790   3.001  14.975  1.9623  0.7318 -1.4614
10868TIP3    H254020   2.866   2.875  14.939  0.7822 -0.1803 -0.7900
10869TIP3   OH254021   3.112   0.652   0.007 -0.4029  0.5675 -0.4126
10869TIP3    H154022   3.138   0.647   0.099  0.3285 -1.7721 -0.6915
10869TIP3    H254023   3.019   0.631   0.006 -0.0704 -0.9754 -0.3296
10870TIP3   OH254024   1.119   5.568   4.252  0.2176  0.3200  0.5668
10870TIP3    H154025   1.104   5.519   4.171  1.0645 -0.2274  0.7278
10870TIP3    H254026   1.154   5.652   4.224  1.8557 -0.3889  0.3985
10871TIP3   OH254027   2.583   5.593   3.565 -0.0817 -0.0397  0.0037
10871TIP3    H154028   2.626   5.538   3.499 -1.0410  0.6308 -1.2269
10871TIP3    H254029   2.505   5.545   3.589  0.5080 -0.5041  1.0312
10872TIP3   OH254030   5.094   5.816  16.547  0.5149 -0.4880  0.0616
10872TIP3    H154031   5.056   5.881  16.606  3.2454  0.1617  1.2499
10872TIP3    H254032   5.100   5.861  16.463 -1.7639 -0.8309 -0.3671
10873TIP3   OH254033   0.635   2.720  12.093 -0.0221 -0.1468  0.5539
10873TIP3    H154034   0.648   2.757  12.180 -1.7033 -0.5926  1.0248
10873TIP3    H254035   0.572   2.649  12.106 -1.6124  0.8405 -1.2408
10874TIP3   OH254036   1.895   5.217   4.196  0.0829 -0.2362 -0.0010
10874TIP3    H154037   1.970   5.208   4.138  0.6049 -0.2347  0.6562
10874TIP3    H254038   1.931   5.204   4.284 -0.8318 -1.1007  0.2746
10875TIP3   OH254039   5.723   0.038  14.859  1.0746 -0.3925 -0.4101
10875TIP3    H154040   5.710   0.043  14.764  2.2118  0.8730 -0.5266
10875TIP3    H254041   5.647   0.084  14.896 -0.5336 -2.7783 -0.5705
10876TIP3   OH254042   3.254   1.405  12.337  0.1622  0.5386 -0.5288
10876TIP3    H154043   3.295   1.331  12.382 -0.3459  0.2909 -0.4652
10876TIP3    H254044   3.179   1.366  12.292 -3.1472  1.7135  3.4239
10877TIP3   OH254045   1.270   0.246   0.563  0.0666 -0.0330  0.4359
10877TIP3    H154046   1.310   0.276   0.645 -1.4086 -1.3635  1.7186
10877TIP3    H254047   1.186   0.293   0.559  0.3869  0.4767 -0.6602
10878TIP3   OH254048   5.944   6.255  16.178  0.0800  0.3340  0.0256
10878TIP3    H154049   5.994   6.175  16.164 -0.8055 -0.3997  0.8599
10878TIP3    H254050   5.955   6.274  16.271  1.6406  2.1622 -0.4661
10879TIP3   OH254051   5.481   3.366   3.311  0.3707  0.5911 -0.6196
10879TIP3    H154052   5.404   3.311   3.320  0.3275  0.8737  1.1355
10879TIP3    H254053   5.524   3.336   3.231 -1.0798 -0.1592 -1.1317
10880TIP3   OH254054   3.617   5.801   1.607  0.3129  0.8224 -0.4936
10880TIP3    H154055   3.620   5.737   1.678  0.7023  0.7738 -0.5508
10880TIP3    H254056   3.599   5.885   1.650 -0.5650  0.6225 -0.4564
10881TIP3   OH254057   3.445   2.646  12.786 -0.2298  0.1079 -0.5576
10881TIP3    H154058   3.487   2.713  12.840  0.3754 -1.4081  0.9469
10881TIP3    H254059   3.353   2.671  12.784 -0.3490  0.0120  1.5603
10882TIP3   OH254060   6.746   5.740   1.561 -0.3213  0.1984 -0.0125
10882TIP3    H154061   6.670   5.765   1.508 -0.1432  0.5910 -0.0833
10882TIP3    H254062   6.804   5.695   1.500  1.0982  2.9346 -0.8394
10883TIP3   OH254063   3.042   5.440  15.601 -0.2764 -0.0390  0.0562
10883TIP3    H154064   3.115   5.466  15.545  0.0224  1.6487  1.1526
10883TIP3    H254065   3.067   5.354  15.635  1.0359  0.3646  0.1404
10884TIP3   OH254066   5.212   1.332   3.618 -0.1247  0.2801  0.0735
10884TIP3    H154067   5.291   1.291   3.583 -1.0477 -0.5875 -1.0476
10884TIP3    H254068   5.175   1.381   3.544 -1.0182  0.0975  0.3898
10885TIP3   OH254069   6.538   6.783  11.708 -0.2827 -0.6238  0.3099
10885TIP3    H154070   6.502   6.850  11.767  1.8059 -0.7267  1.8211
10885TIP3    H254071   6.462   6.748  11.662 -1.4992  2.4895 -0.2715
10886TIP3   OH254072   0.236   6.430   0.753  0.0090  0.1570  0.2605
10886TIP3    H154073   0.261   6.338   0.753 -0.6469 -0.0386 -0.9746
10886TIP3    H254074   0.184   6.441   0.673  0.4186  1.6895  0.1735
10887TIP3   OH254075   6.008   5.590   4.381  0.0414  0.4492  0.1268
10887TIP3    H154076   6.049   5.677   4.378 -0.0008  0.5044  0.8903
10887TIP3    H254077   6.026   5.559   4.470 -0.2102 -0.1979 -0.0451
10888TIP3   OH254078   1.512   1.302   0.026  0.6087 -0.2383 -0.2532
10888TIP3    H154079   1.596   1.338   0.054  1.3474 -2.2873  0.3202
10888TIP3    H254080   1.498   1.227   0.083 -1.9982  0.4610  0.1578
10889TIP3   OH254081   4.603   3.554   2.606  0.3753 -0.1877 -0.1654
10889TIP3    H154082   4.509   3.573   2.605  0.0214 -1.7669 -0.0369
10889TIP3    H254083   4.632   3.583   2.692  0.4683  2.1575 -0.9134
10890TIP3   OH254084   4.699   0.660  16.455  0.4892  0.2532 -0.4780
10890TIP3    H154085   4.631   0.629  16.515  1.2592 -2.1680 -0.7475
10890TIP3    H254086   4.778   0.662  16.509  0.8007 -0.0386 -0.9144
10891TIP3   OH254087   3.508   2.907  11.218  0.0752 -0.0785  0.2472
10891TIP3    H154088   3.516   2.994  11.178 -0.8035 -0.1546 -0.1168
10891TIP3    H254089   3.554   2.915  11.302 -0.5362  0.9341  0.5055
10892TIP3   OH254090   1.856   0.615  14.374 -0.1228 -0.5746  0.2203
10892TIP3    H154091   1.866   0.551  14.444 -1.4673 -0.5748  0.4274
10892TIP3    H254092   1.784   0.581  14.320  0.6467 -0.3937 -0.9592
10893TIP3   OH254093   5.970   1.050  15.096 -0.0770 -0.4494 -0.3810
10893TIP3    H154094   6.008   1.130  15.058 -0.4325  0.2451  0.6915
10893TIP3    H254095   6.017   0.979  15.052 -0.1692  0.3202 -1.7914
10894TIP3   OH254096   1.179   1.071   6.327  0.3455 -0.1665  0.3179
10894TIP3    H154097   1.235   1.098   6.254  1.2580 -3.2617 -0.3036
10894TIP3    H254098   1.232   1.084   6.405  0.6777  0.0226  0.0629
10895TIP3   OH254099   3.901   5.954   6.179 -0.1110  0.6399 -0.0382
10895TIP3    H154100   3.812   5.920   6.183  0.2612 -0.2822  0.8372
10895TIP3    H254101   3.914   5.977   6.087 -1.6587  1.9733  0.0300
10896TIP3   OH254102   3.931   0.291   5.454 -0.9706  0.0564  0.6420
10896TIP3    H154103   3.860   0.245   5.410 -0.8321  0.0282  0.4444
10896TIP3    H254104   3.966   0.350   5.387  0.1878 -1.0181  0.2468
10897TIP3   OH254105   1.263   4.201   4.069 -0.2092 -0.0621  0.4217
10897TIP3    H154106   1.315   4.226   4.145 -1.1329 -1.1485  1.4738
10897TIP3    H254107   1.235   4.283   4.030  1.6896  0.5305  0.2286
10898TIP3   OH254108   6.659   5.958   0.734 -0.6904 -0.0344 -0.3473
10898TIP3    H154109   6.665   5.985   0.642 -0.0319 -1.1526 -0.6417
10898TIP3    H254110   6.702   5.873   0.738 -0.2348  0.2257  1.1066
10899TIP3   OH254111   5.493   1.092  16.964 -0.1861 -0.1775  0.6943
10899TIP3    H154112   5.451   1.178  16.971  0.5326  0.4458 -1.7808
10899TIP3    H254113   5.535   1.080  17.050 -1.4933  1.2701  1.5996
10900TIP3   OH254114   5.090   5.887   1.812  0.0252  0.1246  0.1058
10900TIP3    H154115   5.166   5.877   1.754  0.9363  0.6953  1.1590
10900TIP3    H254116   5.027   5.823   1.779  0.3985  0.5875 -1.6566
10901TIP3   OH254117   5.600   0.241  14.277  0.1087  0.5084 -0.0010
10901TIP3    H154118   5.610   0.196  14.361 -1.9363 -0.3875 -0.1911
10901TIP3    H254119   5.551   0.320  14.297  0.9499  1.0840 -0.1521
10902TIP3   OH254120   4.769   0.969   0.103  0.9092 -0.0207 -0.4072
10902TIP3    H154121   4.759   1.042   0.164 -1.7959 -0.8816  0.3155
10902TIP3    H254122   4.700   0.983   0.038  1.0039 -1.3988 -0.8309
10903TIP3   OH254123   4.559   6.186  15.539 -0.3214 -0.3121 -0.7343
10903TIP3    H154124   4.617   6.111  15.549 -1.9328 -1.3840  1.2037
10903TIP3    H254125   4.527   6.204  15.627  0.3187  2.9695 -1.0373
10904TIP3   OH254126   2.989   5.067   4.523  0.4030 -0.0020 -0.5018
10904TIP3    H154127   2.922   5.032   4.463  1.6972  0.3851 -2.2618
10904TIP3    H254128   3.050   4.994   4.535 -0.5854 -0.5471  1.5766
10905TIP3   OH254129   3.135   6.688   3.261  0.1586 -0.2501  0.1372
10905TIP3    H154130   3.044   6.707   3.283 -0.2803 -0.5818 -1.2672
10905TIP3    H254131   3.160   6.618   3.321 -0.7981 -0.7482 -0.0264
10906TIP3   OH254132   3.931   4.038  14.867 -0.0222  0.2666 -0.1436
10906TIP3    H154133   3.957   3.991  14.788  2.3414 -0.8324  1.1559
10906TIP3    H254134   3.975   3.991  14.938 -0.7309  2.1570  1.6670
10907TIP3   OH254135   1.312   3.982  16.716 -0.0576 -0.3476  0.7600
10907TIP3    H154136   1.241   3.992  16.780 -0.1951  1.8630  0.3653
10907TIP3    H254137   1.269   3.987  16.631  0.4347 -0.2249  0.5114
10908TIP3   OH254138   4.438   5.854  16.105  0.2384 -0.2576 -0.2136
10908TIP3    H154139   4.406   5.876  16.193  2.0529 -1.8447  0.9212
10908TIP3    H254140   4.365   5.807  16.064 -0.8747  1.0712  0.1403
10909TIP3   OH254141   2.791   6.032   2.433 -0.4690  0.0793 -0.3231
10909TIP3    H154142   2.825   6.079   2.509 -0.5328 -1.1541  0.5002
10909TIP3    H254143   2.703   6.068   2.420 -0.1770  0.8223 -0.2949
10910TIP3   OH254144   2.365   5.196   1.130  0.1941  0.5726  0.6206
10910TIP3    H154145   2.457   5.221   1.142  0.5114 -0.9949  1.7092
10910TIP3    H254146   2.361   5.105   1.159 -1.6347  0.4934  0.2045
10911TIP3   OH254147   3.502   0.307   2.991  0.2167 -0.0468  0.8574
10911TIP3    H154148   3.467   0.240   2.931  0.3000  0.6123  0.0532
10911TIP3    H254149   3.471   0.390   2.954  0.6795  0.3998  1.4636
10912TIP3   OH254150   0.634   6.074  15.304 -0.1778  0.2621 -0.1596
10912TIP3    H154151   0.682   6.140  15.354  1.3630 -0.4542 -0.6290
10912TIP3    H254152   0.645   5.993  15.354  0.2195 -0.1807 -0.9614
10913TIP3   OH254153   3.293   6.587   5.425  0.2512 -0.2955  0.1863
10913TIP3    H154154   3.376   6.624   5.456  0.4556 -0.5359 -0.0681
10913TIP3    H254155   3.312   6.495   5.409 -0.3670 -0.6219  1.2362
10914TIP3   OH254156   3.294   5.786  12.714  0.5600  0.2082  0.3973
10914TIP3    H154157   3.312   5.752  12.802  1.4848 -0.3910 -0.0144
10914TIP3    H254158   3.242   5.866  12.730 -2.6317 -1.8517  1.3761
10915TIP3   OH254159   2.967   2.963   5.694 -0.4702  0.4876  0.3996
10915TIP3    H154160   2.933   3.027   5.758  1.2133  1.8843 -0.0341
10915TIP3    H254161   3.044   2.926   5.735  0.4206  1.1317 -0.6411
10916TIP3   OH254162   3.248   1.039   0.696  0.2658  0.2308  0.2690
10916TIP3    H154163   3.298   1.010   0.772  0.0581  0.5237  0.5198
10916TIP3    H254164   3.158   1.015   0.715  0.4013 -1.0259 -0.5389
10917TIP3   OH254165   1.071   3.883  13.387  0.1219  0.3538 -0.0803
10917TIP3    H154166   1.022   3.819  13.335  0.0353  1.1287 -0.9877
10917TIP3    H254167   1.007   3.919  13.447 -0.1402  0.5150 -0.4541
10918TIP3   OH254168   1.867   0.448  16.949  0.0354 -0.7663 -0.3046
10918TIP3    H154169   1.920   0.477  16.875  0.7542 -2.0706 -0.3288
10918TIP3    H254170   1.927   0.398  17.004 -0.4597  0.2380  1.2308
10919TIP3   OH254171   5.427   6.251   1.347  0.0315 -0.0559  0.3110
10919TIP3    H154172   5.430   6.175   1.405 -1.1909  1.6173  2.7402
10919TIP3    H254173   5.518   6.264   1.320  0.6261 -1.0532  1.6990
10920TIP3   OH254174   6.124   0.491  15.831  0.4630 -0.0156 -0.3601
10920TIP3    H154175   6.031   0.498  15.810  0.4492 -1.3179 -0.8675
10920TIP3    H254176   6.129   0.500  15.926 -0.1009  0.7301 -0.4004
10921TIP3   OH254177   0.511   6.296  14.456 -0.1748  0.2614 -0.0887
10921TIP3    H154178   0.562   6.215  14.456  1.5837  1.3038 -1.2705
10921TIP3    H254179   0.461   6.293  14.537 -0.0147 -1.9098 -0.0280
10922TIP3   OH254180   2.989   1.389   3.927 -0.5709  0.6291  0.4050
10922TIP3    H154181   2.925   1.318   3.930 -0.1871  0.3086  1.1839
10922TIP3    H254182   2.997   1.419   4.017  2.5818 -1.3626  0.9679
10923TIP3   OH254183   4.604   5.151   4.374 -0.2744  0.2242 -0.1106
10923TIP3    H154184   4.601   5.065   4.332  1.6268  0.2434 -0.3763
10923TIP3    H254185   4.697   5.170   4.383 -0.5734  0.7927  2.9757
10924TIP3   OH254186   0.706   3.441   2.678 -0.3966 -0.3146 -0.0969
10924TIP3    H154187   0.778   3.455   2.739 -1.0245  0.9983  0.3742
10924TIP3    H254188   0.715   3.511   2.614 -0.2747 -1.1537 -1.0255
10925TIP3   OH254189   5.292   6.714  10.904  0.1773  0.5036  0.0587
10925TIP3    H154190   5.311   6.635  10.854 -0.0113 -0.1767  1.0362
10925TIP3    H254191   5.329   6.785  10.851 -0.8486 -0.0636 -1.5084
10926TIP3   OH254192   5.608   0.703   3.989  0.0227  0.2431 -0.2411
10926TIP3    H154193   5.589   0.785   4.036  1.1015  1.0506 -1.1632
10926TIP3    H254194   5.567   0.714   3.903  1.9484  0.7442 -1.1479
10927TIP3   OH254195   2.442   3.655   3.170 -0.3237  0.1721 -0.5516
10927TIP3    H154196   2.351   3.685   3.163 -0.1856  0.2251 -2.7330
10927TIP3    H254197   2.438   3.561   3.148  0.0280 -0.0616  0.3473
10928TIP3   OH254198   0.669   5.468   4.572  0.0751  0.4178  0.4524
10928TIP3    H154199   0.627   5.527   4.509  1.0341  2.2822  1.4625
10928TIP3    H254200   0.761   5.469   4.547 -0.1927 -2.9776 -1.2360
10929TIP3   OH254201   0.569   6.458   1.328  0.0210 -0.1128 -0.0347
10929TIP3    H154202   0.647   6.410   1.302  0.0765 -0.0899  0.0865
10929TIP3    H254203   0.498   6.416   1.281  0.1170 -0.0816 -0.2097
10930TIP3   OH254204   6.324   4.064  13.902  0.1892  0.2667  0.2498
10930TIP3    H154205   6.247   4.107  13.865  1.5176  0.8786 -1.9638
10930TIP3    H254206   6.315   4.076  13.997 -2.6456 -0.1186  0.1160
10931TIP3   OH254207   1.144   6.282   2.643  0.8853 -0.2102  0.4615
10931TIP3    H154208   1.089   6.266   2.720 -0.1925  0.6337 -0.1046
10931TIP3    H254209   1.227   6.241   2.665  0.9418  0.8304  2.5137
10932TIP3   OH254210   1.282   2.533  16.609 -0.3763  0.0604 -0.1125
10932TIP3    H154211   1.216   2.491  16.665  1.1723 -0.6733  1.2535
10932TIP3    H254212   1.365   2.498  16.640  0.8866  2.8520 -0.0315
10933TIP3   OH254213   0.351   0.980   4.801 -0.8566  0.2350 -0.1344
10933TIP3    H154214   0.442   0.954   4.788 -1.3577 -1.8071  0.0736
10933TIP3    H254215   0.342   0.988   4.896 -0.8469  0.7426 -0.1691
10934TIP3   OH254216   6.104   3.214   1.220 -0.5329  0.0191 -0.1441
10934TIP3    H154217   6.156   3.294   1.212  0.8460 -0.9785 -2.1920
10934TIP3    H254218   6.064   3.203   1.133  0.4762 -2.1949 -0.4157
10935TIP3   OH254219   5.367   1.030  14.170  0.4229  0.2249  0.2693
10935TIP3    H154220   5.315   1.068  14.099 -0.7193 -0.6952  0.5912
10935TIP3    H254221   5.440   0.986  14.126  0.6110  1.0142 -0.2245
10936TIP3   OH254222   6.738   4.058  12.557 -0.0696  0.0834  0.7959
10936TIP3    H154223   6.722   4.125  12.622 -0.3094  1.5972 -0.7592
10936TIP3    H254224   6.661   4.001  12.561  0.0500 -0.0160  1.9880
10937TIP3   OH254225   1.836   3.521  12.350 -0.0696  0.3617  0.6678
10937TIP3    H154226   1.840   3.446  12.291 -0.0100  1.4281 -0.7353
10937TIP3    H254227   1.753   3.511  12.397  0.1367 -0.7896  0.8101
10938TIP3   OH254228   5.254   1.749  12.160 -0.2160 -0.4962  0.2298
10938TIP3    H154229   5.243   1.779  12.251  1.0672 -2.9300  1.2844
10938TIP3    H254230   5.286   1.827  12.113  1.6659  0.2282  2.4787
10939TIP3   OH254231   1.701   4.542   3.957  0.0753 -0.1775  0.2599
10939TIP3    H154232   1.795   4.521   3.959  0.7588  2.5536  0.2264
10939TIP3    H254233   1.658   4.459   3.981  2.5415 -1.1012  1.9274
10940TIP3   OH254234   2.108   2.996   5.792 -0.0011  0.2718 -0.4612
10940TIP3    H154235   2.028   2.958   5.828 -0.3554 -0.7148 -2.1698
10940TIP3    H254236   2.084   3.021   5.702  1.5857  0.0237 -0.9734
10941TIP3   OH254237   0.895   2.679  16.049 -0.2060  0.2362 -0.2321
10941TIP3    H154238   0.838   2.609  16.018  0.3563 -1.4945  2.3439
10941TIP3    H254239   0.984   2.646  16.037  0.1061  0.9138  0.1394
10942TIP3   OH254240   0.849   1.998   5.150  0.4195 -0.5961  0.4682
10942TIP3    H154241   0.920   2.008   5.086 -1.8634  1.0071 -2.0703
10942TIP3    H254242   0.887   2.026   5.233  2.5159  1.1433 -0.9513
10943TIP3   OH254243   0.761   4.894   0.851 -0.2165  0.0502  0.9211
10943TIP3    H154244   0.776   4.961   0.784 -1.1247 -0.3738  0.2602
10943TIP3    H254245   0.666   4.888   0.857 -0.1650  0.7428  2.9622
10944TIP3   OH254246   4.077   2.430  16.613 -0.6806 -0.6189 -0.1164
10944TIP3    H154247   4.040   2.504  16.565 -1.3532 -1.0400 -0.2788
10944TIP3    H254248   4.160   2.461  16.647 -1.2092  0.3747  0.2772
10945TIP3   OH254249   3.866   3.546  14.229 -0.0490 -0.2778 -0.3167
10945TIP3    H154250   3.838   3.564  14.139 -0.4951 -0.3862 -0.2032
10945TIP3    H254251   3.955   3.511  14.220 -0.3522 -0.9568 -0.7804
10946TIP3   OH254252   2.172   1.159  10.810 -0.3138 -0.5573  0.3937
10946TIP3    H154253   2.170   1.240  10.860 -1.1401  0.2687 -0.9288
10946TIP3    H254254   2.129   1.180  10.727 -1.5245 -2.6136  0.4186
10947TIP3   OH254255   1.413   2.843   0.536  0.0335 -0.5509  0.2649
10947TIP3    H154256   1.461   2.924   0.557 -0.0075 -0.5892  0.5089
10947TIP3    H254257   1.405   2.798   0.620 -2.1505  0.3727  0.6391
10948TIP3   OH254258   5.940   4.264  10.401  0.1407 -0.0859 -0.3518
10948TIP3    H154259   5.992   4.278  10.322  0.8853  0.2419  0.1862
10948TIP3    H254260   5.961   4.339  10.457  0.7421 -1.0493  0.7595
10949TIP3   OH254261   0.435   3.533   3.003  0.3663  0.0997  0.3369
10949TIP3    H154262   0.463   3.563   2.916 -0.6736  0.2878  0.0467
10949TIP3    H254263   0.408   3.612   3.048  0.6478 -0.0327  0.7407
10950TIP3   OH254264   1.817   1.008  14.457 -0.8182 -0.0251 -0.2898
10950TIP3    H154265   1.760   0.970  14.523 -0.5818  1.4126  0.7907
10950TIP3    H254266   1.888   0.944  14.447 -1.0604 -0.4313  0.5498
10951TIP3   OH254267   5.032   6.401  15.785  0.0868 -0.3060  0.0835
10951TIP3    H154268   4.943   6.365  15.787  0.1258 -0.4333 -0.3180
10951TIP3    H254269   5.088   6.326  15.766 -0.0142  0.2346 -2.7451
10952TIP3   OH254270   1.929   6.773  12.083  0.4597 -0.9591  0.1668
10952TIP3    H154271   2.019   6.792  12.109 -0.2510  0.0629  2.0153
10952TIP3    H254272   1.887   6.858  12.073 -0.6157 -1.4259  0.4911
10953TIP3   OH254273   6.389   6.056  14.682 -0.0975 -0.3156  0.2992
10953TIP3    H154274   6.471   6.011  14.700  0.0918 -0.4434 -0.7676
10953TIP3    H254275   6.402   6.146  14.711  0.9160  0.0112 -1.0777
10954TIP3   OH254276   6.075   3.478   0.441 -0.4890  0.3048  0.6153
10954TIP3    H154277   5.996   3.508   0.394  0.7445 -0.7896 -2.3816
10954TIP3    H254278   6.144   3.537   0.411  0.2977 -0.1604  1.4624
10955TIP3   OH254279   1.513   1.654  17.044  0.1634 -0.3078 -0.8983
10955TIP3    H154280   1.510   1.728  16.984  1.0578 -0.7854 -1.5664
10955TIP3    H254281   1.464   1.585  16.999 -1.6068  0.1652  0.1952
10956TIP3   OH254282   3.843   3.335  16.807 -0.6563  0.1308  0.1281
10956TIP3    H154283   3.794   3.287  16.740 -0.1685 -1.2767  0.7500
10956TIP3    H254284   3.801   3.421  16.811 -0.2279  0.5539 -2.5157
10957TIP3   OH254285   4.176   1.303   2.238  0.3339  0.7824 -0.2000
10957TIP3    H154286   4.134   1.218   2.228 -0.2947  1.1950 -1.2903
10957TIP3    H254287   4.217   1.300   2.324  0.9417 -0.8793 -0.5258
10958TIP3   OH254288   4.076   5.761   0.691 -0.2605 -0.0367  0.0480
10958TIP3    H154289   4.118   5.844   0.670 -0.4687  0.3688  1.2027
10958TIP3    H254290   4.141   5.714   0.744  1.1654 -1.9804 -3.1020
10959TIP3   OH254291   2.465   4.773  15.866  0.2364  0.3465  0.6628
10959TIP3    H154292   2.496   4.703  15.923  1.6271  0.1391 -0.3033
10959TIP3    H254293   2.412   4.829  15.923  1.1182 -0.1525  2.0058
10960TIP3   OH254294   4.676   5.878   2.837  0.3604  0.3400  0.1018
10960TIP3    H154295   4.747   5.816   2.853 -0.7924 -1.1299 -0.3648
10960TIP3    H254296   4.621   5.872   2.915 -0.2520  0.0742 -0.3443
10961TIP3   OH254297   2.405   5.232  15.113 -0.3263 -0.7263  0.2196
10961TIP3    H154298   2.381   5.164  15.176 -0.3296 -0.6850  0.2638
10961TIP3    H254299   2.388   5.193  15.027 -0.4434 -0.7372  0.2479
10962TIP3   OH254300   0.774   4.341  16.955  0.1197 -0.7276  0.2736
10962TIP3    H154301   0.771   4.270  17.018  1.2897 -0.8922  0.1672
10962TIP3    H254302   0.713   4.406  16.989  1.8046 -0.1520  2.4379
10963TIP3   OH254303   1.745   6.223  13.526  0.3395  0.1655 -0.2391
10963TIP3    H154304   1.726   6.241  13.618  0.4388  0.0054 -0.1864
10963TIP3    H254305   1.782   6.134  13.526 -0.6658 -0.2635 -0.5611
10964TIP3   OH254306   4.211   3.195  11.888 -0.3305  0.3328 -0.3512
10964TIP3    H154307   4.261   3.247  11.951 -2.6085  2.0836  0.1121
10964TIP3    H254308   4.169   3.127  11.941  1.7497 -1.4251 -0.8025
10965TIP3   OH254309   6.046   1.438   0.473 -0.5333 -0.4083 -0.3033
10965TIP3    H154310   6.104   1.447   0.548  0.5340  3.0776 -1.3639
10965TIP3    H254311   5.960   1.422   0.511  0.0362  0.8913  1.6698
10966TIP3   OH254312   0.512   1.134   5.636  0.0097 -0.0860  0.1773
10966TIP3    H154313   0.419   1.121   5.620  0.0983  1.1131 -1.7104
10966TIP3    H254314   0.553   1.119   5.550  1.4825  0.0441  0.8222
10967TIP3   OH254315   0.007   4.914   5.226 -0.3680 -0.4579 -1.2443
10967TIP3    H154316   0.026   4.928   5.133 -0.5547 -0.0367 -1.2189
10967TIP3    H254317  -0.088   4.920   5.233 -0.3970 -0.9876 -1.1038
10968TIP3   OH254318   3.992   2.089   2.495  0.3198 -0.3517 -0.6230
10968TIP3    H154319   3.933   2.038   2.439  0.5886  0.1257 -1.3488
10968TIP3    H254320   4.033   2.152   2.436  2.1256 -1.1548 -0.2654
10969TIP3   OH254321   2.425   0.983  14.350 -0.0497  0.2210  0.3663
10969TIP3    H154322   2.481   0.962  14.275  1.7776  0.0344  1.7134
10969TIP3    H254323   2.410   1.077  14.342 -0.4521  0.0980 -0.5689
10970TIP3   OH254324   5.997   6.502  13.515  0.1528  0.1641 -0.4889
10970TIP3    H154325   6.038   6.584  13.542 -0.6546 -0.1416  1.9601
10970TIP3    H254326   5.989   6.452  13.596 -0.7702 -1.7108 -1.6671
10971TIP3   OH254327   2.261   3.183   4.403  0.6742 -0.2759 -0.2200
10971TIP3    H154328   2.208   3.103   4.400 -0.8677  0.5928  1.6813
10971TIP3    H254329   2.208   3.248   4.356  1.3360 -0.0410 -0.6545
10972TIP3   OH254330   5.609   3.080   2.496  0.3864 -0.1943 -0.9101
10972TIP3    H154331   5.546   3.033   2.551  1.3871 -0.9514 -0.3709
10972TIP3    H254332   5.665   3.011   2.460  1.9969  0.5597  0.0230
10973TIP3   OH254333   1.140   3.648  14.933  0.7305 -0.4230 -0.1722
10973TIP3    H154334   1.220   3.687  14.898 -0.3625  0.8029 -1.4181
10973TIP3    H254335   1.136   3.560  14.894  1.1502 -0.2538 -0.5896
10974TIP3   OH254336   4.246   4.511  11.983 -0.1790 -0.6660  0.6687
10974TIP3    H154337   4.189   4.521  12.059  0.7762  0.3578  1.2914
10974TIP3    H254338   4.311   4.581  11.993  0.3304 -0.8992 -0.7712
10975TIP3   OH254339   0.388   5.449  14.945  0.0694 -0.0121 -0.1991
10975TIP3    H154340   0.416   5.538  14.923  1.1323 -0.5692 -1.1757
10975TIP3    H254341   0.415   5.438  15.036  2.0993 -0.1399 -0.7771
10976TIP3   OH254342   3.551   0.089   2.798  0.1707  0.4707  0.0461
10976TIP3    H154343   3.610   0.022   2.765 -1.4535 -0.7135 -0.5958
10976TIP3    H254344   3.504   0.120   2.720  0.1556  1.6139  0.4909
10977TIP3   OH254345   2.165   0.165   5.214  0.1589 -0.0916 -0.1177
10977TIP3    H154346   2.095   0.163   5.149  1.9239 -0.0150 -2.1758
10977TIP3    H254347   2.128   0.209   5.290 -2.2612 -0.8932 -0.7512
10978TIP3   OH254348   5.893   4.960   1.350  0.5767 -0.1372  0.3583
10978TIP3    H154349   5.857   5.034   1.301  0.2737  0.5103  1.5074
10978TIP3    H254350   5.817   4.923   1.396  0.8321 -0.7951  0.2712
10979TIP3   OH254351   5.366   5.383   1.798 -0.1156  0.0182 -0.2629
10979TIP3    H154352   5.403   5.296   1.784 -1.4250 -0.5959 -0.1189
10979TIP3    H254353   5.401   5.412   1.881  0.6325 -0.2042 -0.4954
10980TIP3   OH254354   0.047   0.173   3.867  0.0647  0.2363  0.1306
10980TIP3    H154355   0.007   0.259   3.854 -0.7257 -0.0343  0.7258
10980TIP3    H254356  -0.023   0.111   3.846  0.4058 -0.2559  0.4344
10981TIP3   OH254357   5.606   6.570   0.449  0.3060  0.0084 -0.0080
10981TIP3    H154358   5.538   6.633   0.471 -0.0263 -0.6635  0.9573
10981TIP3    H254359   5.559   6.488   0.432  0.8337 -0.3635  0.2644
10982TIP3   OH254360   3.281   3.492  12.357  0.0954 -0.4495  0.7297
10982TIP3    H154361   3.198   3.475  12.310  0.5691 -2.2948  0.4803
10982TIP3    H254362   3.335   3.538  12.292 -0.4969  0.2412  0.6987
10983TIP3   OH254363   3.910   3.382   2.170 -0.5798 -0.1140 -0.2151
10983TIP3    H154364   3.827   3.412   2.133 -1.3251 -0.3014  1.2329
10983TIP3    H254365   3.976   3.411   2.107 -1.6603  0.7663 -0.9851
10984TIP3   OH254366   6.799   5.204  13.455  0.2557  0.2736 -0.1710
10984TIP3    H154367   6.807   5.281  13.398  1.6628 -0.1105 -0.5433
10984TIP3    H254368   6.731   5.227  13.518  0.3018  1.6237 -0.5898
10985TIP3   OH254369   2.608   0.188   3.831  0.1671  0.3443  0.2673
10985TIP3    H154370   2.539   0.243   3.795 -0.8119 -0.5666  0.7078
10985TIP3    H254371   2.665   0.249   3.878 -0.5844  1.0499  0.2871
10986TIP3   OH254372   6.492   5.494  13.524  0.0948  0.1260 -0.5239
10986TIP3    H154373   6.511   5.413  13.572 -1.6290  0.7191  1.2630
10986TIP3    H254374   6.576   5.539  13.520  1.7286 -2.6847 -3.6924
10987TIP3   OH254375   2.461   6.554  15.269  0.0330  0.7906  0.2382
10987TIP3    H154376   2.489   6.644  15.249  1.7720  1.1476  3.5596
10987TIP3    H254377   2.540   6.502  15.256 -0.7691 -0.1779 -0.9053
10988TIP3   OH254378   0.520   5.345  14.117 -0.1696  0.8209  0.0503
10988TIP3    H154379   0.501   5.439  14.121  1.6054  1.3019 -1.3913
10988TIP3    H254380   0.447   5.308  14.067 -0.3169  1.6129 -0.3396
10989TIP3   OH254381   1.960   3.679   6.817  0.1084 -0.5011  0.2011
10989TIP3    H154382   1.866   3.696   6.822 -0.1514 -1.3710 -1.1629
10989TIP3    H254383   1.988   3.671   6.908 -0.8290  1.2765  0.6945
10990TIP3   OH254384   2.193   4.050  13.883  0.3158 -0.6840  0.2673
10990TIP3    H154385   2.258   4.031  13.816  0.3236  0.3942 -0.0515
10990TIP3    H254386   2.196   3.975  13.942  0.9380 -1.2295 -0.4496
10991TIP3   OH254387   3.803   4.755  13.267 -0.2447  0.7086 -0.2912
10991TIP3    H154388   3.713   4.752  13.234 -0.2768 -0.8029 -0.1276
10991TIP3    H254389   3.797   4.803  13.350 -0.3378  3.5385 -1.8156
10992TIP3   OH254390   0.945   4.038   1.924  0.1081 -0.4626  0.2109
10992TIP3    H154391   0.884   4.023   1.853  0.6926  0.1487 -0.4351
10992TIP3    H254392   0.889   4.058   2.000 -0.5168  1.6153 -0.7123
10993TIP3   OH254393   2.298   6.240  15.825  0.5519  0.3035  0.1718
10993TIP3    H154394   2.323   6.287  15.904  1.1861  0.8280 -0.3293
10993TIP3    H254395   2.381   6.217  15.782  0.2834 -1.5512  0.5388
10994TIP3   OH254396   6.655   1.288  11.616  0.0507  0.0334 -0.0696
10994TIP3    H154397   6.583   1.226  11.606  0.3880 -0.6127  1.1695
10994TIP3    H254398   6.727   1.250  11.565 -0.0630 -0.0636 -0.1566
10995TIP3   OH254399   2.375   0.212   1.320  0.0621 -0.1542  0.8724
10995TIP3    H154400   2.412   0.214   1.408  0.3718 -0.4078  0.7542
10995TIP3    H254401   2.449   0.235   1.263 -0.6640  2.3298  0.8229
10996TIP3   OH254402   1.448   0.133  10.982  0.3649  0.3095  0.1375
10996TIP3    H154403   1.515   0.100  10.922  3.0205  1.5997  2.2084
10996TIP3    H254404   1.411   0.209  10.936  1.0768  0.2089 -0.6412
10997TIP3   OH254405   0.395   1.915   4.433 -0.1705  0.0096 -0.0463
10997TIP3    H154406   0.425   1.824   4.445  0.0490  0.1921  0.8320
10997TIP3    H254407   0.475   1.964   4.416 -0.0740  0.3238  1.2459
10998TIP3   OH254408   2.540   6.786  16.128 -0.4568 -0.7479 -0.1181
10998TIP3    H154409   2.608   6.726  16.160  0.1724  0.4240  0.8092
10998TIP3    H254410   2.517   6.752  16.041  0.9640 -1.4561 -0.2468
10999TIP3   OH254411   0.478   1.517   2.297  0.1053 -0.3989  0.5823
10999TIP3    H154412   0.509   1.427   2.296  0.7792 -0.1873  1.2389
10999TIP3    H254413   0.424   1.525   2.218  0.7085 -1.1365  0.0807
11000TIP3   OH254414   2.906   4.516   2.661  0.2879  0.1087  0.5272
11000TIP3    H154415   2.991   4.482   2.688  1.5697  2.9421  0.4276
11000TIP3    H254416   2.876   4.454   2.594  2.6917 -0.5230 -0.0823
11001TIP3   OH254417   3.912   0.728  15.968  0.0591  0.0770  0.0907
11001TIP3    H154418   3.928   0.783  15.892 -0.6629 -0.4095 -0.4279
11001TIP3    H254419   3.893   0.641  15.932 -1.5860  0.1315  0.7299
11002TIP3   OH254420   5.361   4.655   3.877  0.4543  0.1756  0.2010
11002TIP3    H154421   5.324   4.641   3.964 -0.4316  3.1967  0.4343
11002TIP3    H254422   5.455   4.645   3.889  0.1687 -2.8959  0.6508
11003TIP3   OH254423   1.234   3.008  15.446  0.2312 -0.6195 -0.1396
11003TIP3    H154424   1.146   3.028  15.415  0.0047  0.1690  0.9469
11003TIP3    H254425   1.226   3.005  15.541  0.5515 -4.5431 -0.0570
11004TIP3   OH254426   2.573   4.563  16.035  0.2370  0.5742 -0.2125
11004TIP3    H154427   2.516   4.520  16.099 -1.9183  0.2821 -2.1933
11004TIP3    H254428   2.628   4.493  16.001  0.8780  0.5920  0.7381
11005TIP3   OH254429   2.056   3.195   6.182 -0.5816 -0.1288  0.1841
11005TIP3    H154430   2.070   3.102   6.165  0.4243  0.3404 -1.8387
11005TIP3    H254431   1.961   3.204   6.187 -0.7322 -1.1386 -0.4660
11006TIP3   OH254432   0.187   5.051  16.069 -1.2407 -0.2552  0.1656
11006TIP3    H154433   0.251   4.999  16.120  0.4485  1.5543 -0.0065
11006TIP3    H254434   0.220   5.049  15.980 -2.0189 -0.1391 -0.1326
11007TIP3   OH254435   0.093   2.825   0.703 -0.0278  0.3846  1.0486
11007TIP3    H154436   0.015   2.862   0.661  0.6624 -1.1174 -1.7712
11007TIP3    H254437   0.067   2.737   0.730  0.6895 -0.1631  0.0004
11008TIP3   OH254438   0.751   6.307   3.132 -0.2902  0.2262 -0.1400
11008TIP3    H154439   0.721   6.356   3.056  1.3441  0.4624 -0.6803
11008TIP3    H254440   0.841   6.283   3.110  0.4019  0.7467  1.9330
11009TIP3   OH254441   1.352   2.935  13.375  0.5613  0.2392  0.4742
11009TIP3    H154442   1.342   2.845  13.405 -1.4030  0.8046  1.7068
11009TIP3    H254443   1.415   2.974  13.435 -0.9295  0.4890  1.9339
11010TIP3   OH254444   3.453   4.300   0.384 -0.1786  0.3207  0.1749
11010TIP3    H154445   3.535   4.334   0.350 -1.2548  1.6105 -1.2922
11010TIP3    H254446   3.402   4.378   0.406 -0.3245 -0.4636  2.8993
11011TIP3   OH254447   0.870   1.690  15.123  0.3358 -0.3890 -0.2269
11011TIP3    H154448   0.903   1.628  15.189  1.5841  0.7183  0.2231
11011TIP3    H254449   0.945   1.707  15.067  0.3416  1.5178  0.2929
11012TIP3   OH254450   2.744   1.338   1.588 -0.2689  0.1557  0.3268
11012TIP3    H154451   2.696   1.367   1.510 -1.7318  5.1645  2.6607
11012TIP3    H254452   2.809   1.407   1.602  2.9360 -2.7728  1.3720
11013TIP3   OH254453   0.099   3.369  14.340 -0.4221 -0.3087  0.1745
11013TIP3    H154454   0.080   3.449  14.291  0.2602  1.0307  1.9965
11013TIP3    H254455   0.024   3.358  14.399 -0.1622 -0.5691  0.4631
11014TIP3   OH254456   5.990   5.453   3.469  0.6390 -0.4169  0.6558
11014TIP3    H154457   5.977   5.359   3.453  0.5232 -0.1048 -1.4445
11014TIP3    H254458   5.902   5.490   3.466  0.8496  0.0333 -0.9021
11015TIP3   OH254459   4.320   2.011  12.199 -0.1545 -0.9383  0.2680
11015TIP3    H154460   4.414   2.025  12.207 -0.1218 -0.3721 -0.9067
11015TIP3    H254461   4.311   1.916  12.189  0.3399 -0.9413 -0.1811
11016TIP3   OH254462   4.239   6.484  14.326 -0.1243 -0.3692 -0.3080
11016TIP3    H154463   4.147   6.508  14.332  0.0102  0.8016 -2.2878
11016TIP3    H254464   4.275   6.541  14.258  2.2046 -0.4086  0.7845
11017TIP3   OH254465   0.247   6.542  16.466 -0.4361 -0.1148 -0.3522
11017TIP3    H154466   0.211   6.504  16.546 -1.2607 -0.8218 -1.0377
11017TIP3    H254467   0.302   6.473  16.429  1.5391  0.8773  0.5738
11018TIP3   OH254468   4.095   1.379  11.940  0.3546  0.5788  0.1241
11018TIP3    H154469   4.179   1.413  11.908  0.1009  0.9401 -0.1606
11018TIP3    H254470   4.104   1.284  11.933  0.5982  0.6265 -0.2725
11019TIP3   OH254471   1.993   4.997  15.347 -0.5142  0.0851  0.1780
11019TIP3    H154472   1.926   4.930  15.336  0.7682 -1.1680 -0.2704
11019TIP3    H254473   2.071   4.949  15.374  0.4597  1.3898 -0.2132
11020TIP3   OH254474   0.683   3.883  11.976  0.4130 -0.1577  0.1497
11020TIP3    H154475   0.646   3.971  11.979  0.5837 -0.0965  0.5684
11020TIP3    H254476   0.777   3.896  11.991  0.6150 -0.3087 -0.9233
11021TIP3   OH254477   1.185   2.813  11.404 -0.2179 -0.5187 -0.7868
11021TIP3    H154478   1.175   2.844  11.494 -0.5518 -0.5283 -0.8196
11021TIP3    H254479   1.180   2.892  11.350 -0.2038 -0.5349 -0.8122
11022TIP3   OH254480   2.695   0.251  10.743 -0.3692 -0.2640 -0.0710
11022TIP3    H154481   2.675   0.312  10.815  0.2445  0.0799 -0.1867
11022TIP3    H254482   2.789   0.262  10.728 -0.1594 -1.5810  0.2077
11023TIP3   OH254483   3.007   2.077   2.312 -0.4209 -0.4189  0.2960
11023TIP3    H154484   2.920   2.045   2.287 -1.6554  1.5887  1.7381
11023TIP3    H254485   3.038   2.013   2.377 -1.7907 -0.0575  1.3611
11024TIP3   OH254486   2.792   2.538  11.159  0.3181  0.6096  0.0765
11024TIP3    H154487   2.742   2.586  11.094 -0.1182 -0.5979 -0.5092
11024TIP3    H254488   2.774   2.583  11.242 -0.2909  1.2731 -0.4051
11025TIP3   OH254489   3.234   2.146   2.951 -0.2671 -0.2026 -0.0871
11025TIP3    H154490   3.178   2.169   2.876 -0.3422 -0.6239 -0.1639
11025TIP3    H254491   3.172   2.123   3.020 -0.2177  0.8355  0.3344
11026TIP3   OH254492   5.655   2.355  15.210  0.2621 -0.3404 -0.1863
11026TIP3    H154493   5.686   2.406  15.285 -1.5201  0.8321 -0.1807
11026TIP3    H254494   5.720   2.286  15.199  1.8500  0.8902  0.9206
11027TIP3   OH254495   4.351   6.222   2.295 -0.1408 -0.4731 -1.1163
11027TIP3    H154496   4.344   6.137   2.336  0.2739  0.4321  0.9332
11027TIP3    H254497   4.286   6.277   2.339  1.1866  0.8670 -0.7197
11028TIP3   OH254498   2.687   1.672   4.871 -0.0372  0.4055  0.4489
11028TIP3    H154499   2.703   1.671   4.777  2.1523 -0.9444  0.7663
11028TIP3    H254500   2.601   1.714   4.881 -0.5314  0.1528 -2.1540
11029TIP3   OH254501   1.371   6.117   5.836  0.2719 -0.2322  0.2408
11029TIP3    H154502   1.333   6.089   5.753  0.8731 -1.8123  0.4831
11029TIP3    H254503   1.325   6.066   5.903  1.5233 -0.8149  0.6828
11030TIP3   OH254504   3.636   5.050  13.996 -0.3100  0.1014 -0.7833
11030TIP3    H154505   3.594   5.126  14.036 -0.5261  0.3088 -1.4037
11030TIP3    H254506   3.591   4.975  14.034  0.0059  0.2687 -0.0515
11031TIP3   OH254507   5.141   5.054  12.813 -0.3694  0.1596  0.3932
11031TIP3    H154508   5.233   5.075  12.830 -0.2076 -0.7563  0.7083
11031TIP3    H254509   5.098   5.061  12.898 -0.1908 -1.3045  0.6331
11032TIP3   OH254510   1.757   1.097  14.203 -0.6031 -0.1496 -0.7165
11032TIP3    H154511   1.802   1.044  14.138  1.5756 -0.6607  1.0758
11032TIP3    H254512   1.792   1.066  14.287  0.7633  3.9706  0.4812
11033TIP3   OH254513   0.589   2.060   3.620 -0.0084 -0.3688 -0.0861
11033TIP3    H154514   0.611   2.101   3.704 -0.1164 -0.3115 -0.0846
11033TIP3    H254515   0.560   1.972   3.643 -2.4631  0.4409  0.2120
11034TIP3   OH254516   6.136   3.817  16.989 -0.7990  0.1335 -0.3555
11034TIP3    H154517   6.056   3.771  16.964 -0.8519  0.0944 -0.1190
11034TIP3    H254518   6.190   3.750  17.032 -0.8296  0.2651 -0.1117
11035TIP3   OH254519   0.814   0.587   5.209 -0.7814 -0.4084 -0.0421
11035TIP3    H154520   0.770   0.589   5.124  0.1441  0.5752 -0.5358
11035TIP3    H254521   0.906   0.604   5.188 -0.6558  0.6096  1.2274
11036TIP3   OH254522   4.047   2.433  11.172  0.5474 -0.0987  0.2836
11036TIP3    H154523   3.970   2.382  11.145  1.0667 -1.0697  0.5906
11036TIP3    H254524   4.058   2.498  11.103  0.8239 -1.4348 -0.9719
11037TIP3   OH254525   1.025   2.195  14.210 -0.0354 -0.3208 -0.5438
11037TIP3    H154526   1.110   2.239  14.218 -1.2539  2.0657  0.2718
11037TIP3    H254527   0.968   2.242  14.272 -1.6008 -2.8037  0.0425
11038TIP3   OH254528   5.672   4.134   1.387  0.0702  0.0006  0.3147
11038TIP3    H154529   5.734   4.206   1.389 -0.4967  0.7061 -2.7920
11038TIP3    H254530   5.698   4.078   1.461  3.5510  0.8850 -0.0611
11039TIP3   OH254531   5.814   4.271  15.825 -0.0485 -0.2804 -0.3126
11039TIP3    H154532   5.910   4.272  15.824 -0.0485  0.6295 -0.9795
11039TIP3    H254533   5.790   4.351  15.871 -0.4656  0.4578 -1.7442
11040TIP3   OH254534   6.739   3.130   0.485  0.0993  0.0718  0.6953
11040TIP3    H154535   6.691   3.077   0.421  1.6980 -0.3543 -0.2028
11040TIP3    H254536   6.696   3.112   0.568 -0.5194 -1.2422  0.1181
11041TIP3   OH254537   1.887   3.994  13.208  0.2625 -0.3148 -0.1504
11041TIP3    H154538   1.976   3.986  13.172  0.5334  1.2487  0.0922
11041TIP3    H254539   1.897   4.049  13.285 -0.9467  0.0491 -0.2257
11042TIP3   OH254540   3.745   4.973   5.937 -0.5279 -0.0891  1.1254
11042TIP3    H154541   3.664   5.015   5.965 -1.5371 -1.0569 -0.2326
11042TIP3    H254542   3.779   4.932   6.016 -0.8552  1.1030  1.9150
11043TIP3   OH254543   1.017   4.869  14.387  0.1150  0.4025  0.1276
11043TIP3    H154544   1.042   4.796  14.443  1.8987  1.4115  0.7300
11043TIP3    H254545   0.991   4.938  14.447 -2.5790  0.0263 -0.4508
11044TIP3   OH254546   4.508   3.836  15.394 -0.4838  0.4224 -0.0350
11044TIP3    H154547   4.523   3.902  15.463  0.6269 -0.1895  0.3335
11044TIP3    H254548   4.565   3.864  15.322  0.6654 -0.5937  0.4519
11045TIP3   OH254549   5.138   0.621   5.305  0.2981  0.0578 -0.3521
11045TIP3    H154550   5.192   0.560   5.355 -0.8845 -1.0265 -0.3445
11045TIP3    H254551   5.179   0.623   5.218  0.7659 -0.1730 -0.1428
11046TIP3   OH254552   2.371   1.218  13.341  0.2243  0.2238 -0.2240
11046TIP3    H154553   2.416   1.253  13.264 -0.4069  2.1253  0.2115
11046TIP3    H254554   2.432   1.233  13.413  0.1930 -0.1336 -0.1226
11047TIP3   OH254555   0.147   6.614   1.532  0.2232 -0.0059  0.6762
11047TIP3    H154556   0.088   6.679   1.494  0.8763  1.3492  1.8804
11047TIP3    H254557   0.114   6.600   1.620  1.5123  0.5455  1.2663
11048TIP3   OH254558   3.502   2.486   0.678  0.4566  0.5473 -0.1889
11048TIP3    H154559   3.460   2.414   0.630  1.1074  0.9773 -1.4261
11048TIP3    H254560   3.560   2.442   0.740 -0.1803 -0.0106  0.0339
11049TIP3   OH254561   5.991   6.348   0.096  0.0177 -0.2622 -0.0383
11049TIP3    H154562   6.046   6.274   0.071  2.4932  1.4176  0.0026
11049TIP3    H254563   5.985   6.342   0.192 -0.9903 -1.1555 -0.1447
11050TIP3   OH254564   1.782   0.202  12.085  0.7564 -0.1615 -0.2183
11050TIP3    H154565   1.688   0.211  12.103  0.7736  1.4674 -0.7446
11050TIP3    H254566   1.790   0.221  11.991  1.8832  2.5786  0.3369
11051TIP3   OH254567   1.450   2.122   5.249  0.9042  0.2401 -0.3285
11051TIP3    H154568   1.526   2.075   5.214  0.6361  0.3401 -1.0693
11051TIP3    H254569   1.382   2.111   5.182 -0.5830 -1.9933  1.3806
11052TIP3   OH254570   6.351   3.422   6.160 -0.1820  0.1408 -0.4971
11052TIP3    H154571   6.265   3.382   6.146  0.9566 -2.1689 -1.4938
11052TIP3    H254572   6.339   3.513   6.134 -2.1950 -0.2479 -1.1527
11053TIP3   OH254573   5.261   5.634  16.838 -0.5569  0.0426 -0.7863
11053TIP3    H154574   5.260   5.681  16.754 -2.8822 -0.9458 -1.3925
11053TIP3    H254575   5.253   5.542  16.815  2.2361 -0.6311  0.4672
11054TIP3   OH254576   3.495   2.190  14.652  0.2306 -0.1638  0.3709
11054TIP3    H154577   3.503   2.202  14.747  1.0269  0.3885  0.2464
11054TIP3    H254578   3.404   2.211  14.633 -0.3498 -1.7962  1.2183
11055TIP3   OH254579   3.489   1.170   0.521  0.7277  0.5271  0.0820
11055TIP3    H154580   3.535   1.161   0.438  0.0969 -1.2293 -0.1143
11055TIP3    H254581   3.515   1.093   0.572 -1.6702 -0.4072  0.0671
11056TIP3   OH254582   4.355   3.626   0.108 -0.4422  0.0024  0.2715
11056TIP3    H154583   4.426   3.646   0.169 -0.8655  2.2284  0.1102
11056TIP3    H254584   4.307   3.555   0.149 -1.1488  1.9083  2.9568
11057TIP3   OH254585   5.393   5.436   4.586  0.0313  0.6433 -0.2559
11057TIP3    H154586   5.402   5.395   4.672 -1.5187 -0.9082 -0.7657
11057TIP3    H254587   5.449   5.513   4.590 -0.4749  0.9679  2.3401
11058TIP3   OH254588   0.625   0.725   3.912  0.7261  0.1496  0.2096
11058TIP3    H154589   0.562   0.762   3.974  2.1798  1.4765  0.9750
11058TIP3    H254590   0.662   0.649   3.957  0.3068 -0.1115  0.1157
11059TIP3   OH254591   3.027   4.180  13.166 -0.0801 -0.0779 -0.1660
11059TIP3    H154592   2.957   4.115  13.155  0.2096 -0.5212  0.5288
11059TIP3    H254593   2.999   4.254  13.112 -1.2420 -0.1186  0.3358
11060TIP3   OH254594   3.264   4.761   3.765 -0.0869  0.7038  0.0421
11060TIP3    H154595   3.333   4.785   3.827 -0.1452 -0.0073  0.3901
11060TIP3    H254596   3.296   4.681   3.723 -1.6726 -1.0066  1.8657
11061TIP3   OH254597   4.921   2.264   4.857 -0.1021  0.1064  0.4008
11061TIP3    H154598   4.964   2.343   4.825  0.5832 -0.0716  0.8611
11061TIP3    H254599   4.917   2.206   4.781 -1.7884  1.0492 -0.2909
11062TIP3   OH254600   1.852   0.968   5.349  0.5672  0.0780 -0.1484
11062TIP3    H154601   1.848   1.061   5.372 -3.2694  0.1818 -0.7133
11062TIP3    H254602   1.822   0.923   5.428  1.2876 -0.6544 -0.2771
11063TIP3   OH254603   5.766   5.863   5.885 -0.3129 -0.0605  0.3619
11063TIP3    H154604   5.803   5.779   5.859 -0.6549 -0.0628 -0.1400
11063TIP3    H254605   5.840   5.913   5.920  0.8001  0.9781 -3.1211
11064TIP3   OH254606   2.684   3.097  11.637  0.5144 -0.9731 -0.2209
11064TIP3    H154607   2.677   3.147  11.556 -1.2814  2.4113  1.7490
11064TIP3    H254608   2.774   3.112  11.667  0.7929 -1.1657 -0.9479
11065TIP3   OH254609   3.373   2.774   6.526 -0.4620 -0.0583  0.1502
11065TIP3    H154610   3.460   2.812   6.511  0.2223 -1.7972 -0.5964
11065TIP3    H254611   3.391   2.684   6.556 -2.0024 -0.2009  0.7092
11066TIP3   OH254612   4.756   6.645   3.584 -0.6717 -0.6202 -0.3337
11066TIP3    H154613   4.832   6.692   3.618 -0.6996 -0.3625 -0.6274
11066TIP3    H254614   4.771   6.554   3.611  0.0496 -0.6860 -0.9207
11067TIP3   OH254615   5.674   1.274   1.909 -0.2404  0.3963 -0.3782
11067TIP3    H154616   5.680   1.266   2.004  0.6918 -0.6940 -0.5136
11067TIP3    H254617   5.620   1.200   1.881 -2.0135  1.7077 -0.5636
11068TIP3   OH254618   1.679   5.911   3.608  0.1592 -0.2324 -0.1807
11068TIP3    H154619   1.770   5.892   3.633 -0.1021 -0.8745  0.3119
11068TIP3    H254620   1.635   5.826   3.609 -0.0330 -0.2072 -2.2503
11069TIP3   OH254621   5.810   0.431  13.747 -0.2377  0.4624  0.1662
11069TIP3    H154622   5.819   0.360  13.810 -0.3697 -1.1619 -1.5401
11069TIP3    H254623   5.840   0.393  13.664 -2.0081  1.8368 -1.1829
11070TIP3   OH254624   0.669   6.188  14.720 -0.1341 -0.4533  0.1304
11070TIP3    H154625   0.580   6.219  14.704 -0.6856 -0.9276  2.0039
11070TIP3    H254626   0.687   6.127  14.648 -1.9036 -1.4934  0.5101
11071TIP3   OH254627   3.064   3.782  13.156  0.0226  0.1677  0.0829
11071TIP3    H154628   3.115   3.701  13.160 -0.5640 -0.2720 -0.9408
11071TIP3    H254629   3.026   3.782  13.068  1.3956  2.4260 -0.6010
11072TIP3   OH254630   5.035   3.526   4.193  0.0266  0.0937 -0.2664
11072TIP3    H154631   5.105   3.461   4.191  0.7625  0.8849 -1.5125
11072TIP3    H254632   4.957   3.476   4.218  0.5719 -1.2552 -1.1381
11073TIP3   OH254633   5.252   1.109  10.698 -0.1435  0.1599 -0.5164
11073TIP3    H154634   5.173   1.131  10.649 -0.7760 -0.5860  0.1449
11073TIP3    H254635   5.241   1.151  10.783 -0.0765 -0.3622 -0.2393
11074TIP3   OH254636   1.088   1.601   5.123  0.3881 -0.0778 -0.0543
11074TIP3    H154637   1.079   1.559   5.037 -1.0445  0.1104 -0.0242
11074TIP3    H254638   1.151   1.671   5.108  2.1428 -1.6055 -0.3172
11075TIP3   OH254639   4.126   4.308   5.559  0.1403 -0.6323 -0.0095
11075TIP3    H154640   4.121   4.237   5.495 -1.1260  0.6766 -1.4317
11075TIP3    H254641   4.142   4.264   5.643 -1.2468 -2.6401 -0.7446
11076TIP3   OH254642   1.846   1.994   5.292  0.4091 -0.7112  0.0362
11076TIP3    H154643   1.881   1.910   5.321  1.0476 -0.4175  0.1356
11076TIP3    H254644   1.764   2.004   5.340  1.6643 -0.0198  2.1599
11077TIP3   OH254645   0.759   2.870   1.826 -0.6546 -0.0667  0.2881
11077TIP3    H154646   0.804   2.881   1.742 -1.4685  0.5537 -0.0806
11077TIP3    H254647   0.721   2.782   1.820 -0.3489 -0.1933  0.1837
11078TIP3   OH254648   3.178   2.627  15.663  0.6822  0.6476 -0.0515
11078TIP3    H154649   3.237   2.702  15.653  0.3791  1.0767  1.1577
11078TIP3    H254650   3.225   2.567  15.721 -0.6741  1.7586  2.3803
11079TIP3   OH254651   4.467   5.145   3.720  0.0718  0.4225 -0.4289
11079TIP3    H154652   4.476   5.221   3.778 -0.2759  0.6543 -0.6744
11079TIP3    H254653   4.546   5.094   3.735  0.5705  1.1093 -0.6553
11080TIP3   OH254654   1.660   1.453   4.974 -0.0897  0.2721 -0.4371
11080TIP3    H154655   1.688   1.433   4.885 -0.6140  0.1115 -0.5678
11080TIP3    H254656   1.737   1.434   5.028 -0.1768 -0.9032 -0.6992
11081TIP3   OH254657   4.102   0.702   3.420  0.0880  0.3831  0.3261
11081TIP3    H154658   4.054   0.770   3.467 -0.2867  0.3913 -0.0616
11081TIP3    H254659   4.163   0.750   3.365 -0.1707  0.4056  0.0586
11082TIP3   OH254660   1.913   1.955  11.224 -0.3403  0.0480  0.1145
11082TIP3    H154661   1.935   2.042  11.256  1.7250 -0.8604  1.3313
11082TIP3    H254662   1.894   1.903  11.302  0.2528 -1.0558 -0.4423
11083TIP3   OH254663   4.890   6.384   4.710  0.2710 -0.3766  0.2880
11083TIP3    H154664   4.806   6.387   4.665  0.9622 -0.3894 -1.0363
11083TIP3    H254665   4.932   6.304   4.678  1.2631  0.2159  0.0565
11084TIP3   OH254666   3.680   1.949  14.926  0.2214  0.4782  0.5729
11084TIP3    H154667   3.729   1.875  14.963  0.8318  1.7964  2.6015
11084TIP3    H254668   3.609   1.908  14.877  0.0941 -1.4854  2.2161
11085TIP3   OH254669   2.664   2.323   3.460  1.2740  0.0648 -0.1055
11085TIP3    H154670   2.641   2.266   3.534  4.4989 -0.5138  0.6167
11085TIP3    H254671   2.589   2.317   3.401 -0.4579 -1.2681  2.0493
11086TIP3   OH254672   4.131   3.435  14.163  0.4368  0.6020 -0.5991
11086TIP3    H154673   4.100   3.353  14.203  0.3882  1.0558  0.3205
11086TIP3    H254674   4.169   3.408  14.079  0.3469 -0.3527 -0.3439
11087TIP3   OH254675   6.019   0.091  15.036 -0.7934 -0.0998  0.2614
11087TIP3    H154676   6.067   0.116  15.115  0.2891 -0.4460 -0.2696
11087TIP3    H254677   5.984   0.174  15.002  0.8117  0.4112 -0.2256
11088TIP3   OH254678   5.176   4.239  15.710 -0.5355 -0.7180  0.3782
11088TIP3    H154679   5.137   4.157  15.740 -1.2027 -1.1003 -1.3760
11088TIP3    H254680   5.126   4.308  15.753 -1.2577 -1.2344  0.3774
11089TIP3   OH254681   3.098   5.706   0.422  0.0268 -0.3523 -0.4305
11089TIP3    H154682   3.102   5.614   0.395 -1.1443 -0.5998  0.1593
11089TIP3    H254683   3.008   5.718   0.452  0.5332  0.6260  0.7961
11090TIP3   OH254684   2.066   4.116   1.833 -0.4377 -0.1948 -0.1208
11090TIP3    H154685   2.086   4.189   1.891  0.1416  0.5271 -1.2020
11090TIP3    H254686   2.145   4.062   1.835 -0.4532 -0.2187 -0.1513
11091TIP3   OH254687   1.055   1.522  14.441 -0.2020  0.5374  0.3449
11091TIP3    H154688   0.959   1.517  14.445 -0.2192 -1.9466 -1.1431
11091TIP3    H254689   1.077   1.597  14.496 -2.7270 -1.1349  4.0514
11092TIP3   OH254690   1.192   0.701   4.594 -0.1732 -0.2972  0.4258
11092TIP3    H154691   1.238   0.764   4.651  0.4374  2.1084 -2.4611
11092TIP3    H254692   1.262   0.647   4.557  0.1208  1.3615 -1.6289
11093TIP3   OH254693   5.500   3.087  15.048  0.3809 -0.0503 -0.3602
11093TIP3    H154694   5.493   2.992  15.035 -3.7191  0.0647 -0.3678
11093TIP3    H254695   5.545   3.118  14.970  1.4895 -1.9047 -0.5394
11094TIP3   OH254696   0.216   3.055   4.667 -0.7410 -0.4973 -0.1671
11094TIP3    H154697   0.130   3.091   4.687 -0.5574  0.0309 -0.3064
11094TIP3    H254698   0.242   3.006   4.745 -0.2685  1.0695  0.6859
11095TIP3   OH254699   0.013   2.195   3.580 -0.2845 -0.6739 -0.0835
11095TIP3    H154700  -0.033   2.170   3.500  0.5711 -3.0043  0.0454
11095TIP3    H254701  -0.025   2.139   3.648  0.6009 -0.4162  0.6498
11096TIP3   OH254702   0.814   5.950   4.928 -0.4120 -0.0481 -0.3620
11096TIP3    H154703   0.794   5.870   4.977 -1.5455 -0.3069 -1.2230
11096TIP3    H254704   0.817   6.018   4.995 -3.1649 -0.1798  0.0152
11097TIP3   OH254705   5.761   6.637  16.535  0.0358  0.1513 -0.5452
11097TIP3    H154706   5.843   6.653  16.582  0.4670  0.0984 -1.2633
11097TIP3    H254707   5.701   6.704  16.568 -0.2722 -1.0393  1.4526
11098TIP3   OH254708   4.251   1.869  15.082  0.1805 -0.1846  0.2878
11098TIP3    H154709   4.321   1.924  15.117 -0.3784  0.5811  0.2127
11098TIP3    H254710   4.248   1.890  14.989 -0.7388  0.4439  0.4515
11099TIP3   OH254711   3.215   2.107  14.145  0.0017  0.0989  0.1126
11099TIP3    H154712   3.300   2.103  14.101 -0.5940 -0.5929 -1.0413
11099TIP3    H254713   3.176   2.189  14.114 -1.4103 -1.4853 -2.6918
11100TIP3   OH254714   6.203   4.897   5.349  0.0941  0.2241 -0.6124
11100TIP3    H154715   6.298   4.886   5.340  0.2109  0.7575 -0.1058
11100TIP3    H254716   6.177   4.946   5.272  0.7769  3.0521  0.8278
11101TIP3   OH254717   5.103   2.900  11.527 -0.4146  0.4520 -0.1110
11101TIP3    H154718   5.065   2.888  11.614  1.2578  0.5971  0.6716
11101TIP3    H254719   5.030   2.932  11.474 -1.3161  1.0578  1.4086
11102TIP3   OH254720   0.786   6.282  15.417  0.5525  0.0855 -0.2193
11102TIP3    H154721   0.783   6.342  15.342  1.0076 -0.6639 -0.8613
11102TIP3    H254722   0.772   6.338  15.493 -0.0842  0.8452 -0.8730
11103TIP3   OH254723   0.679   5.828  13.291 -0.3661 -0.0404 -0.3028
11103TIP3    H154724   0.642   5.907  13.251 -1.9053 -0.7013 -0.2646
11103TIP3    H254725   0.702   5.772  13.216  0.9365  0.5105 -0.3355
11104TIP3   OH254726   6.641   1.179   3.926 -0.3595 -0.2012  0.0952
11104TIP3    H154727   6.726   1.212   3.954 -0.6163  0.3463  0.2415
11104TIP3    H254728   6.619   1.111   3.989  0.4759 -1.1343 -0.5880
11105TIP3   OH254729   4.561   1.219   5.966 -0.9016 -0.0194  0.4538
11105TIP3    H154730   4.592   1.258   6.048  0.6537 -1.0186  0.3764
11105TIP3    H254731   4.469   1.199   5.982 -0.7828  0.3763  1.7292
11106TIP3   OH254732   1.240   3.286   2.771  0.1217  0.7261 -0.0682
11106TIP3    H154733   1.212   3.211   2.719 -0.3233  0.4763  0.5229
11106TIP3    H254734   1.334   3.273   2.785  0.0492  0.3023  0.0110
11107TIP3   OH254735   5.988   6.249  15.248  0.0755  0.2353  0.2192
11107TIP3    H154736   6.048   6.205  15.189  0.1521  0.6239  0.0055
11107TIP3    H254737   5.952   6.322  15.196 -2.8362 -1.6928 -0.6915
11108TIP3   OH254738   0.791   1.872   1.733 -0.0519  0.3742  0.1312
11108TIP3    H154739   0.793   1.967   1.742 -1.0992  0.2541  2.3057
11108TIP3    H254740   0.852   1.840   1.799 -1.2407 -0.4874  0.8586
11109TIP3   OH254741   0.349   4.700   5.819 -0.7235  0.1653 -0.6645
11109TIP3    H154742   0.442   4.706   5.838 -0.4456 -3.0055 -0.5051
11109TIP3    H254743   0.343   4.640   5.744 -2.6871 -1.6861  0.8519
11110TIP3   OH254744   6.726   4.633   0.870  0.4721 -0.2246  0.5075
11110TIP3    H154745   6.633   4.636   0.892  0.7744 -0.0967  1.8148
11110TIP3    H254746   6.752   4.542   0.886  0.7500 -0.0740  0.9295
11111TIP3   OH254747   0.673   6.713   3.656  0.5456 -0.4171 -0.0520
11111TIP3    H154748   0.614   6.752   3.591  1.9288  2.7619  0.4397
11111TIP3    H254749   0.761   6.732   3.623  1.2684 -1.0073  1.4839
11112TIP3   OH254750   3.964   4.092  15.273  0.2688 -0.4086  0.0484
11112TIP3    H154751   3.915   4.010  15.273  0.8782 -0.7883 -1.1637
11112TIP3    H254752   3.907   4.153  15.321 -1.0646 -1.0384 -0.6665
11113TIP3   OH254753   2.242   4.145   1.336 -0.3894  0.2018  0.0990
11113TIP3    H154754   2.167   4.203   1.345 -0.4531  0.0751  0.4184
11113TIP3    H254755   2.272   4.131   1.426 -0.6558 -0.6236  0.0675
11114TIP3   OH254756   1.258   3.777   5.792  0.2419 -0.4000  0.2313
11114TIP3    H154757   1.278   3.684   5.801 -0.3197 -0.8139 -2.1264
11114TIP3    H254758   1.343   3.819   5.776  0.4620 -0.5289  1.0248
11115TIP3   OH254759   3.790   4.570   0.915  0.2820  0.3699  0.2221
11115TIP3    H154760   3.765   4.659   0.891 -1.4453 -0.1327  0.0582
11115TIP3    H254761   3.723   4.515   0.876 -0.1714 -0.8077  2.5246
11116TIP3   OH254762   1.288   6.740  10.896 -0.0913  0.3377 -0.2797
11116TIP3    H154763   1.354   6.798  10.934  0.7574 -1.1776  0.6689
11116TIP3    H254764   1.316   6.652  10.921 -2.4285 -0.3820  0.0924
11117TIP3   OH254765   1.280   4.154  11.096 -0.0420 -0.0267 -0.5545
11117TIP3    H154766   1.245   4.190  11.177  0.1238  0.0669 -0.5258
11117TIP3    H254767   1.227   4.076  11.080  1.1719 -1.1388  0.6612
11118TIP3   OH254768   6.030   5.117   2.116 -0.1853  0.0535  0.6002
11118TIP3    H154769   5.980   5.153   2.189 -1.5172 -1.6410  0.5932
11118TIP3    H254770   5.968   5.114   2.043  0.7119  0.3885 -0.1973
11119TIP3   OH254771   0.473   3.660   3.882  0.1311 -0.4318  0.5197
11119TIP3    H154772   0.408   3.685   3.947 -1.0277 -0.8432 -0.4548
11119TIP3    H254773   0.472   3.730   3.817 -0.3714 -1.1198 -0.2325
11120TIP3   OH254774   5.445   1.408   2.310  0.5720  0.4500  0.0947
11120TIP3    H154775   5.409   1.422   2.398  0.0982 -1.2624  0.1974
11120TIP3    H254776   5.395   1.469   2.255 -0.2481  0.3954  0.7513
11121TIP3   OH254777   1.018   3.717   3.220 -0.3542  0.1392  0.3890
11121TIP3    H154778   1.036   3.708   3.314  2.4813  0.7263 -0.0145
11121TIP3    H254779   1.033   3.630   3.184  0.2156  0.2851  0.2641
11122TIP3   OH254780   1.626   2.384  13.712  0.2854  0.4077  0.3350
11122TIP3    H154781   1.535   2.414  13.721  0.1605  0.2703 -0.4321
11122TIP3    H254782   1.620   2.308  13.653  0.9368  0.5964  0.0249
11123TIP3   OH254783   1.517   5.678   2.077 -0.4579 -0.3440  0.3769
11123TIP3    H154784   1.568   5.637   2.147 -0.2805 -0.5338  0.1345
11123TIP3    H254785   1.437   5.626   2.073 -0.0906 -0.8679 -0.1536
11124TIP3   OH254786   3.537   5.676  15.799 -0.1184  0.2456  0.6872
11124TIP3    H154787   3.503   5.656  15.886 -0.8759  0.0645  0.3574
11124TIP3    H254788   3.540   5.772  15.796  2.3930  0.3066  1.8351
11125TIP3   OH254789   3.045   0.874   5.214  0.1420  0.1374 -0.6422
11125TIP3    H154790   3.130   0.905   5.246  0.0915  0.4876 -0.8484
11125TIP3    H254791   3.058   0.780   5.201  0.1239 -0.0313  0.5208
11126TIP3   OH254792   2.097   1.217  13.579  0.2928  0.3739  0.1670
11126TIP3    H154793   2.102   1.165  13.659 -2.4091 -0.5985 -0.2209
11126TIP3    H254794   2.116   1.156  13.509  1.9661  1.0761 -0.0424
11127TIP3   OH254795   6.015   0.732  16.788 -0.0134 -0.4339 -0.3849
11127TIP3    H154796   6.023   0.717  16.883  2.1842 -0.4724 -0.5430
11127TIP3    H254797   6.014   0.645  16.750  1.7994 -0.4012 -0.5576
11128TIP3   OH254798   2.530   0.803  10.499 -0.4570  0.2147  0.2758
11128TIP3    H154799   2.526   0.735  10.432 -0.0678 -0.8487  1.3145
11128TIP3    H254800   2.530   0.885  10.449 -0.3641 -0.5442 -1.0123
11129TIP3   OH254801   1.297   2.341   4.355  0.0032 -0.3879 -0.5143
11129TIP3    H154802   1.357   2.274   4.387 -1.6876 -2.4257 -1.4000
11129TIP3    H254803   1.267   2.386   4.434  0.4342 -1.3148  0.1874
11130TIP3   OH254804   3.308   6.183  10.987 -0.4440  0.0306  0.2227
11130TIP3    H154805   3.222   6.142  10.986 -1.0243  1.2122 -0.4351
11130TIP3    H254806   3.290   6.277  10.979  0.9510  0.2012 -1.3788
11131TIP3   OH254807   0.959   2.517  11.502  0.0979 -0.0746  0.0826
11131TIP3    H154808   0.961   2.461  11.424 -0.0174  0.4839 -0.3276
11131TIP3    H254809   0.944   2.456  11.574 -0.4843 -0.5232 -0.4028
11132TIP3   OH254810   5.634   3.340   2.804  0.5040  0.1891  0.0258
11132TIP3    H154811   5.645   3.428   2.770 -0.3840  0.3880  0.2269
11132TIP3    H254812   5.712   3.293   2.775 -0.2604  0.2844 -2.4543
11133TIP3   OH254813   6.407   2.103  15.051 -0.2082  0.0605  0.5441
11133TIP3    H154814   6.465   2.048  15.104 -0.7015  0.2795  1.3307
11133TIP3    H254815   6.326   2.052  15.045 -1.1055  1.1521  2.2939
11134TIP3   OH254816   2.333   4.138   6.090 -0.0666 -0.2045  0.3614
11134TIP3    H154817   2.381   4.086   6.155  1.5985  0.2846 -0.3969
11134TIP3    H254818   2.358   4.228   6.108 -0.1473 -0.0007 -0.4814
11135TIP3   OH254819   2.983   4.214   4.259  0.0169  0.0196  0.1728
11135TIP3    H154820   3.005   4.296   4.304 -1.6288  0.4440  0.2803
11135TIP3    H254821   3.067   4.171   4.245  0.7418  0.6373  2.2038
11136TIP3   OH254822   1.995   2.234   3.286 -0.5465 -0.0918  0.2031
11136TIP3    H154823   1.940   2.158   3.306  0.5861 -0.8759  0.4341
11136TIP3    H254824   2.084   2.203   3.300 -0.1029  1.6309  1.4946
11137TIP3   OH254825   0.372   3.575   4.753  0.2039 -0.2103 -0.2291
11137TIP3    H154826   0.397   3.596   4.843  0.3173 -0.6900 -0.1477
11137TIP3    H254827   0.425   3.498   4.730 -0.7462 -0.8826 -0.2480
11138TIP3   OH254828   5.092   4.075  14.760 -0.0439  0.2698 -0.3295
11138TIP3    H154829   5.158   4.144  14.767  1.8329 -1.4976  0.1591
11138TIP3    H254830   5.032   4.107  14.692  1.5409  1.7447 -1.1165
11139TIP3   OH254831   2.594   5.665   5.362  0.1848 -0.8722 -0.1776
11139TIP3    H154832   2.521   5.647   5.303 -0.1691  1.5287 -0.5792
11139TIP3    H254833   2.634   5.580   5.378 -0.9815 -1.8656 -2.2218
11140TIP3   OH254834   5.297   4.751   5.791  0.4852  0.0214 -0.5625
11140TIP3    H154835   5.324   4.783   5.877  0.5638 -0.6404 -0.3357
11140TIP3    H254836   5.203   4.771   5.786  0.5955  0.5462 -0.5466
11141TIP3   OH254837   0.130   3.913  14.443 -0.5225  0.2270 -0.1002
11141TIP3    H154838   0.154   3.980  14.379 -0.8850  0.6739  0.2148
11141TIP3    H254839   0.152   3.830  14.401  0.6138  0.5671 -0.2151
11142TIP3   OH254840   1.247   0.164  15.485 -0.2888  0.2294  0.0980
11142TIP3    H154841   1.333   0.177  15.446 -0.9650 -0.8426 -1.8726
11142TIP3    H254842   1.265   0.145  15.577  1.7988 -2.0755 -0.6689
11143TIP3   OH254843   4.313   0.379  16.112  0.2087  0.6373  0.0201
11143TIP3    H154844   4.267   0.463  16.106 -1.5577 -0.3030 -0.2106
11143TIP3    H254845   4.313   0.345  16.022 -2.2950 -1.1973  0.6326
11144TIP3   OH254846   1.075   4.936   4.416  0.1827  0.0069 -0.1091
11144TIP3    H154847   1.048   4.872   4.482 -1.1909 -1.4698 -1.9931
11144TIP3    H254848   1.139   4.889   4.362 -0.3676  0.4299 -1.1511
11145TIP3   OH254849   4.248   3.958   0.690  0.2016  0.0208 -0.0256
11145TIP3    H154850   4.185   3.982   0.757 -2.4259  0.1153 -2.3751
11145TIP3    H254851   4.284   4.042   0.660  0.5547  0.0489  0.4588
11146TIP3   OH254852   4.700   0.046  16.991  0.0886  0.4722  0.5798
11146TIP3    H154853   4.674   0.090  17.072 -2.1157  0.9095 -0.2696
11146TIP3    H254854   4.700   0.116  16.925  0.8176 -0.0516  0.0140
11147TIP3   OH254855   0.313   0.532  16.470  0.8189 -0.0200  0.0458
11147TIP3    H154856   0.268   0.549  16.553 -0.1030 -2.0707  0.0230
11147TIP3    H254857   0.245   0.543  16.403  1.1461 -0.0312 -0.2906
11148TIP3   OH254858   5.692   0.678  13.311  0.1194 -0.0672  0.6457
11148TIP3    H154859   5.776   0.660  13.353 -0.6222 -1.4305  1.5998
11148TIP3    H254860   5.665   0.595  13.272 -0.1699  0.6831 -0.8481
11149TIP3   OH254861   3.796   6.499   5.700 -0.3966 -0.5833  0.3462
11149TIP3    H154862   3.734   6.569   5.718 -0.6217 -0.3634 -1.1881
11149TIP3    H254863   3.780   6.434   5.769 -2.3715 -0.5493 -0.0366
11150TIP3   OH254864   1.285   0.580   4.893  0.0399  0.5615  0.4559
11150TIP3    H154865   1.312   0.560   4.804 -1.6541  4.0885 -1.0250
11150TIP3    H254866   1.365   0.614   4.935  0.8300 -1.0611  0.3420
11151TIP3   OH254867   0.316   5.802   2.964 -0.0150 -0.5705 -0.2658
11151TIP3    H154868   0.250   5.768   2.904 -0.3494  1.0398 -0.8640
11151TIP3    H254869   0.400   5.777   2.925 -0.2415 -1.3696 -0.2629
11152TIP3   OH254870   1.239   4.117   4.537 -0.8751 -0.0109  0.6389
11152TIP3    H154871   1.159   4.145   4.493  0.8067  2.6415 -1.0116
11152TIP3    H254872   1.249   4.177   4.610 -0.3897 -0.3036  0.8242
11153TIP3   OH254873   6.678   5.115  11.029  0.1450  0.0062  0.5719
11153TIP3    H154874   6.729   5.082  11.103 -1.3762 -3.5968  0.2306
11153TIP3    H254875   6.716   5.071  10.952  1.7622  3.7278 -0.9874
11154TIP3   OH254876   0.750   0.593  15.715  0.4108 -0.0675  0.2929
11154TIP3    H154877   0.843   0.604  15.692  0.5567 -1.0894  0.3616
11154TIP3    H254878   0.708   0.673  15.683  1.5853  1.2093  1.7918
11155TIP3   OH254879   0.159   1.278  15.866 -0.1228  0.1326  0.3756
11155TIP3    H154880   0.166   1.359  15.815  0.8269  0.8186  1.5190
11155TIP3    H254881   0.102   1.222  15.815  0.5344  0.8929 -1.2718
11156TIP3   OH254882   5.812   5.218  12.946  0.5053 -0.4134  0.2275
11156TIP3    H154883   5.820   5.127  12.919  1.0814 -0.0022 -1.0927
11156TIP3    H254884   5.767   5.260  12.872  0.1943  0.3633  0.8473
11157TIP3   OH254885   6.496   3.502   4.085  0.3767  0.4337 -0.2620
11157TIP3    H154886   6.484   3.469   4.174  0.7996  1.3645  0.1471
11157TIP3    H254887   6.447   3.440   4.030  2.5896 -1.9369  0.2609
11158TIP3   OH254888   6.792   4.657  11.409 -0.3836 -0.4051  0.0619
11158TIP3    H154889   6.812   4.601  11.484 -0.4325  0.3673  0.6667
11158TIP3    H254890   6.815   4.604  11.332  3.8873  0.2514  0.6365
11159TIP3   OH254891   5.526   5.005   2.465  0.3177 -0.2312  0.8285
11159TIP3    H154892   5.508   5.020   2.372  0.8823 -0.6054  0.6576
11159TIP3    H254893   5.525   4.910   2.475 -0.9168 -0.1740  1.4488
11160TIP3   OH254894   3.232   4.618  15.800 -0.4146 -0.2455 -0.4446
11160TIP3    H154895   3.206   4.526  15.806 -0.8564 -0.2419 -1.9953
11160TIP3    H254896   3.175   4.654  15.732 -0.0697  1.1191 -0.0252
11161TIP3   OH254897   5.876   0.923  14.651 -0.7279  0.4361  0.5421
11161TIP3    H154898   5.852   0.872  14.728  3.4926  1.2609  2.7311
11161TIP3    H254899   5.861   1.014  14.677  3.1108  0.9138  1.6725
11162TIP3   OH254900   4.807   1.375   4.683 -0.3973  0.4656  0.4125
11162TIP3    H154901   4.869   1.369   4.755 -1.7935 -0.6722  1.6124
11162TIP3    H254902   4.798   1.284   4.652  1.0891  1.0830 -2.0683
11163TIP3   OH254903   0.815   6.178  10.634  0.3530  0.4532  0.3831
11163TIP3    H154904   0.866   6.253  10.663  1.1924 -0.4661  1.3494
11163TIP3    H254905   0.829   6.174  10.539  0.5955  1.2763  0.3800
11164TIP3   OH254906   1.744   2.158  17.005  0.7737  0.4397  0.5028
11164TIP3    H154907   1.685   2.093  17.042  0.8252 -0.8305 -1.5079
11164TIP3    H254908   1.799   2.185  17.079  2.1824 -3.3966  1.0964
11165TIP3   OH254909   0.336   4.229   0.346 -0.0342 -0.3439 -0.7837
11165TIP3    H154910   0.292   4.158   0.392  1.1878 -0.9349 -0.4913
11165TIP3    H254911   0.390   4.186   0.280  0.0409  0.3597 -1.1875
11166TIP3   OH254912   3.953   6.147   0.636  0.2239  1.3228  0.1904
11166TIP3    H154913   3.972   6.180   0.724 -1.7017  0.1017  1.1252
11166TIP3    H254914   4.031   6.096   0.614  0.3123  0.7485  1.6717
11167TIP3   OH254915   4.529   1.130   1.480 -0.0651 -0.6424 -0.2121
11167TIP3    H154916   4.588   1.169   1.544  0.5876 -0.5366 -0.8545
11167TIP3    H254917   4.588   1.090   1.415 -0.7075 -1.0546 -0.5518
11168TIP3   OH254918   3.351   5.273   2.567 -0.0243  0.3443 -0.2109
11168TIP3    H154919   3.430   5.310   2.528  0.8978 -1.3695 -0.0647
11168TIP3    H254920   3.295   5.252   2.493  0.3945 -0.0383 -0.4166
11169TIP3   OH254921   6.784   5.446   4.838 -0.1822 -0.3068  0.0067
11169TIP3    H154922   6.760   5.422   4.928 -1.2432 -0.3864 -0.2921
11169TIP3    H254923   6.880   5.443   4.838 -0.1671 -0.3811  1.1144
11170TIP3   OH254924   6.341   1.383   4.744 -0.4396 -0.6550  0.3669
11170TIP3    H154925   6.330   1.476   4.724 -0.3400 -0.7329 -0.0577
11170TIP3    H254926   6.265   1.361   4.797 -0.2378 -0.2256  0.8531
11171TIP3   OH254927   0.810   2.927  14.614 -0.6682 -0.0288  0.3459
11171TIP3    H154928   0.753   2.980  14.559  0.6885  2.1509  0.9015
11171TIP3    H254929   0.782   2.836  14.599 -2.9046  0.8071 -0.8648
11172TIP3   OH254930   6.126   3.175  13.439  0.1387 -0.2629  0.7768
11172TIP3    H154931   6.113   3.122  13.360  0.9918  1.2010 -0.3793
11172TIP3    H254932   6.213   3.213  13.429  0.0384  0.3934  2.1670
11173TIP3   OH254933   3.896   4.160   6.169  0.2194 -0.1846  0.4250
11173TIP3    H154934   3.862   4.218   6.237  0.4480 -0.2646  0.6050
11173TIP3    H254935   3.845   4.079   6.179 -1.7559  0.7225 -1.2822
11174TIP3   OH254936   1.825   3.773  14.189 -0.2608  0.1102  0.1589
11174TIP3    H154937   1.903   3.717  14.191 -0.5252 -0.2732 -0.0672
11174TIP3    H254938   1.804   3.782  14.096 -0.5728  0.0890  0.2269
11175TIP3   OH254939   5.314   1.608   3.083  0.3577 -0.7524  0.3529
11175TIP3    H154940   5.237   1.626   3.030  0.7975 -1.0566 -0.4012
11175TIP3    H254941   5.382   1.666   3.047  0.2599  0.1641  1.5774
11176TIP3   OH254942   4.836   4.942   3.030 -0.2858  0.4392  0.1916
11176TIP3    H154943   4.858   5.021   2.982  0.8364  0.4938  0.7385
11176TIP3    H254944   4.749   4.958   3.067  1.0694  2.6904  2.7742
11177TIP3   OH254945   3.376   5.704  14.474 -0.3148  0.3810  0.0011
11177TIP3    H154946   3.423   5.686  14.392  2.1623  1.2183  1.1312
11177TIP3    H254947   3.331   5.623  14.495  0.6133 -0.4762 -1.2125
11178TIP3   OH254948   6.091   2.586  15.642  0.4983  0.2036 -0.3765
11178TIP3    H154949   6.024   2.654  15.634  0.5926  0.2060 -1.1896
11178TIP3    H254950   6.165   2.620  15.592  0.9049 -0.0623  0.0337
11179TIP3   OH254951   2.448   3.161  11.752 -0.1980 -0.3570  0.1991
11179TIP3    H154952   2.525   3.137  11.699 -0.2172 -1.1625  0.5158
11179TIP3    H254953   2.433   3.253  11.732  1.4685  0.1094  0.8864
11180TIP3   OH254954   3.036   6.571   2.897 -0.2465  0.3636  0.2257
11180TIP3    H154955   3.019   6.664   2.887  0.1429  0.4545  0.4036
11180TIP3    H254956   3.032   6.555   2.992 -0.2961  0.2029  0.1977
11181TIP3   OH254957   2.742   2.388  10.807  0.4377  0.2571  0.2723
11181TIP3    H154958   2.710   2.327  10.740  1.0435  1.0591 -0.7747
11181TIP3    H254959   2.720   2.474  10.774  1.3632  0.7077  0.7740
11182TIP3   OH254960   1.611   5.815  11.465 -0.0393 -0.0029 -0.2131
11182TIP3    H154961   1.540   5.859  11.418  0.0830  0.7796  0.3192
11182TIP3    H254962   1.665   5.776  11.396 -0.8202 -0.3651 -0.6345
11183TIP3   OH254963   5.345   3.789   6.102 -0.0538 -0.2364 -0.7361
11183TIP3    H154964   5.299   3.803   6.185  1.0257  0.6785 -0.2612
11183TIP3    H254965   5.433   3.762   6.127  0.7079  1.3455 -1.5071
11184TIP3   OH254966   2.447   3.689  13.272  0.4234 -0.0541 -0.1267
11184TIP3    H154967   2.464   3.763  13.214  0.0193 -1.1683 -1.7300
11184TIP3    H254968   2.352   3.683  13.277  0.4276 -1.3474 -1.2195
11185TIP3   OH254969   6.480   2.763  14.328 -0.7292  0.1721  0.2196
11185TIP3    H154970   6.424   2.800  14.396 -0.7707  0.5443 -0.0162
11185TIP3    H254971   6.557   2.820  14.327 -1.0597  0.6192 -0.5545
11186TIP3   OH254972   4.063   3.154  11.337  0.0746  0.1029  0.6419
11186TIP3    H154973   4.106   3.073  11.364 -0.2862 -0.1813  0.3766
11186TIP3    H254974   4.134   3.210  11.307  0.2243 -0.5139 -0.1856
11187TIP3   OH254975   3.066   2.029   3.128 -0.0548 -0.2649  0.0882
11187TIP3    H154976   3.140   1.981   3.166 -0.3350 -0.9541 -0.2051
11187TIP3    H254977   2.989   1.977   3.153 -0.3679  0.0406 -0.2302
11188TIP3   OH254978   4.822   3.797   5.805 -0.0593  0.5164  0.0581
11188TIP3    H154979   4.897   3.856   5.816  1.8656 -1.7667  0.1409
11188TIP3    H254980   4.817   3.748   5.887  0.3712 -1.4757 -1.0351
11189TIP3   OH254981   0.541   3.654  16.298 -0.4211 -0.3729 -0.1387
11189TIP3    H154982   0.535   3.672  16.204 -0.2082  1.1260  0.1132
11189TIP3    H254983   0.489   3.723  16.339 -0.9132 -1.2936  0.8354
11190TIP3   OH254984   0.221   1.026  13.634 -0.2070 -0.5976 -0.3780
11190TIP3    H154985   0.180   1.063  13.713  1.2957 -1.7652  1.0209
11190TIP3    H254986   0.168   0.949  13.614 -1.1271  0.1916 -1.0848
11191TIP3   OH254987   1.481   5.031  12.159 -0.1061 -0.2688  0.2917
11191TIP3    H154988   1.572   5.008  12.177 -0.7268 -1.4973  2.2062
11191TIP3    H254989   1.458   5.093  12.228 -0.1788  1.6531 -1.3837
11192TIP3   OH254990   6.662   4.308   3.508 -0.0645  0.4532 -0.0365
11192TIP3    H154991   6.732   4.373   3.508 -0.1488  0.5456 -0.4113
11192TIP3    H254992   6.691   4.242   3.572  1.2949 -0.5080 -1.5682
11193TIP3   OH254993   1.518   0.141   6.218 -0.3139 -0.9980 -0.0824
11193TIP3    H154994   1.576   0.123   6.292 -0.3397 -2.0796 -0.3077
11193TIP3    H254995   1.431   0.147   6.257 -0.1979 -0.4526  0.1098
11194TIP3   OH254996   4.332   5.042   2.571 -0.0327  0.4442 -0.1335
11194TIP3    H154997   4.284   5.083   2.643  0.7546  1.1856 -0.0156
11194TIP3    H254998   4.392   4.981   2.615 -0.3927  0.0057 -0.2418
11195TIP3   OH254999   2.110   4.421   1.077 -0.7853  0.8914  0.1751
11195TIP3    H155000   2.143   4.349   1.023  0.1905  0.8981  0.7323
11195TIP3    H255001   2.068   4.481   1.014 -1.5931 -0.1365 -0.2929
11196TIP3   OH255002   0.476   3.609   1.606 -0.6533  0.1968 -0.1614
11196TIP3    H155003   0.552   3.666   1.602 -2.3994  2.7691  0.2923
11196TIP3    H255004   0.480   3.557   1.526  1.8790 -0.2784  0.1909
11197TIP3   OH255005   3.493   3.616   2.905  0.4692  0.2441  0.3375
11197TIP3    H155006   3.436   3.689   2.881 -1.2269 -0.5585  1.6975
11197TIP3    H255007   3.567   3.622   2.845 -1.2779  1.0365 -1.8604
11198TIP3   OH255008   1.807   6.468   5.972 -0.2002  0.3473 -0.5886
11198TIP3    H155009   1.717   6.498   5.978 -0.6037 -0.8569 -0.4325
11198TIP3    H255010   1.846   6.522   5.902 -1.4115 -0.0409 -1.5985
11199TIP3   OH255011   0.038   5.411   6.223 -0.1636 -0.3896  0.2210
11199TIP3    H155012   0.068   5.490   6.178 -0.4125  2.1896  4.1345
11199TIP3    H255013  -0.055   5.406   6.201 -0.2856  0.7942  0.3630
11200TIP3   OH255014   2.664   3.403  13.400  0.3331 -0.1370  0.4635
11200TIP3    H155015   2.585   3.457  13.400 -0.3807 -1.1375 -0.1769
11200TIP3    H255016   2.734   3.463  13.375 -0.5160  0.4097 -0.7085
11201TIP3   OH255017   6.588   2.535  13.934 -0.3043  0.1455  0.2248
11201TIP3    H155018   6.607   2.461  13.876  0.7566 -0.6761  1.5477
11201TIP3    H255019   6.527   2.589  13.885  1.5073  0.1736 -2.1876
11202TIP3   OH255020   2.130   0.805   0.929  0.1372 -0.3886 -0.5289
11202TIP3    H155021   2.141   0.737   0.994 -1.0171 -0.5566 -0.5021
11202TIP3    H255022   2.166   0.767   0.848  3.6961  0.6107  0.3803
11203TIP3   OH255023   0.848   3.488  11.186  0.7402 -0.1886  0.7431
11203TIP3    H155024   0.762   3.527  11.203  0.8059 -0.1070  0.8928
11203TIP3    H255025   0.830   3.399  11.159  0.4722  0.4409 -1.2992
11204TIP3   OH255026   3.411   0.593   6.034 -0.1761  0.3625 -0.1458
11204TIP3    H155027   3.322   0.572   6.009  0.0517 -0.6309 -0.1311
11204TIP3    H255028   3.460   0.512   6.022  0.8240  1.0083 -0.5897
11205TIP3   OH255029   6.720   1.466  14.518  0.2266 -0.3746 -0.2077
11205TIP3    H155030   6.788   1.448  14.583  0.1094 -0.1407 -0.0191
11205TIP3    H255031   6.757   1.536  14.464 -0.2757  0.4968  0.5421
11206TIP3   OH255032   0.759   1.639   3.244  0.0915  0.4419 -0.3220
11206TIP3    H155033   0.824   1.677   3.185 -1.6117  1.4169 -1.6626
11206TIP3    H255034   0.676   1.647   3.197 -0.9313 -1.3959  1.0257
11207TIP3   OH255035   5.251   0.461   1.299  0.0855 -0.2927  0.2902
11207TIP3    H155036   5.263   0.380   1.349 -0.4709  0.1185  1.1129
11207TIP3    H255037   5.156   0.475   1.299  0.0933 -0.2117 -0.7761
11208TIP3   OH255038   0.274   3.742  14.262  0.1490 -0.1990  0.4766
11208TIP3    H155039   0.199   3.682  14.262  0.7424 -0.9950 -1.3904
11208TIP3    H255040   0.330   3.708  14.332 -0.0709 -1.1270  0.2261
11209TIP3   OH255041   3.033   1.274   1.226 -0.0882 -0.7344  0.5378
11209TIP3    H155042   2.962   1.335   1.247  0.4631  0.4979 -0.9769
11209TIP3    H255043   2.989   1.195   1.197 -0.9429  0.4625 -1.7002
11210TIP3   OH255044   1.203   3.448  14.320 -0.4914  0.2791 -0.3476
11210TIP3    H155045   1.235   3.451  14.410  0.1922 -0.7054 -0.5484
11210TIP3    H255046   1.240   3.527  14.279 -0.4284  0.4897  0.1105
11211TIP3   OH255047   3.588   4.840   2.488  0.0176 -0.1539 -0.6091
11211TIP3    H155048   3.561   4.813   2.576  0.0920 -0.4564 -0.6795
11211TIP3    H255049   3.511   4.884   2.452  0.3897  1.0933  0.0723
11212TIP3   OH255050   4.317   3.992   4.652 -0.4753  0.6240 -0.5392
11212TIP3    H155051   4.373   3.928   4.609 -0.4379  0.3875 -0.1542
11212TIP3    H255052   4.264   3.939   4.713 -0.2060  1.0020  0.0275
11213TIP3   OH255053   1.660   4.847   1.036  0.4604  0.2308  0.4183
11213TIP3    H155054   1.748   4.884   1.030  1.0899 -1.3674 -0.8512
11213TIP3    H255055   1.660   4.798   1.118  1.0002 -0.3287  0.0930
11214TIP3   OH255056   2.362   2.097   3.024 -0.0654 -0.6428  0.2393
11214TIP3    H155057   2.314   2.088   2.942  0.5499 -0.7230 -0.1173
11214TIP3    H255058   2.436   2.155   3.002  0.5307 -1.2751  0.5398
11215TIP3   OH255059   2.553   5.925  11.313 -0.8076  0.1553 -1.0765
11215TIP3    H155060   2.539   5.969  11.229 -2.1477  1.1062 -0.3936
11215TIP3    H255061   2.542   5.994  11.379  1.8479 -0.2080 -0.1331
11216TIP3   OH255062   2.098   3.229  13.684 -0.6936  0.1236  0.0382
11216TIP3    H155063   2.146   3.149  13.702  0.2456  0.6784  0.0679
11216TIP3    H255064   2.085   3.269  13.771 -0.3660  0.4461 -0.0608
11217TIP3   OH255065   4.467   2.024  15.173 -0.2124  0.1021  0.3180
11217TIP3    H155066   4.484   2.109  15.214 -1.2086  0.3780  0.1938
11217TIP3    H255067   4.514   2.027  15.090  0.8683 -0.0074  0.9072
11218TIP3   OH255068   0.731   3.831  10.453 -0.2297  0.6745 -0.7732
11218TIP3    H155069   0.778   3.796  10.528 -0.5311  0.7907 -0.5270
11218TIP3    H255070   0.782   3.907  10.426  0.2125  0.2715 -1.0676
11219TIP3   OH255071   2.860   0.028   5.855  0.1629  0.0853 -0.6242
11219TIP3    H155072   2.768   0.046   5.874  0.5818  1.5251  0.2063
11219TIP3    H255073   2.895  -0.009   5.936  0.5950  0.6935 -0.5302
11220TIP3   OH255074   5.725   2.759   3.458 -0.2182 -0.7683  0.3628
11220TIP3    H155075   5.805   2.772   3.509  0.1960 -1.7231 -0.0324
11220TIP3    H255076   5.705   2.846   3.423 -0.5145 -0.0843  2.1224
11221TIP3   OH255077   5.903   2.285   5.371 -0.1341 -0.4062 -0.3273
11221TIP3    H155078   5.927   2.376   5.388 -1.7703  0.2297 -1.2097
11221TIP3    H255079   5.946   2.235   5.440 -2.8359  1.5328  3.0409
11222TIP3   OH255080   5.801   2.930   5.108  0.3213  0.1653  0.2721
11222TIP3    H155081   5.716   2.923   5.152  0.2748 -2.2324 -0.0318
11222TIP3    H255082   5.822   3.023   5.109 -1.9599  0.7289  1.0169
11223TIP3   OH255083   3.348   0.372   6.215  0.2485  0.4694 -0.2823
11223TIP3    H155084   3.408   0.353   6.142  0.3950  0.8703 -0.2689
11223TIP3    H255085   3.290   0.296   6.218  0.4187  0.3201 -0.6385
11224TIP3   OH255086   6.171   0.383   0.220 -0.1494  0.3341 -0.4880
11224TIP3    H155087   6.086   0.400   0.179 -0.1880  0.1656 -0.4774
11224TIP3    H255088   6.159   0.300   0.266  0.0327  0.2919 -0.5188
11225TIP3   OH255089   5.377   2.021  12.092  0.0242 -0.2673  0.3746
11225TIP3    H155090   5.308   2.084  12.072  1.2440  1.0962  0.2765
11225TIP3    H255091   5.430   2.018  12.013 -0.3204 -1.8803  0.1723
11226TIP3   OH255092   4.912   4.084   0.088 -0.0635  0.0382  0.0925
11226TIP3    H155093   4.859   4.144   0.035 -1.5660 -0.4359  1.0109
11226TIP3    H255094   4.920   4.128   0.173 -0.8451 -0.8494  0.6498
11227TIP3   OH255095   1.582   2.014  13.691 -0.3936  0.0567 -0.0838
11227TIP3    H155096   1.635   1.934  13.691  0.4284  0.5467  1.6064
11227TIP3    H255097   1.529   2.008  13.612 -1.9256 -3.1925  1.0174
11228TIP3   OH255098   3.440   4.492  15.005 -0.0088  0.4062  0.3419
11228TIP3    H155099   3.440   4.566  15.066 -0.9675  1.0850 -0.4530
11228TIP3    H255100   3.497   4.427  15.046  0.4839  1.4033  1.2764
11229TIP3   OH255101   3.850   2.306   3.115 -0.3741  0.1012  0.3601
11229TIP3    H155102   3.831   2.346   3.200 -0.6682  0.4539  0.1362
11229TIP3    H255103   3.774   2.250   3.098 -1.8359  2.3162 -1.0189
11230TIP3   OH255104   0.863   5.598  15.932  0.2251  0.2960  0.3146
11230TIP3    H155105   0.900   5.647  16.005  1.9858 -0.1321 -0.2576
11230TIP3    H255106   0.918   5.520  15.924  0.1151  0.3473 -1.4780
11231TIP3   OH255107   2.397   5.202  11.256 -0.5121 -0.2820 -0.3891
11231TIP3    H155108   2.401   5.110  11.282 -1.1264 -0.4537 -0.8680
11231TIP3    H255109   2.362   5.200  11.167 -2.2028  0.4925  0.2039
11232TIP3   OH255110   6.298   3.920  13.676  0.2272  0.6049 -0.4931
11232TIP3    H155111   6.306   3.969  13.758  0.4317 -0.5640  0.2028
11232TIP3    H255112   6.288   3.829  13.703  1.6905  0.0091 -1.7741
11233TIP3   OH255113   1.180   2.477   5.959 -0.3416  0.2848  0.1777
11233TIP3    H155114   1.269   2.491   5.926 -0.5137  0.0342 -0.3877
11233TIP3    H255115   1.154   2.563   5.994  0.6117  0.0483  1.5620
11234TIP3   OH255116   1.464   1.619  14.980 -0.0243  0.4732 -0.1735
11234TIP3    H155117   1.482   1.545  15.038 -1.7570  0.3114  0.2098
11234TIP3    H255118   1.550   1.651  14.955  0.7866  0.0600  1.8764
11235TIP3   OH255119   3.311   1.373   4.068 -0.0975 -0.1386 -0.5134
11235TIP3    H155120   3.306   1.281   4.095  1.0793 -0.3853 -1.0466
11235TIP3    H255121   3.310   1.370   3.973  0.5789  0.3547 -0.5410
11236TIP3   OH255122   3.675   0.620   2.065 -0.1253  0.1403 -0.0658
11236TIP3    H155123   3.720   0.684   2.121 -1.8611  1.7777 -0.4396
11236TIP3    H255124   3.660   0.545   2.123  0.7145  0.6208  0.8120
11237TIP3   OH255125   1.596   1.391  15.696  0.4587  0.1318 -0.7947
11237TIP3    H155126   1.544   1.329  15.748  0.7459  0.4830 -0.0647
11237TIP3    H255127   1.649   1.437  15.761  0.9012  0.5218 -1.4211
11238TIP3   OH255128   2.115   1.150   3.339 -0.4143  0.4442  0.2926
11238TIP3    H155129   2.145   1.133   3.428  1.0730 -1.6828 -0.5061
11238TIP3    H255130   2.045   1.087   3.325 -0.6036  0.7278 -0.0472
11239TIP3   OH255131   3.365   1.900  15.861 -0.4432  0.4366  0.3181
11239TIP3    H155132   3.444   1.940  15.826 -0.7568 -0.5994 -1.7352
11239TIP3    H255133   3.345   1.950  15.940  3.1650 -0.3345  1.9248
11240TIP3   OH255134   6.105   6.594   2.605 -0.8028  0.2969  0.3688
11240TIP3    H155135   6.039   6.639   2.552 -1.0610  0.2944  0.6879
11240TIP3    H255136   6.108   6.644   2.687 -0.3619  0.3364  0.3314
11241TIP3   OH255137   5.423   3.497   0.354  0.0564 -0.3702  0.0791
11241TIP3    H155138   5.434   3.436   0.281 -0.4527 -1.5941  0.9880
11241TIP3    H255139   5.331   3.489   0.379  0.2796 -0.1912  1.0258
11242TIP3   OH255140   6.082   2.548   1.919 -0.5101  0.3512  0.2594
11242TIP3    H155141   6.082   2.597   1.837 -1.2996  0.5903  0.3894
11242TIP3    H255142   6.174   2.527   1.935 -0.4637 -0.7067 -1.2656
11243TIP3   OH255143   4.888   5.716   4.178 -0.1662  0.9311 -0.6066
11243TIP3    H155144   4.972   5.717   4.134 -0.4731 -0.4009 -1.2742
11243TIP3    H255145   4.887   5.633   4.227 -0.9638  1.0606 -0.3804
11244TIP3   OH255146   1.543   6.112  13.062 -0.1108 -0.0678  0.0583
11244TIP3    H155147   1.537   6.019  13.039  1.0751 -0.3152  0.6768
11244TIP3    H255148   1.586   6.113  13.147 -1.0195  1.0187  0.5354
11245TIP3   OH255149   0.235   4.789  10.691 -0.2614  0.7928 -0.3600
11245TIP3    H155150   0.184   4.711  10.713 -2.2797  2.2990  0.5964
11245TIP3    H255151   0.194   4.823  10.612  2.7422 -0.8635 -2.8219
11246TIP3   OH255152   2.355   1.286   0.237 -0.0315  0.0475  0.2281
11246TIP3    H155153   2.300   1.336   0.298 -1.7021  0.2088 -1.3278
11246TIP3    H255154   2.301   1.276   0.159  2.4790  0.9899 -1.7718
11247TIP3   OH255155   0.700   1.258  15.552 -0.1971 -0.4698  0.1513
11247TIP3    H155156   0.668   1.344  15.523  2.8988  0.1348 -1.9960
11247TIP3    H255157   0.770   1.279  15.614 -1.5543 -1.6316  2.1818
11248TIP3   OH255158   5.896   3.488   3.722  0.2512  0.3646  0.1897
11248TIP3    H155159   5.876   3.581   3.727 -0.4159  0.3254 -1.4327
11248TIP3    H255160   5.853   3.457   3.643  0.2070 -1.4058  0.8489
11249TIP3   OH255161   5.317   0.693  11.716 -0.1945  0.0000 -0.2834
11249TIP3    H155162   5.236   0.700  11.667 -1.5998 -0.0080  1.8966
11249TIP3    H255163   5.323   0.776  11.763  2.4839  1.1216 -2.3392
11250TIP3   OH255164   5.442   5.514  15.473 -0.4318 -0.4266  0.0251
11250TIP3    H155165   5.450   5.600  15.514  0.7292 -0.4680 -0.0653
11250TIP3    H255166   5.474   5.453  15.539  1.9428 -0.4481 -1.0480
11251TIP3   OH255167   0.448   5.155   5.836 -0.2189  0.1406 -0.2373
11251TIP3    H155168   0.409   5.215   5.899 -2.0368  0.5690 -1.7138
11251TIP3    H255169   0.378   5.094   5.814  1.0834 -1.4669 -0.1041
11252TIP3   OH255170   4.670   3.360   2.901 -0.1007 -0.1529 -0.3202
11252TIP3    H155171   4.733   3.324   2.838  3.0878  0.3959  2.3165
11252TIP3    H255172   4.654   3.449   2.869  2.3285  0.5093  0.0520
11253TIP3   OH255173   0.064   5.920   5.815  0.7230  0.2714 -0.2989
11253TIP3    H155174   0.038   5.980   5.746  1.8215 -0.2885 -1.2516
11253TIP3    H255175  -0.014   5.908   5.869  0.5567  2.7533  0.1143
11254TIP3   OH255176   3.101   6.730  14.533 -0.2276  0.1260 -0.1089
11254TIP3    H155177   3.117   6.807  14.587 -0.1632  0.8993 -1.2120
11254TIP3    H255178   3.024   6.753  14.480 -1.7796 -1.5102  1.2885
11255TIP3   OH255179   4.051   2.099  15.870  0.5965  0.0596 -1.0306
11255TIP3    H155180   4.142   2.128  15.869  0.5493  0.2756 -0.1557
11255TIP3    H255181   4.007   2.156  15.807  0.7698  1.0185 -0.3183
11256TIP3   OH255182   0.794   3.347   5.164  0.0973  0.2241 -0.5404
11256TIP3    H155183   0.743   3.288   5.218  0.9053  1.0085  1.1452
11256TIP3    H255184   0.839   3.404   5.226  0.5606  1.5923 -2.0641
11257TIP3   OH255185   2.154   0.676  14.623 -0.4057  0.1941 -0.2774
11257TIP3    H155186   2.178   0.636  14.539 -1.8703  0.5942 -0.9189
11257TIP3    H255187   2.133   0.767  14.601 -0.8035  0.3095  0.5311
11258TIP3   OH255188   5.050   1.837   1.346  0.2145  0.4696 -0.5199
11258TIP3    H155189   5.043   1.761   1.288  1.2116  0.0516 -0.1094
11258TIP3    H255190   5.138   1.831   1.383 -0.1588  1.1163  0.4984
11259TIP3   OH255191   1.279   2.640  16.964  0.5400 -0.0941  0.4059
11259TIP3    H155192   1.260   2.706  16.897  0.7812  0.5345  0.9509
11259TIP3    H255193   1.361   2.668  17.003  1.1149 -1.2118  0.0440
11260TIP3   OH255194   3.088   0.859  15.784  0.4259 -0.1471 -0.1908
11260TIP3    H155195   3.119   0.823  15.701 -0.4295  1.2531 -1.1671
11260TIP3    H255196   3.120   0.949  15.784  1.1926 -0.3958  1.4526
11261TIP3   OH255197   1.250   3.997   1.907 -0.2536 -0.3720  0.5692
11261TIP3    H155198   1.304   4.048   1.847 -0.9581 -0.1379  0.1208
11261TIP3    H255199   1.177   4.055   1.929 -0.6175 -0.8848  0.7270
11262TIP3   OH255200   2.661   4.778   5.543  0.0415  0.1224  0.6746
11262TIP3    H155201   2.575   4.812   5.569  0.1975  0.3159  0.9407
11262TIP3    H255202   2.647   4.684   5.533 -0.5345  0.3281 -0.6545
11263TIP3   OH255203   1.536   3.343   4.777 -0.5681  0.0794 -0.5892
11263TIP3    H155204   1.592   3.290   4.834 -0.0903  1.4649  0.2959
11263TIP3    H255205   1.454   3.295   4.771 -0.2416 -0.6185  0.3875
11264TIP3   OH255206   4.850   3.235   1.716 -0.1890 -0.2977 -0.6349
11264TIP3    H155207   4.911   3.266   1.782 -1.6437  1.1914  0.0999
11264TIP3    H255208   4.900   3.235   1.634  0.8358  0.7075 -0.0313
11265TIP3   OH255209   3.381   1.158   3.148  0.3540 -0.1623 -0.2160
11265TIP3    H155210   3.371   1.171   3.243 -0.1434 -1.5563 -0.0585
11265TIP3    H255211   3.348   1.239   3.109 -0.1821  0.1085  0.7731
11266TIP3   OH255212   4.013   0.620  12.874  0.5515 -0.1764 -0.5739
11266TIP3    H155213   4.047   0.709  12.880  0.0984 -0.0858  0.7960
11266TIP3    H255214   4.046   0.576  12.952 -0.8460 -0.6434 -0.2236
11267TIP3   OH255215   5.295   5.094   0.233  0.2454 -0.3777 -0.0728
11267TIP3    H155216   5.211   5.122   0.196  1.1353  0.1192 -1.8148
11267TIP3    H255217   5.308   5.151   0.310 -0.5794  0.1683 -0.3272
11268TIP3   OH255218   0.650   1.183  12.802 -0.3873  0.9739  0.0374
11268TIP3    H155219   0.607   1.098  12.793 -0.2156  1.0102 -1.4815
11268TIP3    H255220   0.602   1.241  12.743  0.3125  1.5925  0.0579
11269TIP3   OH255221   4.597   0.981   0.365 -0.4943  0.2704 -0.0319
11269TIP3    H155222   4.678   1.000   0.318 -0.9054 -2.0314 -1.8974
11269TIP3    H255223   4.563   1.066   0.392  0.8204  1.5668 -2.2136
11270TIP3   OH255224   3.139   2.766   0.661  0.3018 -0.4217  0.1907
11270TIP3    H155225   3.050   2.791   0.638  0.9551 -0.0201 -2.2124
11270TIP3    H255226   3.140   2.670   0.653 -0.2618 -0.5671  1.7002
11271TIP3   OH255227   1.989   6.697  13.240 -0.7230  0.3604  0.2303
11271TIP3    H155228   1.922   6.738  13.185 -2.5262 -0.5315  1.6695
11271TIP3    H255229   1.970   6.603  13.234  2.1364 -0.2278 -1.4742
11272TIP3   OH255230   4.050   5.675  15.113  0.0865 -0.1889  0.0727
11272TIP3    H155231   4.098   5.635  15.185  1.3868  0.8850 -0.1658
11272TIP3    H255232   3.962   5.638  15.119  0.3947 -0.7204  1.7103
11273TIP3   OH255233   5.520   4.061   2.459  0.2839 -0.2746 -0.1879
11273TIP3    H155234   5.553   4.137   2.507 -0.7355 -0.3226  0.6265
11273TIP3    H255235   5.558   3.986   2.505  0.8883 -0.2805 -0.6845
11274TIP3   OH255236   0.075   3.546  13.640  0.1933  0.1022 -0.1552
11274TIP3    H155237   0.132   3.468  13.642  2.4709  1.6684  1.6523
11274TIP3    H255238   0.134   3.619  13.622 -1.4293  1.7106  0.6935
11275TIP3   OH255239   1.352   4.029  12.622 -0.0129  0.0337 -0.0382
11275TIP3    H155240   1.362   4.098  12.558 -1.6137 -0.8778 -1.3552
11275TIP3    H255241   1.287   4.062  12.684  2.6030  1.5237  2.1160
11276TIP3   OH255242   4.626   5.863   0.236 -0.1828 -0.9123  0.0682
11276TIP3    H155243   4.535   5.839   0.219 -0.3997  0.1345 -0.2920
11276TIP3    H255244   4.628   5.958   0.229  0.7250 -0.8312  1.1710
11277TIP3   OH255245   3.501   3.158  12.200 -0.3590  0.0453 -0.5618
11277TIP3    H155246   3.437   3.087  12.203  1.3410 -1.5434  0.2342
11277TIP3    H255247   3.489   3.198  12.114 -3.2820  0.7376  0.0434
11278TIP3   OH255248   2.855   4.155  14.854  0.1465  0.2354  0.0897
11278TIP3    H155249   2.903   4.237  14.861  1.3719 -0.5583  2.0692
11278TIP3    H255250   2.924   4.088  14.846 -0.6227 -0.8376  1.7478
11279TIP3   OH255251   4.549   5.093   2.893  0.1259  0.1524  0.5718
11279TIP3    H155252   4.531   5.186   2.876 -1.4001  0.1105  1.7772
11279TIP3    H255253   4.614   5.069   2.827  0.6212  2.0963  0.2967
11280TIP3   OH255254   1.745   1.134  13.371  0.6154  0.1750 -0.0238
11280TIP3    H155255   1.688   1.072  13.418  2.1210 -0.6639  0.7665
11280TIP3    H255256   1.750   1.099  13.282 -0.1882  0.3409 -0.1486
11281TIP3   OH255257   2.292   5.014   4.255  0.0583  0.7670 -0.0298
11281TIP3    H155258   2.251   5.002   4.341 -1.4868  0.1066 -0.8146
11281TIP3    H255259   2.317   5.106   4.253 -1.5462  1.2562  0.4656
11282TIP3   OH255260   2.537   5.064  16.983 -0.0005 -0.7952  0.5904
11282TIP3    H155261   2.544   5.159  16.972  0.7127 -0.9637 -0.5729
11282TIP3    H255262   2.442   5.047  16.979 -0.2285 -0.0392  1.9590
11283TIP3   OH255263   4.253   0.461   5.312 -0.5306 -0.5203 -0.4656
11283TIP3    H155264   4.199   0.519   5.365 -0.9422 -1.1650 -0.1723
11283TIP3    H255265   4.331   0.445   5.365  0.3504  1.0374 -1.2084
11284TIP3   OH255266   3.192   6.396   2.676 -0.0749 -0.2086 -0.5233
11284TIP3    H155267   3.223   6.485   2.694  1.3292 -0.7768 -0.0208
11284TIP3    H255268   3.104   6.393   2.714 -0.4568  1.1853 -1.2269
11285TIP3   OH255269   3.507   0.940  15.945  0.7124  0.2214 -0.4288
11285TIP3    H155270   3.437   0.903  15.998  0.1273 -0.7094 -1.8074
11285TIP3    H255271   3.585   0.891  15.971  0.5298  0.0966 -0.1060
11286TIP3   OH255272   1.896   3.604  13.562 -0.5615  0.1230 -0.2704
11286TIP3    H155273   1.929   3.532  13.509  0.1852  1.1466 -1.2499
11286TIP3    H255274   1.801   3.598  13.554 -0.5163 -0.9181 -0.0959
11287TIP3   OH255275   0.378   6.263  16.446 -0.2961 -0.8696  0.4390
11287TIP3    H155276   0.356   6.305  16.530 -2.1470 -0.2396 -0.3069
11287TIP3    H255277   0.298   6.217  16.421  0.2334 -1.0471 -0.9902
11288TIP3   OH255278   1.784   4.990   3.571  0.2398 -0.6327 -0.5085
11288TIP3    H155279   1.784   5.086   3.577  0.7664 -0.6521 -0.0538
11288TIP3    H255280   1.868   4.965   3.609 -0.9246 -1.4131  1.7556
11289TIP3   OH255281   4.224   4.517   5.366 -0.9385  0.7248 -0.1660
11289TIP3    H155282   4.195   4.436   5.408 -0.4380  0.5556 -0.1424
11289TIP3    H255283   4.201   4.586   5.428  2.2373  0.2742  1.7465
11290TIP3   OH255284   2.610   1.919  15.388 -0.4090 -0.3519 -0.1956
11290TIP3    H155285   2.689   1.927  15.334 -0.6583  0.3228 -0.4689
11290TIP3    H255286   2.581   1.828  15.375 -0.2488 -0.3089 -0.8930
11291TIP3   OH255287   1.039   1.096   5.331  0.0385 -0.0130 -0.4151
11291TIP3    H155288   0.985   1.168   5.297  0.6480  0.8539  0.4013
11291TIP3    H255289   1.111   1.088   5.268  0.0834  0.2322 -0.3954
11292TIP3   OH255290   0.779   5.430   4.856 -0.4888 -0.3302 -0.0600
11292TIP3    H155291   0.817   5.399   4.773 -2.3249 -0.9392 -0.7406
11292TIP3    H255292   0.774   5.525   4.846 -0.5223 -0.3819 -0.5848
11293TIP3   OH255293   2.037   2.161  12.690 -0.5114 -0.4020  0.0824
11293TIP3    H155294   1.950   2.188  12.718 -0.2315  1.8742 -1.0294
11293TIP3    H255295   2.096   2.201  12.754 -0.1948 -0.6408 -0.0607
11294TIP3   OH255296   0.321   5.530  13.711  0.2391 -0.1459 -0.1094
11294TIP3    H155297   0.249   5.510  13.770 -2.2181  1.0038 -2.4589
11294TIP3    H255298   0.338   5.623  13.726  0.3137 -0.0991 -0.4835
11295TIP3   OH255299   2.600   4.756  11.070  0.4309 -0.3834  0.9481
11295TIP3    H155300   2.643   4.802  10.997  0.2027  1.0619  1.6798
11295TIP3    H255301   2.665   4.694  11.101  1.1688  0.2061  0.6122
11296TIP3   OH255302   1.113   2.598  15.826  0.3950 -0.3696  0.8813
11296TIP3    H155303   1.159   2.626  15.906  1.0249  1.1892  0.0117
11296TIP3    H255304   1.182   2.569  15.767  0.1462  0.4781  0.1459
11297TIP3   OH255305   6.601   2.230  12.486 -0.0572 -0.2939 -0.3980
11297TIP3    H155306   6.669   2.273  12.537 -0.4617  0.8897 -0.8187
11297TIP3    H255307   6.577   2.294  12.419 -0.2066 -1.4442 -1.4879
11298TIP3   OH255308   1.343   4.273  13.551  0.1544 -0.2688  0.1265
11298TIP3    H155309   1.393   4.211  13.603 -0.0293 -0.0193  0.6051
11298TIP3    H255310   1.402   4.348  13.539  1.0819 -1.2713 -2.0446
11299TIP3   OH255311   0.355   1.300   5.469 -0.1350  0.1834  0.3422
11299TIP3    H155312   0.301   1.376   5.447 -0.3890 -0.3504 -0.9611
11299TIP3    H255313   0.294   1.227   5.470  0.1565 -0.0630  1.3222
11300TIP3   OH255314   5.039   0.120   3.164 -0.2436  0.0101  0.1993
11300TIP3    H155315   5.031   0.205   3.206  2.0771  0.4999 -0.1863
11300TIP3    H255316   5.037   0.057   3.236  2.3337  0.7430  1.0323
11301TIP3   OH255317   1.177   2.669   1.540  0.1049  0.1189 -0.2354
11301TIP3    H155318   1.104   2.731   1.533 -0.0467  0.3381  2.4414
11301TIP3    H255319   1.210   2.661   1.450 -1.9995  1.4612 -1.2065
11302TIP3   OH255320   5.060   3.202  16.272 -0.1866 -0.4841 -0.4780
11302TIP3    H155321   5.106   3.144  16.333 -0.5808  0.0894  0.3662
11302TIP3    H255322   4.999   3.144  16.226 -2.8860 -0.3465  2.5439
11303TIP3   OH255323   5.538   1.631  12.274  0.6465 -0.3370  0.0814
11303TIP3    H155324   5.470   1.662  12.334 -0.7832 -1.1085 -1.0913
11303TIP3    H255325   5.580   1.558  12.320 -1.9424 -2.4286 -0.6548
11304TIP3   OH255326   5.067   2.425   5.639  0.5537  0.3031 -0.4014
11304TIP3    H155327   5.007   2.396   5.708  0.4283 -0.4404 -0.8172
11304TIP3    H255328   5.009   2.460   5.571  0.5626 -0.7384 -0.9545
11305TIP3   OH255329   5.302   3.446  14.645  0.1976  0.0998  0.1763
11305TIP3    H155330   5.265   3.404  14.723  0.9716 -0.3935  0.2842
11305TIP3    H255331   5.236   3.510  14.619  0.8514  1.8849  2.5387
11306TIP3   OH255332   1.273   2.250  16.948  0.1325 -0.0825 -0.1096
11306TIP3    H155333   1.185   2.215  16.965  0.2997 -0.0132  0.9971
11306TIP3    H255334   1.327   2.211  17.017  0.6773  1.0014  0.0882
11307TIP3   OH255335   4.656   6.590   2.315 -0.1155  0.4408 -0.1021
11307TIP3    H155336   4.602   6.667   2.335 -1.1740 -0.1021 -0.8316
11307TIP3    H255337   4.641   6.573   2.222  0.8584 -0.0845 -0.1786
11308TIP3   OH255338   2.270   6.598  11.853 -0.2364  0.1051 -0.6350
11308TIP3    H155339   2.237   6.688  11.843 -1.0708 -0.2703 -1.4114
11308TIP3    H255340   2.310   6.579  11.768  0.3457 -0.1005 -0.3161
11309TIP3   OH255341   4.088   6.253  15.975  0.1510 -0.6312  0.0976
11309TIP3    H155342   4.140   6.296  16.044  1.1375 -2.0239  0.2559
11309TIP3    H255343   4.000   6.248  16.012  0.4566 -0.5070  0.8762
11310TIP3   OH255344   2.509   2.821  16.956  0.7902  0.4402 -0.0589
11310TIP3    H155345   2.462   2.792  16.877 -0.5366  0.9274  0.5226
11310TIP3    H255346   2.477   2.910  16.971  1.9930  0.8295  0.3228
11311TIP3   OH255347   1.525   0.706  15.525  0.3237 -0.0378 -0.5945
11311TIP3    H155348   1.594   0.643  15.546 -1.0132 -0.4489  3.4310
11311TIP3    H255349   1.561   0.791  15.551  1.1569  0.6093 -3.5580
11312TIP3   OH255350   2.681   3.267   3.651 -0.2162 -0.3037  0.1621
11312TIP3    H155351   2.625   3.324   3.704  0.8041 -2.1791  3.5324
11312TIP3    H255352   2.634   3.258   3.568 -1.9590  2.7924  0.6413
11313TIP3   OH255353   5.233   2.552   5.246  0.3731 -0.5041  0.4766
11313TIP3    H155354   5.280   2.550   5.329 -0.2915 -2.4762  0.8367
11313TIP3    H255355   5.207   2.462   5.230 -1.8456  0.2366 -0.5554
11314TIP3   OH255356   5.500   1.980  15.684 -0.4574 -0.0114  0.4655
11314TIP3    H155357   5.475   1.972  15.592  0.2656 -0.3924  0.2923
11314TIP3    H255358   5.460   2.061  15.714  2.7241  2.4373 -1.3429
11315TIP3   OH255359   6.137   4.877  13.986  0.1887 -0.2570  0.1369
11315TIP3    H155360   6.087   4.871  13.905 -0.3451 -0.7665  0.4999
11315TIP3    H255361   6.193   4.799  13.985  1.5644  0.6808 -0.6312
11316TIP3   OH255362   3.020   0.597   2.311 -0.2095 -0.0557 -0.3208
11316TIP3    H155363   3.032   0.553   2.396  1.1108 -0.4792 -0.6926
11316TIP3    H255364   2.930   0.579   2.287  0.0765 -2.0087 -0.1234
11317TIP3   OH255365   2.821   6.206   2.691  0.6724 -0.4331 -0.2822
11317TIP3    H155366   2.727   6.194   2.677  0.4113  0.0925  0.8750
11317TIP3    H255367   2.833   6.301   2.689  0.8958 -0.4179  1.1662
11318TIP3   OH255368   4.039   2.786  14.061 -0.1344  0.0470 -0.7016
11318TIP3    H155369   3.969   2.750  14.116  1.5407 -1.1721  0.7142
11318TIP3    H255370   4.010   2.769  13.972 -1.9817  0.2595 -0.1907
11319TIP3   OH255371   6.510   6.179   3.536  0.1767  0.0833  0.2333
11319TIP3    H155372   6.500   6.100   3.483 -1.3333  0.1666  0.3604
11319TIP3    H255373   6.516   6.250   3.472  0.2335 -0.0016  0.1439
11320TIP3   OH255374   6.416   3.595   3.736  0.7449 -0.2295  0.3660
11320TIP3    H155375   6.321   3.595   3.728  0.6092 -1.6362  1.5497
11320TIP3    H255376   6.437   3.506   3.765  2.2993  0.4752  1.5017
11321TIP3   OH255377   0.912   4.188  15.299  0.1615 -0.2498  0.2122
11321TIP3    H155378   0.960   4.175  15.381  2.8032  0.8712 -1.0221
11321TIP3    H255379   0.964   4.141  15.234  0.0480  1.6444 -1.3365
11322TIP3   OH255380   5.146   4.020   3.790 -0.4041  0.6793 -0.0894
11322TIP3    H155381   5.127   4.104   3.748 -0.1203  0.5079 -0.5703
11322TIP3    H255382   5.060   3.983   3.810 -0.5350  0.8980 -0.2490
11323TIP3   OH255383   4.004   3.191  12.709  0.5762 -0.3677  0.6370
11323TIP3    H155384   4.022   3.192  12.804  1.3183  1.5016  0.5349
11323TIP3    H255385   3.923   3.240  12.700 -0.5169 -2.1432  0.4223
11324TIP3   OH255386   1.565   0.023   1.313  0.3406  0.0011  0.4981
11324TIP3    H155387   1.473   0.045   1.327  0.8686  2.7499  0.2094
11324TIP3    H255388   1.592  -0.020   1.394 -0.9598  0.0586  0.9807
11325TIP3   OH255389   3.498   2.489   4.157 -0.9703 -0.0108  0.4006
11325TIP3    H155390   3.451   2.536   4.225 -0.2004 -0.1611  1.0620
11325TIP3    H255391   3.541   2.557   4.105 -0.1407  0.0614  1.1442
11326TIP3   OH255392   4.466   0.182  16.716  0.1207 -0.6365  0.1626
11326TIP3    H155393   4.436   0.272  16.726  0.4917 -0.4977  0.0156
11326TIP3    H255394   4.561   0.186  16.725  0.1061 -1.0689  0.5610
11327TIP3   OH255395   5.129   2.389  14.036 -0.7913  0.0324  0.3337
11327TIP3    H155396   5.097   2.453  13.973 -0.7094 -1.5209 -1.3838
11327TIP3    H255397   5.222   2.381  14.018 -0.6988 -0.1651  0.8863
11328TIP3   OH255398   6.744   3.617  14.528  0.4782 -0.3770  0.2019
11328TIP3    H155399   6.652   3.628  14.502  0.3804  0.1645  0.7466
11328TIP3    H255400   6.758   3.523  14.528 -0.1777 -0.4809  0.4323
11329TIP3   OH255401   2.454   4.114  16.246  0.0067 -0.1680 -0.4019
11329TIP3    H155402   2.479   4.052  16.315  0.0687 -1.9236 -1.9334
11329TIP3    H255403   2.409   4.060  16.181  0.2815  1.3729 -1.9281
11330TIP3   OH255404   5.124   4.986  14.586  0.2028 -0.4831 -0.7289
11330TIP3    H155405   5.156   5.016  14.502  1.9586  0.5730  0.2580
11330TIP3    H255406   5.053   5.048  14.608  1.8539  1.2597 -0.0416
11331TIP3   OH255407   0.521   3.391  16.822  0.1217  0.0106  0.1595
11331TIP3    H155408   0.587   3.329  16.855  1.0318  0.3776 -0.9051
11331TIP3    H255409   0.447   3.336  16.796  0.2720 -0.4767  0.7497
11332TIP3   OH255410   2.168   3.375   2.652  0.0847 -0.0097 -0.9307
11332TIP3    H155411   2.230   3.374   2.724 -0.2861  0.4037 -0.5933
11332TIP3    H255412   2.109   3.448   2.673 -0.3160 -0.1913 -1.4049
11333TIP3   OH255413   3.179   2.212   0.216 -0.1647 -0.1404  0.2957
11333TIP3    H155414   3.120   2.286   0.203 -0.3589 -0.5982 -1.8121
11333TIP3    H255415   3.200   2.182   0.127 -0.8411 -3.2157  1.0486
11334TIP3   OH255416   1.260   4.817   5.867 -0.3974 -0.2484 -0.7096
11334TIP3    H155417   1.271   4.728   5.832  1.1905  0.5676 -2.4298
11334TIP3    H255418   1.300   4.813   5.954 -1.5203 -1.5230 -0.2162
11335TIP3   OH255419   2.390   1.767   4.637 -0.4458  0.3285  0.1484
11335TIP3    H155420   2.313   1.751   4.692  0.0867 -1.2255  0.4943
11335TIP3    H255421   2.420   1.680   4.611  1.3016  0.8809  0.1633
11336TIP3   OH255422   1.418   6.585  12.689  0.5143 -1.0325  0.6494
11336TIP3    H155423   1.324   6.583  12.670  0.2809  0.0148  1.5788
11336TIP3    H255424   1.424   6.571  12.784  1.3010 -1.0666  0.6037
11337TIP3   OH255425   1.634   1.873  15.117  0.2891  0.1365  0.2770
11337TIP3    H155426   1.573   1.923  15.172 -0.6346 -0.3159 -0.3103
11337TIP3    H255427   1.618   1.904  15.028  2.7286  1.8419  0.3507
11338TIP3   OH255428   4.371   3.723   0.809  0.2297 -0.2470 -0.5641
11338TIP3    H155429   4.327   3.737   0.893 -0.5367 -1.2882 -0.7717
11338TIP3    H255430   4.338   3.793   0.753 -0.0691 -0.1681 -0.2943
11339TIP3   OH255431   0.621   3.167   5.362  0.0298 -0.2706  0.0224
11339TIP3    H155432   0.577   3.237   5.410  0.4089 -0.4385  0.6182
11339TIP3    H255433   0.557   3.097   5.356  0.2554 -0.5710  1.0179
11340TIP3   OH255434   1.512   2.489   3.263 -0.6657  0.2427 -0.5120
11340TIP3    H155435   1.537   2.526   3.178 -2.4406  0.5673 -0.9402
11340TIP3    H255436   1.534   2.396   3.257  0.0071  0.4277 -0.9990
11341TIP3   OH255437   0.593   5.943   4.249 -0.0025 -0.7164  0.0351
11341TIP3    H155438   0.645   5.922   4.171  1.0562 -0.4077  0.6372
11341TIP3    H255439   0.656   5.937   4.322 -0.8897 -0.6417  0.8210
11342TIP3   OH255440   4.604   4.672  16.093  0.0764 -0.2623  0.1476
11342TIP3    H155441   4.522   4.677  16.044 -0.3130 -0.7505  0.7283
11342TIP3    H255442   4.599   4.744  16.156  0.3683  0.0767 -0.2107
11343TIP3   OH255443   0.639   0.478  14.529 -0.1641  0.5661  0.5622
11343TIP3    H155444   0.565   0.431  14.491 -0.1184  0.9008  0.0539
11343TIP3    H255445   0.715   0.442  14.484 -0.0979  0.8676  0.4331
11344TIP3   OH255446   6.696   1.154   0.698 -0.1377 -0.5143 -0.3291
11344TIP3    H155447   6.683   1.227   0.638  2.5489  0.2140 -0.1498
11344TIP3    H255448   6.697   1.195   0.785 -2.7440 -1.3885  0.1875
11345TIP3   OH255449   1.857   2.911   5.630  0.3544  0.1256 -0.4651
11345TIP3    H155450   1.877   2.879   5.542 -0.0005 -1.5315  0.0392
11345TIP3    H255451   1.888   2.843   5.689 -0.4434  0.6837  0.6465
11346TIP3   OH255452   2.436   6.031  16.798  0.0211 -0.3522  0.0048
11346TIP3    H155453   2.417   6.077  16.880  0.3169 -2.3196  1.2579
11346TIP3    H255454   2.355   6.038  16.747 -0.1479  0.9664  0.4167
11347TIP3   OH255455   3.430   4.242  12.098 -0.0629  0.4052  0.2178
11347TIP3    H155456   3.351   4.270  12.145 -0.4011 -0.0860 -0.0429
11347TIP3    H255457   3.406   4.157  12.061  1.2894 -0.8120  1.9642
11348TIP3   OH255458   1.407   6.636   4.898  0.3267  0.1383  0.3350
11348TIP3    H155459   1.491   6.679   4.914 -0.9681  3.6704 -1.3673
11348TIP3    H255460   1.430   6.557   4.848  2.6692  0.2787  1.0567
11349TIP3   OH255461   1.358   1.219   3.119  0.6347 -0.3463  0.3802
11349TIP3    H155462   1.339   1.284   3.050  3.7883 -0.0590 -0.3481
11349TIP3    H255463   1.279   1.165   3.123 -1.0328  1.8286 -0.9278
11350TIP3   OH255464   1.327   4.868   0.496 -0.0755  0.3719 -0.1091
11350TIP3    H155465   1.264   4.807   0.535  0.2507  0.9819  1.4315
11350TIP3    H255466   1.411   4.842   0.533  0.3999  0.3607 -1.1776
11351TIP3   OH255467   0.477   1.820   0.149  0.6391 -0.0275 -0.2441
11351TIP3    H155468   0.403   1.865   0.109  1.2638  1.7959  0.4997
11351TIP3    H255469   0.478   1.733   0.109 -0.4031  0.7536 -2.0869
11352TIP3   OH255470   0.557   0.665   5.065 -0.1470 -0.4836  0.2771
11352TIP3    H155471   0.627   0.612   5.026 -0.7208 -1.1536  0.1290
11352TIP3    H255472   0.477   0.625   5.031 -0.5890  1.5605 -1.2888
11353TIP3   OH255473   2.539   6.255  13.670  0.1490 -0.2882 -0.1239
11353TIP3    H155474   2.513   6.254  13.578 -2.6661  1.2672  0.5486
11353TIP3    H255475   2.506   6.173  13.705 -1.0416  0.2283  0.0045
11354TIP3   OH255476   6.716   0.115  15.034  0.3365 -0.1005  0.2718
11354TIP3    H155477   6.739   0.180  15.100  0.4787  0.7375 -0.5827
11354TIP3    H255478   6.710   0.165  14.952  1.4598 -1.3097 -0.5924
11355TIP3   OH255479   5.428   0.077   4.030  0.1114 -0.2930 -0.4831
11355TIP3    H155480   5.456   0.084   4.121 -1.0474 -0.1475 -0.1216
11355TIP3    H255481   5.367   0.004   4.029 -0.4972  0.2110 -0.9828
11356TIP3   OH255482   4.652   2.883   2.132 -0.5778  0.3014 -0.2015
11356TIP3    H155483   4.593   2.820   2.173  1.2924 -1.3989  0.0437
11356TIP3    H255484   4.671   2.947   2.200 -0.9399 -0.0156  0.1961
11357TIP3   OH255485   0.633   0.114   2.637 -0.4603 -0.1085  0.2613
11357TIP3    H155486   0.590   0.101   2.552  0.9062 -0.4153 -0.4062
11357TIP3    H255487   0.674   0.200   2.630  0.8226 -0.7118  0.0630
11358TIP3   OH255488   5.263   1.788  11.268 -0.2880  0.3367  0.2414
11358TIP3    H155489   5.267   1.884  11.266 -1.8770  0.4313  0.0571
11358TIP3    H255490   5.236   1.764  11.179  1.9181 -0.4354 -0.2718
11359TIP3   OH255491   3.235   4.861  12.266  0.5431  0.2390  0.1147
11359TIP3    H155492   3.264   4.951  12.284  1.3589  0.1356 -0.5802
11359TIP3    H255493   3.182   4.869  12.187 -0.7097  0.3122  0.9367
11360TIP3   OH255494   0.904   5.560  14.258 -0.2325 -1.0251  0.7742
11360TIP3    H155495   0.875   5.638  14.210 -0.6382 -1.0030  1.0477
11360TIP3    H255496   0.922   5.496  14.190  0.3215 -0.6225  0.5354
11361TIP3   OH255497   6.197   6.659  14.944  0.4596  0.0727  0.2577
11361TIP3    H155498   6.197   6.593  15.013  1.9543 -1.8112 -1.4311
11361TIP3    H255499   6.153   6.617  14.870  0.8062  1.2357 -0.6394
11362TIP3   OH255500   5.413   6.528  12.710 -0.1279  0.1898  0.1309
11362TIP3    H155501   5.329   6.495  12.745  0.8521 -1.0394  1.4456
11362TIP3    H255502   5.448   6.581  12.781  1.0045 -0.7571  0.3076
11363TIP3   OH255503   2.449   6.566  16.987  0.1415  0.1546  0.0827
11363TIP3    H155504   2.442   6.661  16.981 -0.0423  0.1167 -0.2854
11363TIP3    H255505   2.405   6.545  17.070 -0.9972  0.2654 -0.4840
11364TIP3   OH255506   3.729   2.020  14.463 -0.0178  0.3353  0.3052
11364TIP3    H155507   3.737   2.111  14.489 -0.8014  0.5881 -0.3063
11364TIP3    H255508   3.793   2.009  14.392  1.4868 -0.1258  1.6719
11365TIP3   OH255509   1.467   2.047  10.394 -0.0147  0.1789  0.0524
11365TIP3    H155510   1.435   1.999  10.317  0.1303  1.1455 -0.6405
11365TIP3    H255511   1.460   1.985  10.466 -2.5485  0.0145 -0.2410
11366TIP3   OH255512   2.969   1.514  10.882 -0.1438  0.1850 -0.4239
11366TIP3    H155513   2.971   1.602  10.921  0.1784 -0.3184  0.7217
11366TIP3    H255514   3.013   1.525  10.797  1.1936  0.8510  0.3252
11367TIP3   OH255515   5.945   1.221   4.694 -0.1975 -0.1507  0.2271
11367TIP3    H155516   5.994   1.143   4.670  0.7323  0.2384  0.7878
11367TIP3    H255517   5.926   1.210   4.787 -2.5213 -0.9833 -0.2799
11368TIP3   OH255518   4.741   2.773  13.172  0.3931 -0.2295  0.0287
11368TIP3    H155519   4.691   2.816  13.241  1.0952 -1.1689  1.1554
11368TIP3    H255520   4.832   2.778  13.202  0.5617 -1.9188 -0.1037
11369TIP3   OH255521   4.890   0.751  11.200 -0.0017  0.5349  0.1614
11369TIP3    H155522   4.858   0.700  11.125 -1.8481  2.5853 -0.5810
11369TIP3    H255523   4.865   0.700  11.276  3.2267 -2.3523 -0.4554
11370TIP3   OH255524   5.386   1.027  15.613 -0.3439  0.0497  0.5862
11370TIP3    H155525   5.383   0.937  15.583  0.3998  0.2990 -0.2923
11370TIP3    H255526   5.417   1.077  15.537 -1.6529  1.1875  0.7359
11371TIP3   OH255527   1.681   0.342  13.664  0.0765 -0.2587 -0.3157
11371TIP3    H155528   1.642   0.280  13.727 -0.7362  2.6753  2.3561
11371TIP3    H255529   1.773   0.349  13.691  0.4149 -0.9690 -1.2386
11372TIP3   OH255530   1.052   2.673   6.658  0.3128  0.3526  0.3338
11372TIP3    H155531   1.065   2.742   6.593 -1.7488  0.9670  0.4995
11372TIP3    H255532   1.057   2.718   6.742 -2.6038  0.6734  0.4078
11373TIP3   OH255533   6.581   3.687   6.136 -0.6070 -0.1614 -0.4833
11373TIP3    H155534   6.558   3.776   6.108 -1.4545  0.0872  0.8776
11373TIP3    H255535   6.619   3.699   6.223  0.5108 -1.0293 -0.8354
11374TIP3   OH255536   5.041   6.178  11.162 -0.1192  0.2955  0.2143
11374TIP3    H155537   5.021   6.184  11.256  1.1872 -0.1036  0.5505
11374TIP3    H255538   5.098   6.254  11.146  2.4024 -1.4160  0.5449
11375TIP3   OH255539   4.957   5.862  12.347  0.5602  0.4646 -0.5986
11375TIP3    H155540   5.040   5.847  12.393 -0.6653 -0.9700  1.3321
11375TIP3    H255541   4.920   5.774  12.336 -0.8084  1.0845 -1.1920
11376TIP3   OH255542   0.662   5.276   3.199 -0.0252 -0.3835  0.6029
11376TIP3    H155543   0.683   5.228   3.119  1.3961 -1.6811  1.6746
11376TIP3    H255544   0.744   5.321   3.222  0.0511 -1.1857  2.0400
11377TIP3   OH255545   6.146   0.508   0.457 -0.0346  0.2830 -0.0815
11377TIP3    H155546   6.165   0.503   0.364 -0.5868 -3.2029 -0.1305
11377TIP3    H255547   6.231   0.506   0.500  0.2201  1.9532 -0.4609
11378TIP3   OH255548   6.671   5.522  11.077 -0.5094  0.9504 -0.3220
11378TIP3    H155549   6.603   5.457  11.059 -1.6606  1.0041  3.0958
11378TIP3    H255550   6.727   5.520  10.999 -2.0986 -2.0346 -1.5753
11379TIP3   OH255551   3.459   0.511   1.018 -0.4924  0.1786 -0.3798
11379TIP3    H155552   3.408   0.510   0.937  1.7221  1.1470 -1.9020
11379TIP3    H255553   3.395   0.496   1.087 -2.4685 -0.7844 -2.2954
11380TIP3   OH255554   3.286   3.465  15.169 -0.5169 -0.0480 -0.4437
11380TIP3    H155555   3.283   3.369  15.168  0.6545 -0.1074 -0.8159
11380TIP3    H255556   3.371   3.486  15.130 -0.6384  1.1386 -0.1078
11381TIP3   OH255557   5.114   0.622   4.682  0.2288  0.3563  0.8914
11381TIP3    H155558   5.049   0.585   4.623  0.5610  1.0690  0.0614
11381TIP3    H255559   5.198   0.606   4.640  0.4686  0.9154  1.1399
11382TIP3   OH255560   5.492   0.938  16.027  0.1988  0.7297  0.3574
11382TIP3    H155561   5.468   1.013  16.080  1.0478  0.9918  0.3932
11382TIP3    H255562   5.509   0.974  15.940  2.3143  0.8874  0.7851
11383TIP3   OH255563   4.552   2.591  13.521 -0.5059 -0.2561  0.0585
11383TIP3    H155564   4.522   2.512  13.566 -1.7227  0.3620  0.3381
11383TIP3    H255565   4.545   2.568  13.428 -1.0830 -0.4009  0.1326
11384TIP3   OH255566   3.279   4.514  13.305 -0.4674  0.1529  0.4615
11384TIP3    H155567   3.234   4.565  13.237 -1.6036 -0.8373  0.4370
11384TIP3    H255568   3.223   4.438  13.318  1.0204 -0.9229  0.7421
11385TIP3   OH255569   5.829   6.551   3.478 -0.1346  0.1309 -0.7484
11385TIP3    H155570   5.885   6.614   3.433  0.5428  0.4464  0.4994
11385TIP3    H255571   5.876   6.531   3.559 -2.5393  1.6261  1.1482
11386TIP3   OH255572   1.978   5.704  14.921 -0.5563  0.1547 -0.8315
11386TIP3    H155573   1.890   5.689  14.887 -1.1262  1.3476  0.0387
11386TIP3    H255574   1.964   5.732  15.012  0.7184  0.4105 -0.6979
11387TIP3   OH255575   2.437   1.051   4.172  0.2740  0.0180  0.2251
11387TIP3    H155576   2.349   1.082   4.190  0.2370 -0.1594  0.3553
11387TIP3    H255577   2.471   1.023   4.257  0.9031  1.2032  0.3720
11388TIP3   OH255578   2.902   6.693   5.565 -0.2878 -0.3942 -0.1776
11388TIP3    H155579   2.894   6.637   5.642  0.2067  0.0203  0.1790
11388TIP3    H255580   2.812   6.708   5.536 -0.5413  0.2841  0.9246
11389TIP3   OH255581   5.880   4.265  15.098  0.1682  0.5335  0.1528
11389TIP3    H155582   5.958   4.264  15.153  1.3722  1.9940 -1.4414
11389TIP3    H255583   5.897   4.333  15.033 -2.3534  0.7310 -0.3810
11390TIP3   OH255584   3.657   0.126  12.808 -0.0592  0.5055 -0.1164
11390TIP3    H155585   3.697   0.049  12.848 -1.5690  1.0290  2.6689
11390TIP3    H255586   3.694   0.130  12.720  0.4256 -3.0872 -0.2029
11391TIP3   OH255587   3.724   6.766   0.140 -0.0224  0.2993  0.2690
11391TIP3    H155588   3.707   6.813   0.222  1.4089  3.0580 -0.8895
11391TIP3    H255589   3.787   6.821   0.093  0.4546 -1.9934 -2.0057
11392TIP3   OH255590   2.610   6.118  16.339  0.5882 -0.2323 -0.2332
11392TIP3    H155591   2.597   6.160  16.424 -1.3198 -1.0538 -0.0756
11392TIP3    H255592   2.563   6.035  16.345 -1.5384  0.6353 -2.7763
11393TIP3   OH255593   4.863   4.463   3.228 -0.7528  0.2507  0.4051
11393TIP3    H155594   4.826   4.527   3.289 -0.4681  2.0233 -1.1809
11393TIP3    H255595   4.820   4.482   3.145 -0.0231 -1.0942 -0.3068
11394TIP3   OH255596   1.205   5.187   5.469  0.1445 -0.2894 -0.1979
11394TIP3    H155597   1.145   5.126   5.511 -0.6525  1.0463  0.6795
11394TIP3    H255598   1.149   5.254   5.430  0.9792  2.1505  2.4080
11395TIP3   OH255599   4.281   5.077   3.530 -0.2644 -0.0396 -0.2583
11395TIP3    H155600   4.356   5.105   3.583  0.5940 -1.4307 -0.6801
11395TIP3    H255601   4.272   5.145   3.464  0.4871  0.2757 -0.0512
11396TIP3   OH255602   1.330   1.992   1.904  0.2620  0.4580  0.2209
11396TIP3    H155603   1.353   2.037   1.823 -1.0354  0.2508 -0.2959
11396TIP3    H255604   1.292   1.909   1.876  0.2311  0.1743  1.0592
11397TIP3   OH255605   4.693   3.099   3.028 -0.0771 -0.5695 -0.2050
11397TIP3    H155606   4.610   3.142   3.011  0.0011 -0.9449 -1.7263
11397TIP3    H255607   4.759   3.166   3.013  0.0040 -0.9582 -1.8039
11398TIP3   OH255608   1.713   3.321  14.326  0.2000 -0.3614  0.3214
11398TIP3    H155609   1.698   3.409  14.291 -0.8063 -1.1459 -1.3490
11398TIP3    H255610   1.666   3.321  14.410 -0.5626  0.4281 -0.0856
11399TIP3   OH255611   0.055   0.126   0.421  0.1693 -0.0466  0.3082
11399TIP3    H155612   0.057   0.033   0.442  0.8538 -0.2627 -0.6785
11399TIP3    H255613  -0.004   0.164   0.487 -0.0386 -1.1490  0.7765
11400TIP3   OH255614   0.564   1.457   5.531 -0.4263  0.2678  0.0756
11400TIP3    H155615   0.547   1.505   5.450  0.3978  0.8825  0.2508
11400TIP3    H255616   0.491   1.395   5.539 -1.4017  1.3505 -0.2606
11401TIP3   OH255617   2.868   1.973  15.515  0.3740 -0.3021  0.0580
11401TIP3    H155618   2.888   1.961  15.423 -0.4187 -1.2937 -0.0068
11401TIP3    H255619   2.810   2.049  15.518  0.0998 -0.4974 -0.3044
11402TIP3   OH255620   0.414   6.024   0.743  0.2172  0.2760  0.0398
11402TIP3    H155621   0.344   6.074   0.702 -1.7194 -0.4706  2.1789
11402TIP3    H255622   0.475   6.004   0.672 -1.5833  1.2163 -1.8724
11403TIP3   OH255623   6.198   4.426   0.090 -0.0278 -0.0206 -0.4998
11403TIP3    H155624   6.289   4.419   0.060 -0.0273  0.3435 -0.5885
11403TIP3    H255625   6.173   4.336   0.113  0.1251 -0.2401 -1.1543
11404TIP3   OH255626   4.201   1.810   5.248  0.3246  0.5409  0.3850
11404TIP3    H155627   4.266   1.859   5.198 -0.3745 -0.0019 -1.1182
11404TIP3    H255628   4.205   1.848   5.336  1.1675  1.9498 -0.2239
11405TIP3   OH255629   4.116   5.738   5.302 -0.0451 -0.1127 -0.0711
11405TIP3    H155630   4.117   5.696   5.216  1.3715  1.1428 -0.7120
11405TIP3    H255631   4.077   5.672   5.360  0.0531 -1.4428 -1.4442
11406TIP3   OH255632   6.505   5.192  10.709 -0.1304  0.1611  0.2275
11406TIP3    H155633   6.527   5.166  10.620 -2.2319  1.2127 -0.6759
11406TIP3    H255634   6.577   5.249  10.736  1.9606 -2.3491  0.3471
11407TIP3   OH255635   2.214   5.071  11.465 -0.0966 -0.1267  0.0846
11407TIP3    H155636   2.178   5.058  11.552 -0.3579 -0.6071 -0.0914
11407TIP3    H255637   2.235   4.983  11.434  0.5706  0.0851 -0.0963
11408TIP3   OH255638   1.272   4.015  15.595  0.3911  0.3060 -0.0169
11408TIP3    H155639   1.367   4.001  15.595  0.2435 -1.0122 -1.4384
11408TIP3    H255640   1.235   3.930  15.570 -1.1816  0.7784  0.5802
11409TIP3   OH255641   2.619   0.794  15.276  0.5189  0.3477  0.1094
11409TIP3    H155642   2.632   0.870  15.220  3.1781 -0.6003 -0.7355
11409TIP3    H255643   2.612   0.720  15.215  0.4344 -0.3620  0.9531
11410TIP3   OH255644   0.265   0.463   4.116 -0.0071  0.4883 -0.4638
11410TIP3    H155645   0.224   0.547   4.096  0.1471  0.3835 -1.2676
11410TIP3    H255646   0.207   0.422   4.181 -0.2111  1.1071 -0.2527
11411TIP3   OH255647   3.820   0.113   3.494 -0.1175 -0.1582  0.7534
11411TIP3    H155648   3.750   0.053   3.469  0.8612 -0.7806 -0.5664
11411TIP3    H255649   3.810   0.188   3.435  0.5200 -0.3999  0.3305
11412TIP3   OH255650   3.139   2.972  17.025  0.5077 -0.3945 -0.3503
11412TIP3    H155651   3.220   2.969  17.076 -0.1230 -0.3762  0.6773
11412TIP3    H255652   3.091   2.894  17.053 -0.0163 -0.1783 -0.6394
11413TIP3   OH255653   0.374   4.085   4.542  0.1625  0.5155  0.6492
11413TIP3    H155654   0.433   4.011   4.527  0.0646  0.9617 -2.5401
11413TIP3    H255655   0.289   4.054   4.512 -0.5097  1.0475  1.9241
11414TIP3   OH255656   2.524   1.727  16.837  0.2032  0.4203  0.2877
11414TIP3    H155657   2.559   1.781  16.766 -0.3421  1.5799  0.8725
11414TIP3    H255658   2.573   1.755  16.914 -1.0225  1.0603  0.8486
11415TIP3   OH255659   0.175   5.079   1.140 -0.3002  0.4271 -0.3099
11415TIP3    H155660   0.164   5.005   1.200 -0.4771  1.3571  0.8522
11415TIP3    H255661   0.097   5.076   1.084 -0.7973  0.3024  0.3760
11416TIP3   OH255662   6.535   6.145  15.648  0.3988 -0.3433  0.3305
11416TIP3    H155663   6.600   6.081  15.674  1.8470  0.5962 -0.7931
11416TIP3    H255664   6.582   6.229  15.651 -0.9049  0.4250 -0.0202
11417TIP3   OH255665   6.211   1.658   5.705  0.1374 -0.2325 -0.3595
11417TIP3    H155666   6.204   1.637   5.798 -0.2190 -0.6807 -0.4860
11417TIP3    H255667   6.271   1.593   5.669  1.6953  0.9951 -0.1193
11418TIP3   OH255668   6.387   0.071  13.295  0.3725  0.0445 -0.3661
11418TIP3    H155669   6.437   0.069  13.377  1.1318  1.5624 -0.7337
11418TIP3    H255670   6.452   0.051  13.228  0.3651  1.3076 -0.7855
11419TIP3   OH255671   3.041   2.941   4.280 -0.0632 -0.6758 -0.0614
11419TIP3    H155672   2.955   2.902   4.295 -1.8101  1.6349 -2.9395
11419TIP3    H255673   3.072   2.901   4.198  0.1188  0.6967 -0.6990
11420TIP3   OH255674   4.803   0.272   5.357 -0.3595  0.1795  0.2802
11420TIP3    H155675   4.778   0.311   5.441 -1.0583 -0.5419  0.4209
11420TIP3    H255676   4.745   0.314   5.294 -1.0353 -0.5210  0.4161
11421TIP3   OH255677   3.923   4.024  16.077  0.7113  0.2561  0.5981
11421TIP3    H155678   3.990   3.959  16.101 -0.7746 -0.6642  2.5129
11421TIP3    H255679   3.973   4.097  16.041  2.4963 -1.6559 -1.0686
11422TIP3   OH255680   6.245   3.536  12.247 -0.0120  0.1745  0.1029
11422TIP3    H155681   6.246   3.600  12.319  0.8123 -0.3743  0.5925
11422TIP3    H255682   6.158   3.495  12.253 -0.6540  1.4063 -0.3759
11423TIP3   OH255683   4.956   3.008  12.841  0.1206 -0.7616 -0.1278
11423TIP3    H155684   4.974   2.916  12.857  0.1114 -1.0198 -1.5171
11423TIP3    H255685   5.022   3.035  12.777  1.5836  0.8096  1.8998
11424TIP3   OH255686   2.439   0.683  14.006  0.7115  0.1082 -0.1929
11424TIP3    H155687   2.407   0.665  13.918  1.9664 -1.2263 -0.4185
11424TIP3    H255688   2.532   0.660  14.003  1.2343  1.8913  0.9825
11425TIP3   OH255689   4.420   0.313  14.576  0.2915  0.3048 -0.3112
11425TIP3    H155690   4.478   0.297  14.501 -0.6058  0.8185 -1.1333
11425TIP3    H255691   4.434   0.405  14.599  1.2740 -0.0877  0.8025
11426TIP3   OH255692   4.299   0.280   1.425 -0.5143  0.2627  0.1881
11426TIP3    H155693   4.283   0.372   1.402 -3.5024 -0.1130  0.3764
11426TIP3    H255694   4.218   0.251   1.465  1.3690 -1.6686  3.0212
11427TIP3   OH255695   2.655   5.892   3.551 -0.2824 -0.8521  0.2342
11427TIP3    H155696   2.577   5.837   3.556 -0.3934 -0.6122  2.5352
11427TIP3    H255697   2.699   5.878   3.635  0.5527  1.3121  0.2265
11428TIP3   OH255698   6.777   4.027  16.713  0.1229 -0.6697  0.0747
11428TIP3    H155699   6.830   4.029  16.793  0.3585  2.0067 -0.0455
11428TIP3    H255700   6.732   4.112  16.712 -2.7819 -2.0924 -0.7822
11429TIP3   OH255701   2.996   6.043  13.426 -0.2598 -0.5506  0.4715
11429TIP3    H155702   3.012   5.996  13.344 -0.6814 -0.6352  0.4325
11429TIP3    H255703   2.900   6.046  13.433 -0.2346  0.2012  0.5342
11430TIP3   OH255704   6.441   3.568   5.096 -0.1928  0.2207  0.2874
11430TIP3    H155705   6.504   3.557   5.168  0.2740 -0.7189 -0.2512
11430TIP3    H255706   6.483   3.525   5.021 -2.0769 -1.6942  0.2471
11431TIP3   OH255707   5.635   4.557  12.570  0.4478  0.1436 -0.3273
11431TIP3    H155708   5.559   4.555  12.629  1.7941 -0.5105  1.4758
11431TIP3    H255709   5.600   4.591  12.488 -1.8221 -0.2314  0.3979
11432TIP3   OH255710   1.825   2.504  10.973  0.5380 -0.0449 -0.0626
11432TIP3    H155711   1.829   2.409  10.965  1.7093 -0.1321  1.1917
11432TIP3    H255712   1.809   2.535  10.884 -0.7467 -1.4424 -0.3597
11433TIP3   OH255713   4.692   6.423   2.777  0.1904 -0.3603 -0.0848
11433TIP3    H155714   4.693   6.343   2.724 -1.1785  0.6233 -1.6742
11433TIP3    H255715   4.757   6.480   2.735 -0.9107  0.4290 -0.7644
11434TIP3   OH255716   0.446   3.037   0.847 -0.2442  0.0642 -0.1445
11434TIP3    H155717   0.371   2.987   0.879  0.9206 -0.9357  1.2106
11434TIP3    H255718   0.461   3.005   0.758 -0.0562 -1.4406  0.3930
11435TIP3   OH255719   0.810   6.307  11.193 -0.1215  0.3394 -0.1964
11435TIP3    H155720   0.850   6.277  11.112 -2.1311 -0.3924 -0.9887
11435TIP3    H255721   0.728   6.348  11.166 -0.1369  1.4534  1.3644
11436TIP3   OH255722   3.273   5.001  15.994 -0.4583  0.3582  0.3206
11436TIP3    H155723   3.283   5.068  15.926  0.7429  1.6381  1.6915
11436TIP3    H255724   3.197   5.031  16.045  0.0718  0.6910  0.9261
11437TIP3   OH255725   3.135   3.937  16.313 -0.4799 -0.4202  0.5132
11437TIP3    H155726   3.147   4.016  16.366 -0.7833  0.1216 -0.2105
11437TIP3    H255727   3.221   3.896  16.312  0.9911  2.3274 -2.8961
11438TIP3   OH255728   4.617   4.353  13.027 -0.0814  0.0571 -1.0087
11438TIP3    H155729   4.540   4.409  13.025 -1.6285 -1.8535  0.6036
11438TIP3    H255730   4.583   4.265  13.046  2.5623 -0.6711  1.0866
11439TIP3   OH255731   0.723   0.306  12.671 -0.1196  0.1448  0.6944
11439TIP3    H155732   0.670   0.342  12.742 -0.5636 -2.2597  1.6606
11439TIP3    H255733   0.723   0.375  12.605 -1.0942  1.7963  2.3207
11440TIP3   OH255734   1.556   2.478   4.502 -0.1077  0.4384  0.4123
11440TIP3    H155735   1.540   2.386   4.521 -2.6149  0.1555 -2.3140
11440TIP3    H255736   1.651   2.484   4.491  0.0332 -2.0630 -0.2841
11441TIP3   OH255737   6.513   0.783  12.451 -0.1951 -0.4179  0.0969
11441TIP3    H155738   6.592   0.753  12.406 -0.8614 -1.8002 -0.1918
11441TIP3    H255739   6.504   0.875  12.424  1.8242  0.0766  0.9132
11442TIP3   OH255740   4.361   6.454   2.598 -0.5812 -0.1180  0.4076
11442TIP3    H155741   4.344   6.360   2.588 -0.2174 -0.2936  1.3815
11442TIP3    H255742   4.441   6.469   2.547 -0.3053 -0.4598  0.7314
11443TIP3   OH255743   0.618   5.026   6.320  0.6075 -0.0789  0.5152
11443TIP3    H155744   0.697   4.982   6.289  0.0760  0.1071 -1.1716
11443TIP3    H255745   0.546   4.980   6.276 -0.1691  0.4665  1.1737
11444TIP3   OH255746   4.968   5.631   2.286 -0.4321  0.3328  0.0352
11444TIP3    H155747   4.932   5.716   2.310 -0.2504  0.9007 -1.5325
11444TIP3    H255748   5.050   5.652   2.241  1.0293 -0.8339  1.9899
11445TIP3   OH255749   5.609   1.079   4.727 -0.3788 -0.8964  0.0543
11445TIP3    H155750   5.634   0.994   4.691  0.1599 -0.4711 -0.5821
11445TIP3    H255751   5.537   1.108   4.672  0.0268 -0.5350 -0.2880
11446TIP3   OH255752   5.461   6.287   3.729 -0.2373 -0.0279 -0.7425
11446TIP3    H155753   5.503   6.226   3.790  1.6968  0.2399 -1.7086
11446TIP3    H255754   5.509   6.275   3.647 -0.5772  1.9674 -1.2779
11447TIP3   OH255755   6.506   3.539   4.645  0.1623 -0.5553 -0.4089
11447TIP3    H155756   6.438   3.511   4.584 -0.2305 -1.7940  0.5549
11447TIP3    H255757   6.468   3.614   4.691 -0.3289 -0.8717 -0.2898
11448TIP3   OH255758   4.724   2.988   2.420  0.1887 -0.0773 -0.4815
11448TIP3    H155759   4.814   2.957   2.418 -0.1405 -1.2511  1.0391
11448TIP3    H255760   4.731   3.083   2.427  1.2699 -0.0593 -1.5210
11449TIP3   OH255761   4.947   6.104   4.920 -0.3450  0.6154 -0.4708
11449TIP3    H155762   4.930   6.035   4.985 -2.4201  1.1167 -0.4079
11449TIP3    H255763   4.864   6.152   4.915  1.0684  3.2042 -0.4092
11450TIP3   OH255764   6.497   0.511   0.478  0.2707 -0.0963  0.1830
11450TIP3    H155765   6.549   0.470   0.410 -1.5226 -0.2179 -1.1777
11450TIP3    H255766   6.486   0.602   0.449 -0.3258 -0.0862  0.4268
11451TIP3   OH255767   5.661   1.564  13.107 -0.1213  0.4353 -0.0798
11451TIP3    H155768   5.724   1.574  13.179  1.1412 -0.0823 -1.0817
11451TIP3    H255769   5.628   1.653  13.092  0.0747  0.6505  0.7099
11452TIP3   OH255770   0.892   3.399  12.391 -0.0099  0.4728  0.2424
11452TIP3    H155771   0.974   3.356  12.415  0.2811  0.0830 -1.3406
11452TIP3    H255772   0.903   3.490  12.418  0.8420  0.3661  0.2594
11453TIP3   OH255773   3.662   1.218   3.998  0.3739  0.1714  0.3412
11453TIP3    H155774   3.629   1.142   4.046  0.3032  1.1718  1.9507
11453TIP3    H255775   3.648   1.196   3.906 -2.6609 -0.4253  0.8353
11454TIP3   OH255776   2.865   5.334  13.728  0.2885  0.1722  0.2067
11454TIP3    H155777   2.829   5.415  13.692 -0.0148 -0.2641 -0.4897
11454TIP3    H255778   2.950   5.325  13.685 -0.3566 -0.6968 -0.9549
11455TIP3   OH255779   3.771   0.857   4.123 -0.3274  0.3786 -0.1899
11455TIP3    H155780   3.687   0.872   4.080 -0.3928  2.7332  0.6127
11455TIP3    H255781   3.758   0.889   4.212  1.5325  1.2710 -0.1872
11456TIP3   OH255782   1.713   0.367   4.412  0.7812  0.0770 -0.1462
11456TIP3    H155783   1.755   0.409   4.337 -0.5154 -1.7669 -2.0275
11456TIP3    H255784   1.636   0.323   4.375  1.4062 -2.9627  1.7941
11457TIP3   OH255785   0.090   5.184   1.532  0.2589 -0.1142  0.3167
11457TIP3    H155786   0.025   5.176   1.462 -0.6863  2.0492  0.8535
11457TIP3    H255787   0.104   5.279   1.540  0.5518 -0.3163  2.8781
11458TIP3   OH255788   1.941   4.172   6.355 -0.4559 -0.0921 -0.3237
11458TIP3    H155789   2.013   4.216   6.401 -0.5317  1.0426 -1.2532
11458TIP3    H255790   1.955   4.192   6.263 -2.2300  0.5584 -0.4875
11459TIP3   OH255791   3.670   6.230   0.996 -0.6420 -0.5834 -0.3947
11459TIP3    H155792   3.682   6.135   1.002 -0.7775 -0.6080 -0.5324
11459TIP3    H255793   3.576   6.244   1.008 -0.5595 -0.4282  0.1180
11460TIP3   OH255794   5.460   2.256  14.619 -0.0036 -0.5139  0.0170
11460TIP3    H155795   5.530   2.253  14.554 -1.0605 -1.0034 -1.1295
11460TIP3    H255796   5.431   2.348  14.619  0.6428 -0.3032  0.5169
11461TIP3   OH255797   2.083   1.844  13.612 -0.4773  0.4005 -0.1123
11461TIP3    H155798   2.018   1.871  13.546 -1.1449 -0.2031  0.2778
11461TIP3    H255799   2.124   1.766  13.574 -3.2689 -2.0956  1.5409
11462TIP3   OH255800   6.515   1.703  14.224  0.9199  0.1739 -0.1993
11462TIP3    H155801   6.575   1.702  14.149  0.1644 -0.1644 -0.8216
11462TIP3    H255802   6.472   1.789  14.218  0.6039  0.0068 -0.3743
11463TIP3   OH255803   2.464   4.641   1.302 -0.2522  0.4680 -0.1660
11463TIP3    H155804   2.418   4.690   1.234 -2.7468 -0.6246  0.6111
11463TIP3    H255805   2.395   4.605   1.356  1.4748 -2.4606  0.3112
11464TIP3   OH255806   5.189   4.403   4.328 -0.6594 -0.4126 -0.2383
11464TIP3    H155807   5.218   4.316   4.301 -0.4549 -0.4279  0.0365
11464TIP3    H255808   5.094   4.395   4.337 -0.7035 -0.4737 -0.7055
11465TIP3   OH255809   5.233   3.310   4.210  0.4697 -0.4051  0.2843
11465TIP3    H155810   5.233   3.295   4.305 -1.5878 -1.1163  0.2263
11465TIP3    H255811   5.157   3.261   4.178  0.7428  0.3470 -1.6622
11466TIP3   OH255812   3.284   3.007  11.378 -1.0578  0.0839 -0.3593
11466TIP3    H155813   3.333   3.082  11.412  0.0152 -0.4490 -0.7039
11466TIP3    H255814   3.346   2.961  11.322 -0.9572 -2.3353  1.5709
11467TIP3   OH255815   5.310   4.270  16.105 -0.6163  0.0353 -0.3051
11467TIP3    H155816   5.266   4.208  16.047 -1.6726  1.4133 -1.0245
11467TIP3    H255817   5.303   4.230  16.192  0.5993 -1.8380 -1.0325
11468TIP3   OH255818   0.838   3.266   1.834  0.0487  0.0877  0.5968
11468TIP3    H155819   0.934   3.265   1.841  0.2223 -0.9637 -1.3840
11468TIP3    H255820   0.819   3.345   1.783 -0.1067  0.0063  0.5300
11469TIP3   OH255821   3.923   6.627   1.157  0.1670  0.4758  0.7139
11469TIP3    H155822   3.923   6.627   1.061  1.5890  1.2650  0.6962
11469TIP3    H255823   3.862   6.557   1.181  0.4275 -0.2861 -0.7651
11470TIP3   OH255824   0.481   3.422  13.074 -0.4732 -0.0544  0.0760
11470TIP3    H155825   0.437   3.350  13.031  1.0234  0.0578 -1.7590
11470TIP3    H255826   0.494   3.392  13.164 -2.3990 -0.8712  0.1229
11471TIP3   OH255827   6.521   2.175   2.937 -0.0554 -0.7528 -0.2069
11471TIP3    H155828   6.488   2.243   2.878 -2.5726 -0.9295  0.8637
11471TIP3    H255829   6.594   2.135   2.889  0.9277  2.0394 -1.2478
11472TIP3   OH255830   6.423   3.172  13.386 -0.5869  0.1271 -0.5250
11472TIP3    H155831   6.449   3.090  13.428 -2.3010 -0.8338 -1.2068
11472TIP3    H255832   6.481   3.238  13.424  0.9194 -1.4039 -0.0392
11473TIP3   OH255833   5.163   5.850   5.916 -0.2418 -0.4988  0.0548
11473TIP3    H155834   5.160   5.928   5.861  0.5181 -0.2004  0.4288
11473TIP3    H255835   5.215   5.875   5.992 -1.1590 -0.9497  0.8647
11474TIP3   OH255836   3.796   3.221   0.820  0.2052  0.4087 -0.0834
11474TIP3    H155837   3.731   3.264   0.876  0.8814 -0.4407  1.4284
11474TIP3    H255838   3.756   3.221   0.733 -2.8580 -1.9932  1.1143
11475TIP3   OH255839   4.170   3.362   1.588 -0.2397  0.1175 -0.0681
11475TIP3    H155840   4.185   3.280   1.540  0.5311 -0.0388  0.4240
11475TIP3    H255841   4.134   3.334   1.672  0.9047  0.2167  0.4658
11476TIP3   OH255842   0.855   1.460   0.491 -0.0944 -0.7364  0.5117
11476TIP3    H155843   0.816   1.501   0.568 -0.5746  0.5223 -0.3856
11476TIP3    H255844   0.788   1.398   0.460 -0.3809 -0.3778  0.4128
11477TIP3   OH255845   5.964   0.848   0.111  0.1973 -0.3768 -0.3389
11477TIP3    H155846   5.901   0.777   0.121 -2.1963  1.5024 -1.1740
11477TIP3    H255847   6.013   0.825   0.032 -0.1136 -1.3716 -0.2607
11478TIP3   OH255848   0.725   0.754  11.049  0.0876  0.4813  0.0698
11478TIP3    H155849   0.725   0.743  11.144  1.0533 -1.9463 -0.1265
11478TIP3    H255850   0.635   0.731  11.023 -0.0674  0.7471  0.3691
11479TIP3   OH255851   6.688   2.171  12.922  0.4008 -0.0116  0.1908
11479TIP3    H155852   6.726   2.137  12.841  2.5781  3.3467 -0.3902
11479TIP3    H255853   6.617   2.229  12.893 -1.4684 -1.7808  1.0001
11480TIP3   OH255854   2.180   5.076   5.447 -0.4782 -0.2517 -0.0018
11480TIP3    H155855   2.273   5.061   5.429 -0.6102  0.5075 -1.4199
11480TIP3    H255856   2.170   5.055   5.540  0.9745 -0.9708  0.0174
11481TIP3   OH255857   4.076   6.684  12.719  0.4488  0.8842 -0.0282
11481TIP3    H155858   4.119   6.770  12.723  0.4834  0.8641  0.0267
11481TIP3    H255859   3.993   6.697  12.765  0.8897  0.6270  0.8503
11482TIP3   OH255860   4.137   3.569  16.164  0.4574  0.3611 -0.3873
11482TIP3    H155861   4.217   3.544  16.119  1.1812  0.2870  0.8871
11482TIP3    H255862   4.151   3.542  16.255 -0.6699  1.1103  0.0336
11483TIP3   OH255863   1.416   1.002   0.097  0.0635  0.0319 -0.4521
11483TIP3    H155864   1.449   1.059   0.166 -1.0989 -1.2366  1.2277
11483TIP3    H255865   1.482   0.933   0.089 -0.2070 -0.2880  0.0226
11484TIP3   OH255866   3.781   5.776   5.135  0.4540  0.0595  0.6236
11484TIP3    H155867   3.818   5.816   5.214  0.5258 -1.3041  1.3096
11484TIP3    H255868   3.706   5.726   5.166 -1.8220  2.4253 -0.6899
11485TIP3   OH255869   4.890   5.170  11.207  1.0306 -0.2302  0.0750
11485TIP3    H155870   4.825   5.145  11.272  1.5617 -0.2663  0.6012
11485TIP3    H255871   4.848   5.152  11.123  0.2327  0.0799  0.3993
11486TIP3   OH255872   6.704   3.026   2.672 -0.0006  0.0931 -0.0360
11486TIP3    H155873   6.667   2.997   2.756  1.6490  1.3537  1.1990
11486TIP3    H255874   6.645   3.096   2.644 -0.7261 -0.5259 -0.0969
11487TIP3   OH255875   3.920   1.616   2.247 -0.4088  0.2038  0.2486
11487TIP3    H155876   3.953   1.676   2.314 -0.6938  0.6085  0.0239
11487TIP3    H255877   3.835   1.650   2.223 -0.5495 -0.2585  0.0742
11488TIP3   OH255878   1.326   5.011  15.063 -0.1978  0.0747 -0.2285
11488TIP3    H155879   1.325   5.094  15.016 -0.1045 -0.9432 -2.1474
11488TIP3    H255880   1.390   4.958  15.015 -1.4014 -1.6274 -0.0518
11489TIP3   OH255881   4.661   4.510   4.245 -0.2798 -0.2603 -0.4598
11489TIP3    H155882   4.628   4.422   4.260  2.2477 -1.4691 -1.3481
11489TIP3    H255883   4.633   4.531   4.156 -0.2227 -0.5072 -0.5364
11490TIP3   OH255884   6.530   3.169  15.670 -0.2844 -0.0015  0.2950
11490TIP3    H155885   6.567   3.163  15.581  1.0596  0.7487  0.7692
11490TIP3    H255886   6.539   3.080  15.705  1.3937  0.1986  0.4781
11491TIP3   OH255887   3.127   0.286  15.595 -0.2097  0.3170 -0.8612
11491TIP3    H155888   3.042   0.296  15.552 -0.5391 -0.4707 -0.4182
11491TIP3    H255889   3.191   0.309  15.528 -0.7957  2.2099 -0.8191
11492TIP3   OH255890   5.024   0.495  16.107  0.3172 -0.2561  0.0565
11492TIP3    H155891   5.033   0.445  16.026 -1.7852 -0.7079  0.0403
11492TIP3    H255892   4.936   0.534  16.102  0.1864 -0.1693  2.0291
11493TIP3   OH255893   4.889   3.782   6.565 -0.2959  0.2415 -0.0122
11493TIP3    H155894   4.820   3.722   6.537 -1.9043  2.4731 -1.1301
11493TIP3    H255895   4.947   3.790   6.489  0.5144 -0.6202  0.4860
11494TIP3   OH255896   4.540   4.447   1.077 -0.0210  0.3231 -0.0548
11494TIP3    H155897   4.531   4.374   1.138 -0.0433  0.0072 -0.4359
11494TIP3    H255898   4.540   4.525   1.133  1.0458 -0.0203  0.4350
11495TIP3   OH255899   2.898   2.911  16.289 -0.0273  0.2775 -0.0535
11495TIP3    H155900   2.804   2.924  16.278 -0.1737 -0.2965  0.4486
11495TIP3    H255901   2.932   2.901  16.200 -0.9226 -2.5294 -0.1772
11496TIP3   OH255902   3.313   5.055   0.492  0.3000  0.2252  0.2269
11496TIP3    H155903   3.352   4.968   0.502  0.0596  0.2801  1.9023
11496TIP3    H255904   3.248   5.045   0.423  1.5852 -0.4410 -0.9486
11497TIP3   OH255905   5.159   3.355   2.436  0.0055 -0.3467  0.5544
11497TIP3    H155906   5.166   3.408   2.514 -0.5083 -0.7985  0.9171
11497TIP3    H255907   5.204   3.405   2.368 -0.0824  0.3319  0.9914
11498TIP3   OH255908   6.507   0.454  12.708 -0.3949  0.4545 -0.9937
11498TIP3    H155909   6.489   0.548  12.715  1.6736  0.8819 -0.7376
11498TIP3    H255910   6.504   0.423  12.799  0.9431  0.7343 -0.8247
11499TIP3   OH255911   0.804   0.936   1.346 -0.3913 -0.3417  0.1990
11499TIP3    H155912   0.823   1.024   1.378 -0.3438 -0.8737  1.7194
11499TIP3    H255913   0.835   0.935   1.256  1.3575  0.6195  0.7595
11500TIP3   OH255914   4.111   4.840   5.708  0.2312 -0.0085 -0.3244
11500TIP3    H155915   4.048   4.812   5.775  0.0525  0.2500 -0.3804
11500TIP3    H255916   4.188   4.866   5.758  0.5136 -0.8741 -0.2904
11501TIP3   OH255917   1.784   0.194  11.789 -0.0291 -0.3321  0.6520
11501TIP3    H155918   1.692   0.189  11.763  0.0396 -2.2035  0.6449
11501TIP3    H255919   1.826   0.242  11.718 -0.7823 -0.5752  0.0261
11502TIP3   OH255920   4.623   4.230  13.647 -0.4706  0.1192  0.2224
11502TIP3    H155921   4.645   4.230  13.554 -1.5262  0.9985 -0.0396
11502TIP3    H255922   4.529   4.246  13.650 -0.7220 -1.3363  1.3962
11503TIP3   OH255923   1.632   1.908   3.490  0.3120 -0.5248 -0.0411
11503TIP3    H155924   1.547   1.882   3.455  1.0708  0.5619 -2.9602
11503TIP3    H255925   1.694   1.846   3.453  0.8698 -1.2133  1.9309
11504TIP3   OH255926   1.264   0.536  13.096 -0.7244 -0.2710  0.3977
11504TIP3    H155927   1.358   0.555  13.100 -1.0227  1.2642  0.6740
11504TIP3    H255928   1.225   0.612  13.054 -2.1729  0.4857  2.9089
11505TIP3   OH255929   2.559   3.011   4.279  0.3425 -0.8020 -0.3962
11505TIP3    H155930   2.630   3.071   4.303  0.1374 -0.0984 -1.4669
11505TIP3    H255931   2.488   3.032   4.340  1.4343 -2.3824  1.5271
11506TIP3   OH255932   1.398   5.131   0.666 -0.6067 -0.4134 -0.3456
11506TIP3    H155933   1.468   5.068   0.651  0.0049  0.5057 -1.5284
11506TIP3    H255934   1.337   5.086   0.723  0.2820 -1.7279 -0.3934
11507TIP3   OH255935   3.194   4.133   0.648 -0.2763  0.0479  0.2973
11507TIP3    H155936   3.238   4.055   0.614  2.1865  1.5564 -0.2393
11507TIP3    H255937   3.160   4.177   0.570  0.0449  0.4503  0.3784
11508TIP3   OH255938   6.327   2.639  11.715  0.1714 -0.3254 -0.1128
11508TIP3    H155939   6.387   2.583  11.666 -0.8749  1.1827 -3.4791
11508TIP3    H255940   6.257   2.580  11.742 -0.6521 -0.9131 -3.1009
11509TIP3   OH255941   4.335   6.160   0.752  1.0763 -0.5254 -0.2011
11509TIP3    H155942   4.369   6.249   0.744  1.3848 -0.6470 -0.2482
11509TIP3    H255943   4.331   6.144   0.846 -2.3490  0.8245  0.0414
11510TIP3   OH255944   4.900   6.441  14.611 -0.7033 -0.2082  0.3410
11510TIP3    H155945   4.938   6.395  14.536  1.8429  1.5812  0.4039
11510TIP3    H255946   4.850   6.513  14.573 -1.4256 -0.7097  0.3295
11511TIP3   OH255947   6.777   2.078  16.715  0.1541 -0.5869 -0.1650
11511TIP3    H155948   6.684   2.097  16.699 -0.1179 -2.4253 -0.9978
11511TIP3    H255949   6.820   2.094  16.631  0.6177  0.2106  0.2044
11512TIP3   OH255950   2.123   0.751   0.400  0.1808 -0.4079 -0.5656
11512TIP3    H155951   2.187   0.696   0.445  0.3481 -0.5124 -0.9318
11512TIP3    H255952   2.072   0.690   0.346  1.0387 -0.0853 -1.7748
11513TIP3   OH255953   5.200   0.737  14.175 -0.2640 -0.6479 -0.4038
11513TIP3    H155954   5.154   0.713  14.095 -1.3419  0.8750 -0.2862
11513TIP3    H255955   5.161   0.820  14.201  2.8754  1.0130 -0.5458
11514TIP3   OH255956   6.409   2.610   6.015  0.3643 -0.8766 -0.1460
11514TIP3    H155957   6.478   2.566   5.966  1.4387 -0.9815  1.3787
11514TIP3    H255958   6.455   2.652   6.088 -1.2468 -1.6016  1.3664
11515TIP3   OH255959   3.941   0.741   0.610  0.4048 -0.1604 -0.6163
11515TIP3    H155960   3.876   0.811   0.620  1.5154  0.7968  0.1905
11515TIP3    H255961   3.945   0.699   0.696  0.7019 -0.3519 -0.7226
11516TIP3   OH255962   4.677   3.948   5.485  0.2892  0.2194 -0.1779
11516TIP3    H155963   4.658   3.904   5.402 -1.0894 -0.0213  0.2454
11516TIP3    H255964   4.638   3.892   5.552 -0.6151  1.5690  0.4517
11517TIP3   OH255965   2.153   0.008  16.276 -0.3140  0.1668  0.2877
11517TIP3    H155966   2.156  -0.031  16.363 -0.8702  0.9866  0.6838
11517TIP3    H255967   2.226   0.071  16.275 -0.1763  0.0048  0.0842
11518TIP3   OH255968   4.174   4.486  15.733 -0.3276 -0.2118  0.0956
11518TIP3    H155969   4.195   4.576  15.707 -0.5086 -0.4366 -0.9021
11518TIP3    H255970   4.258   4.444  15.749 -0.0922 -0.4466 -1.5543
11519TIP3   OH255971   3.583   6.741   5.270  0.0994  0.5618 -0.1660
11519TIP3    H155972   3.640   6.772   5.199 -0.0588  2.9090  0.6518
11519TIP3    H255973   3.629   6.664   5.305  0.4994 -0.2662 -2.3504
11520TIP3   OH255974   0.233   2.615  14.954  0.1447 -0.1473  0.5770
11520TIP3    H155975   0.282   2.647  14.878 -0.1136 -0.1724  0.3992
11520TIP3    H255976   0.169   2.684  14.971 -1.5808 -1.2795 -0.8671
11521TIP3   OH255977   3.947   6.201  12.250  0.2622 -0.2562  0.1235
11521TIP3    H155978   4.028   6.238  12.215  0.7092  0.2625  1.6228
11521TIP3    H255979   3.907   6.156  12.176  0.7886  1.3761 -1.2159
11522TIP3   OH255980   0.745   1.582   0.705  0.0910  0.5260  0.1619
11522TIP3    H155981   0.776   1.531   0.780  0.3046  0.8155  0.2709
11522TIP3    H255982   0.653   1.557   0.695  0.0613  0.4947  0.5243
11523TIP3   OH255983   4.739   4.253  14.350  0.0614  0.0962 -0.1782
11523TIP3    H155984   4.756   4.232  14.258 -0.1382  0.8566 -0.3986
11523TIP3    H255985   4.717   4.347  14.350 -0.0578  0.0813  0.6283
11524TIP3   OH255986   0.624   6.534   0.630 -0.0799 -0.4179 -0.5870
11524TIP3    H155987   0.665   6.535   0.717 -1.2309  2.2474  0.0406
11524TIP3    H255988   0.607   6.442   0.612 -1.1908 -0.9729  2.7211
11525TIP3   OH255989   6.396   1.361   1.843  0.0560  0.0889  0.1239
11525TIP3    H155990   6.360   1.274   1.859  2.7607 -0.9291  1.3415
11525TIP3    H255991   6.449   1.351   1.763  0.0368  0.7368  0.0247
11526TIP3   OH255992   5.685   0.570   5.294 -0.3480  0.4954  0.3836
11526TIP3    H155993   5.626   0.621   5.349 -0.1781  0.4108  0.6447
11526TIP3    H255994   5.773   0.592   5.326 -0.2961 -0.3115  0.8012
11527TIP3   OH255995   1.718   4.359  11.926  0.5226 -0.3324  0.7826
11527TIP3    H155996   1.797   4.410  11.906 -0.1012  0.2538 -0.2884
11527TIP3    H255997   1.748   4.269  11.931  1.1932 -0.1624 -0.0248
11528TIP3   OH255998   4.492   2.650   2.125 -0.1233  0.4432 -0.0093
11528TIP3    H155999   4.459   2.616   2.042 -0.7151 -2.2110  1.1807
11528TIP3    H256000   4.575   2.604   2.138  0.5526  1.7151  0.3435
11529TIP3   OH256001   6.611   2.195  14.714  0.3631 -0.1978 -0.2617
11529TIP3    H156002   6.639   2.250  14.787 -2.4261  0.4735  0.4086
11529TIP3    H256003   6.666   2.222  14.641  1.2359  1.1972  0.8619
11530TIP3   OH256004   1.245   3.939   1.518  0.1915 -0.2162 -0.3808
11530TIP3    H156005   1.183   3.867   1.528 -0.2118  0.4123  2.6868
11530TIP3    H256006   1.325   3.908   1.561  0.2801  0.8286  0.2496
11531TIP3   OH256007   6.779   6.495  16.653 -0.4882 -0.3606 -0.1017
11531TIP3    H156008   6.745   6.416  16.610 -0.3450 -0.3353 -0.2654
11531TIP3    H256009   6.856   6.465  16.700 -0.7817 -0.4319  0.3328
11532TIP3   OH256010   2.056   5.253   5.244  0.3667 -0.4207 -0.6240
11532TIP3    H156011   2.079   5.292   5.329 -0.6457 -0.3622 -0.3644
11532TIP3    H256012   2.078   5.161   5.254  0.4745 -0.3723 -0.3799
11533TIP3   OH256013   5.960   3.238   4.421 -0.3810  0.9088 -0.0758
11533TIP3    H156014   5.894   3.253   4.490 -0.9834  0.2785 -0.4948
11533TIP3    H256015   6.026   3.183   4.463 -2.3879 -2.3863 -0.7994
11534TIP3   OH256016   0.693   6.502   1.641  0.0548  0.1725 -0.4932
11534TIP3    H156017   0.632   6.483   1.570  0.0002  2.0138 -0.9804
11534TIP3    H256018   0.643   6.557   1.702 -0.0185 -1.6367  1.2121
11535TIP3   OH256019   6.115   1.657   0.324 -0.6790 -0.7029 -0.0962
11535TIP3    H156020   6.096   1.583   0.383  1.6947 -0.8464  0.5667
11535TIP3    H256021   6.071   1.633   0.242  0.9411 -3.5059 -0.3060
11536TIP3   OH256022   1.968   2.462   3.137 -0.0609 -0.2045 -0.2043
11536TIP3    H156023   2.055   2.494   3.112 -0.0042  0.3417  0.6642
11536TIP3    H256024   1.986   2.380   3.183  0.1050  0.4654  0.9726
11537TIP3   OH256025   4.717   5.182   0.695 -0.1772 -0.1831  0.2645
11537TIP3    H156026   4.741   5.172   0.787 -0.7202  1.3837  0.5996
11537TIP3    H256027   4.703   5.275   0.684 -0.5507 -0.4066 -1.3123
11538TIP3   OH256028   6.573   3.515  13.983 -0.2493 -0.3220 -0.2640
11538TIP3    H156029   6.644   3.451  13.974 -0.3358 -0.2838 -1.3124
11538TIP3    H256030   6.512   3.475  14.045  0.5771 -0.4464  0.4868
11539TIP3   OH256031   4.688   1.326  12.957  0.6495  0.3659 -0.2116
11539TIP3    H156032   4.609   1.380  12.956  1.5225  1.7218 -1.1426
11539TIP3    H256033   4.732   1.350  13.039 -0.2003 -0.9072  0.6514
11540TIP3   OH256034   2.101   0.626  13.050  0.2982 -0.2205 -0.7856
11540TIP3    H156035   2.117   0.532  13.043  0.1601 -0.3293  0.1774
11540TIP3    H256036   2.188   0.664  13.056  0.3423 -0.4012 -0.0893
11541TIP3   OH256037   4.780   6.571  11.817  0.0311  0.3317 -0.7814
11541TIP3    H156038   4.696   6.582  11.772  0.4124  0.2871 -1.5128
11541TIP3    H256039   4.778   6.638  11.886 -0.4198  0.6244 -1.0693
11542TIP3   OH256040   4.142   2.779  15.440 -0.6020  0.1323  0.2860
11542TIP3    H156041   4.160   2.862  15.485 -0.5092  0.7577 -0.8669
11542TIP3    H256042   4.072   2.739  15.491  1.3580 -0.5563  2.6584
11543TIP3   OH256043   6.548   6.632   2.238  0.5681  0.6701 -0.1768
11543TIP3    H156044   6.544   6.721   2.203 -0.5614  0.8584  0.3566
11543TIP3    H256045   6.457   6.610   2.257  1.0363  0.4725  2.2769
11544TIP3   OH256046   4.987   1.188   5.961 -0.0226 -0.0749 -0.8324
11544TIP3    H156047   4.989   1.245   6.038 -1.7682  0.8931 -1.4388
11544TIP3    H256048   4.934   1.113   5.988 -1.4530  0.7182 -1.3285
11545TIP3   OH256049   0.030   3.269  16.623 -0.0157 -0.0251  0.2176
11545TIP3    H156050  -0.035   3.199  16.628 -0.5848  0.2051 -2.2811
11545TIP3    H256051  -0.018   3.348  16.646 -0.4366  0.0208 -0.7456
11546TIP3   OH256052   1.455   4.876   0.158  0.4945 -0.2304  0.1207
11546TIP3    H156053   1.401   4.827   0.219 -0.0630  0.8810  0.5491
11546TIP3    H256054   1.477   4.957   0.204  2.0228 -0.3707 -0.2749
11547TIP3   OH256055   0.180   2.699  10.504  0.1753 -0.1507 -0.9140
11547TIP3    H156056   0.256   2.647  10.531  0.8571  1.5383  0.6361
11547TIP3    H256057   0.111   2.675  10.566 -0.2864 -0.9507 -1.7092
11548TIP3   OH256058   2.821   2.815  11.280 -0.5467 -0.6211 -0.5447
11548TIP3    H156059   2.834   2.880  11.349 -0.4766 -0.5644 -0.6114
11548TIP3    H256060   2.740   2.841  11.237 -1.7213 -1.8247  0.8300
11549TIP3   OH256061   1.421   5.111   0.297  0.0123  0.4895 -0.6568
11549TIP3    H156062   1.379   5.159   0.226  2.4478  0.8796 -1.9366
11549TIP3    H256063   1.405   5.164   0.375 -0.5707  1.3820 -1.3678
11550TIP3   OH256064   4.387   0.991  16.553 -0.2234 -0.4523  0.1502
11550TIP3    H156065   4.374   0.942  16.472 -2.3328 -0.1974  0.2621
11550TIP3    H256066   4.298   1.017  16.579  0.6686  2.3622  0.7478
11551TIP3   OH256067   1.964   6.771  14.815 -0.1387 -0.3078  0.4188
11551TIP3    H156068   1.981   6.708  14.746 -0.3048 -1.3194  1.2787
11551TIP3    H256069   1.962   6.856  14.770  0.7312 -0.8298 -0.6514
11552TIP3   OH256070   5.412   0.035   2.186 -0.4648 -0.2543 -0.6609
11552TIP3    H156071   5.390   0.128   2.189  0.3091 -0.0749 -0.2317
11552TIP3    H256072   5.328  -0.010   2.184 -0.9198  0.5021 -3.5193
11553TIP3   OH256073   2.581   5.368  15.432 -0.4636 -0.2264  0.0126
11553TIP3    H156074   2.545   5.395  15.517  1.4433 -0.6326  1.0003
11553TIP3    H256075   2.543   5.430  15.370 -2.3087 -0.2391  1.0708
11554TIP3   OH256076   3.449   4.653  12.251  0.2495 -0.1957 -0.0690
11554TIP3    H156077   3.398   4.690  12.323  1.8529  1.6961  0.2062
11554TIP3    H256078   3.424   4.706  12.175  0.9918  0.0242 -0.1633
11555TIP3   OH256079   5.821   0.931  16.467 -0.2649 -0.3984 -0.3366
11555TIP3    H156080   5.880   1.000  16.497 -2.4030  0.6370  1.8811
11555TIP3    H256081   5.776   0.969  16.391  0.7750 -0.6071 -1.0748
11556TIP3   OH256082   6.534   3.333  13.101  0.7061 -0.2032  0.0461
11556TIP3    H156083   6.605   3.320  13.164 -0.2646 -1.5715  0.9018
11556TIP3    H256084   6.565   3.292  13.021  2.2432  2.1464 -0.6797
11557TIP3   OH256085   1.938   0.368   4.562  0.2508 -0.2260 -0.2183
11557TIP3    H156086   1.843   0.378   4.557  0.1125 -1.6989 -1.3730
11557TIP3    H256087   1.969   0.387   4.473  0.8428 -1.1737 -0.2386
11558TIP3   OH256088   4.064   1.129  11.825  0.4662 -0.0678 -0.3628
11558TIP3    H156089   4.029   1.137  11.736  1.0769  0.4237 -0.5689
11558TIP3    H256090   4.153   1.096  11.812  1.4015  2.1646 -0.1080
11559TIP3   OH256091   4.240   1.482   1.211 -0.1828 -0.3099  0.0990
11559TIP3    H156092   4.307   1.431   1.255 -2.0361 -0.4096  3.0585
11559TIP3    H256093   4.253   1.572   1.243 -1.2489 -0.2897  0.5318
11560TIP3   OH256094   6.651   0.349  13.634  0.3081  0.0766  0.2798
11560TIP3    H156095   6.725   0.289  13.628 -0.1924 -0.4701 -0.6293
11560TIP3    H256096   6.601   0.319  13.710 -0.0183 -0.7681 -0.2577
11561TIP3   OH256097   5.566   3.272   3.070  0.1545 -0.6337 -0.3747
11561TIP3    H156098   5.579   3.297   2.978  1.0920 -2.1996 -0.7058
11561TIP3    H256099   5.518   3.189   3.065 -0.5825 -0.2790  0.5885
11562TIP3   OH256100   2.622   1.394   0.273  0.0146  0.1168  0.3175
11562TIP3    H156101   2.532   1.370   0.250  0.4968 -3.4327  1.5390
11562TIP3    H256102   2.659   1.426   0.191 -1.7678 -0.3511 -0.7305
11563TIP3   OH256103   6.327   5.570  11.081  0.8151  0.2763  0.3566
11563TIP3    H156104   6.363   5.502  11.024 -0.1972 -0.0744  0.1282
11563TIP3    H256105   6.233   5.568  11.065  0.7176  1.4177  0.6955
11564TIP3   OH256106   2.368   6.478   4.920  0.3158 -0.2204  0.1158
11564TIP3    H156107   2.353   6.567   4.952 -0.3539  0.4459 -1.8687
11564TIP3    H256108   2.284   6.434   4.929  0.1878 -0.1036 -0.4709
11565TIP3   OH256109   3.152   2.465   2.535  0.5320  0.1207 -0.1624
11565TIP3    H156110   3.166   2.478   2.441  0.5318 -1.9067 -0.4853
11565TIP3    H256111   3.180   2.548   2.575  2.6524  0.2746 -1.7641
11566TIP3   OH256112   3.730   6.693   2.741 -0.7922  0.6122  0.3842
11566TIP3    H156113   3.802   6.725   2.795  1.5814 -0.7756 -1.7317
11566TIP3    H256114   3.719   6.601   2.767 -1.0626  0.5282 -0.0121
11567TIP3   OH256115   6.072   3.355   0.029  0.4152  0.2331 -0.6004
11567TIP3    H156116   6.013   3.406  -0.026 -2.1995  0.4993  2.1661
11567TIP3    H256117   6.090   3.412   0.104  0.3549 -1.5307  0.8433
11568TIP3   OH256118   6.649   2.502   1.451  0.0794  0.4906  0.5422
11568TIP3    H156119   6.686   2.424   1.409  0.5401 -0.4001  2.4542
11568TIP3    H256120   6.725   2.556   1.472 -0.2161  1.3411 -0.5046
11569TIP3   OH256121   4.517   3.525   5.771 -0.2300  0.0721  0.2063
11569TIP3    H156122   4.571   3.524   5.849 -1.3158 -0.7375  0.9708
11569TIP3    H256123   4.538   3.443   5.726  1.0012  0.9032 -0.8215
11570TIP3   OH256124   5.846   2.411   1.928 -0.7732 -0.1805  0.0760
11570TIP3    H156125   5.930   2.456   1.922 -1.1408  0.5495  0.2809
11570TIP3    H256126   5.868   2.318   1.925 -0.0310  0.0155 -0.6896
11571TIP3   OH256127   5.727   2.609  16.033 -0.2848  0.0211  0.3850
11571TIP3    H156128   5.768   2.659  16.103 -0.0456  0.1648  0.1441
11571TIP3    H256129   5.714   2.673  15.962 -1.0702  0.0202  0.5132
11572TIP3   OH256130   5.981   2.176   1.979 -0.1720  0.0554  0.5001
11572TIP3    H156131   6.032   2.207   2.054 -0.3495  0.7561  0.3387
11572TIP3    H256132   5.940   2.095   2.010 -0.0668  0.2209  1.0909
11573TIP3   OH256133   0.823   1.242  16.321  0.0283  0.0598  0.2222
11573TIP3    H156134   0.804   1.150  16.342  1.1982 -0.0414  0.8915
11573TIP3    H256135   0.850   1.240  16.229 -1.0808 -0.0848 -0.1184
11574TIP3   OH256136   4.428   5.964  13.045 -0.3343 -0.1938 -0.2037
11574TIP3    H156137   4.482   6.000  12.975  1.6501 -3.4260 -0.5343
11574TIP3    H256138   4.453   6.015  13.122  1.0542  0.3240 -0.9543
11575TIP3   OH256139   1.004   2.921   4.555 -0.0250  0.0991  0.3343
11575TIP3    H156140   1.078   2.869   4.586 -0.9639 -1.7931 -0.4555
11575TIP3    H256141   1.008   3.001   4.607  1.8290 -0.4861  1.1836
11576TIP3   OH256142   6.762   2.944   3.947  0.2757  0.3651  0.3839
11576TIP3    H156143   6.804   2.862   3.923  0.2794  0.6083 -0.4788
11576TIP3    H256144   6.834   3.008   3.947  0.5603  0.1079  2.5639
11577TIP3   OH256145   0.973   3.449   6.183  0.1413 -0.6795 -0.0938
11577TIP3    H156146   0.955   3.364   6.224  0.2302 -0.1271  1.1646
11577TIP3    H256147   0.908   3.457   6.114  2.7318 -3.6236 -3.2305
11578TIP3   OH256148   3.157   3.463   4.269  0.2092 -0.3394 -0.4498
11578TIP3    H156149   3.251   3.464   4.287  0.3073  0.0663 -0.9542
11578TIP3    H256150   3.138   3.551   4.236 -0.9420  0.5926  2.4284
11579TIP3   OH256151   5.832   5.281  14.135 -0.1096  0.0727  0.2843
11579TIP3    H156152   5.781   5.199  14.137  0.2722 -0.1728  1.7436
11579TIP3    H256153   5.782   5.341  14.191 -0.3214  0.8064 -0.6769
11580TIP3   OH256154   4.811   4.082   3.302 -0.4824  0.3487 -0.7724
11580TIP3    H156155   4.727   4.036   3.311 -0.3394 -0.3129 -2.4245
11580TIP3    H256156   4.797   4.166   3.346 -1.8312  0.0282 -0.5364
11581TIP3   OH256157   2.915   6.471   3.725  0.3939  0.1000 -0.2751
11581TIP3    H156158   2.874   6.538   3.671 -0.0935  1.1138  1.2916
11581TIP3    H256159   2.864   6.470   3.806  2.5945  0.4382  1.2157
11582TIP3   OH256160   0.052   4.584  14.627 -0.1054 -0.3651 -0.1430
11582TIP3    H156161   0.101   4.666  14.623  0.1097 -0.4553  0.5034
11582TIP3    H256162  -0.037   4.607  14.599  0.3644 -0.2670 -1.6599
11583TIP3   OH256163   1.210   5.209   1.822  0.0308 -0.5765 -0.0757
11583TIP3    H156164   1.186   5.287   1.872  3.1470  1.0974 -0.9802
11583TIP3    H256165   1.258   5.155   1.885 -0.0973 -0.6760 -0.0626
11584TIP3   OH256166   1.928   5.848  15.209 -0.2313 -0.2216 -0.3612
11584TIP3    H156167   1.932   5.795  15.289  4.1395 -0.7453 -0.6742
11584TIP3    H256168   1.888   5.930  15.237  0.3407 -0.7097  2.1775
11585TIP3   OH256169   0.109   0.045  14.753 -0.0865  0.1522 -0.1046
11585TIP3    H156170   0.166   0.082  14.821  3.8312 -3.2736 -1.1113
11585TIP3    H256171   0.071  -0.033  14.794  0.4197 -0.6067 -1.0201
11586TIP3   OH256172   0.417   0.611   0.609  0.4605 -0.0184 -0.4484
11586TIP3    H156173   0.467   0.533   0.583 -0.6444 -1.1847  0.7540
11586TIP3    H256174   0.328   0.593   0.579 -0.0094  0.3266  0.6913
11587TIP3   OH256175   4.983   2.364   1.961 -0.1869  0.0941  0.3265
11587TIP3    H156176   5.047   2.388   1.894  1.6115 -0.5386  1.7151
11587TIP3    H256177   4.904   2.413   1.938  0.7625  0.8687 -1.5026
11588TIP3   OH256178   4.981   0.417   1.348 -0.3596  0.2735 -0.2337
11588TIP3    H156179   5.034   0.369   1.411 -0.2752  1.9048  0.9882
11588TIP3    H256180   4.892   0.386   1.362 -0.1287 -0.5023 -0.4243
11589TIP3   OH256181   2.824   1.426   3.386 -0.3472 -0.4436 -0.0110
11589TIP3    H156182   2.852   1.384   3.467 -0.0153  0.4770  0.3698
11589TIP3    H256183   2.785   1.356   3.334  0.4731 -1.2718  0.4663
11590TIP3   OH256184   5.517   3.481  12.667  0.2328  0.2587 -0.3382
11590TIP3    H156185   5.425   3.481  12.693 -0.0137 -1.6689 -1.0458
11590TIP3    H256186   5.517   3.509  12.576 -0.0221 -2.4104 -1.2311
11591TIP3   OH256187   1.418   3.650   2.997  0.1482  0.0801 -0.5495
11591TIP3    H156188   1.463   3.683   3.075  1.6271 -1.7981 -0.5323
11591TIP3    H256189   1.342   3.707   2.987 -0.6803 -0.2105  2.8434
11592TIP3   OH256190   3.274   0.138   1.002  0.3207 -0.5753  0.8019
11592TIP3    H156191   3.187   0.172   0.978  0.3315 -1.4939 -0.6660
11592TIP3    H256192   3.308   0.202   1.065 -1.5056 -0.3218  1.5996
11593TIP3   OH256193   4.299   2.740  11.188 -0.4780  0.3058 -0.5117
11593TIP3    H156194   4.368   2.754  11.253 -1.2613 -1.3897  0.7860
11593TIP3    H256195   4.259   2.826  11.177  1.4274  1.2015 -0.8571
11594TIP3   OH256196   0.267   0.342  11.188  0.0217  0.2144 -0.2522
11594TIP3    H156197   0.200   0.286  11.149  0.2108 -0.7146  0.7172
11594TIP3    H256198   0.316   0.376  11.114 -1.0080  0.2714 -0.9380
11595TIP3   OH256199   3.990   0.362  13.787 -0.1071  0.4189 -0.2099
11595TIP3    H156200   3.914   0.307  13.769  1.1881 -1.9670  1.0517
11595TIP3    H256201   4.034   0.371  13.703  0.2804 -1.5581 -0.2563
11596TIP3   OH256202   3.861   1.507   3.105  0.1014  0.0074  0.0831
11596TIP3    H156203   3.876   1.440   3.038 -0.6604 -0.0935  0.0079
11596TIP3    H256204   3.768   1.526   3.099  0.1645  0.5058  0.6448
11597TIP3   OH256205   2.611   6.298  11.890 -0.6974 -0.5775  0.0271
11597TIP3    H156206   2.666   6.332  11.961 -0.5205 -3.2403  1.2691
11597TIP3    H256207   2.523   6.292  11.927 -0.5223 -2.3992  0.2307
11598TIP3   OH256208   3.207   0.220  11.931  0.2963  0.0068  0.4056
11598TIP3    H156209   3.293   0.179  11.937  0.4955  0.2406 -0.5941
11598TIP3    H256210   3.151   0.152  11.894 -0.2337 -0.5084  2.0679
11599TIP3   OH256211   1.487   3.346  16.868  0.2858 -0.0068  0.2796
11599TIP3    H156212   1.465   3.420  16.925 -0.3110  0.5004 -0.5754
11599TIP3    H256213   1.471   3.269  16.922 -0.0596  0.4682  0.8698
11600TIP3   OH256214   0.697   3.868  14.156  0.1901 -0.2086 -0.5922
11600TIP3    H156215   0.771   3.902  14.207 -0.2280 -0.9594  0.5517
11600TIP3    H256216   0.620   3.909  14.195 -0.0576  0.0605 -1.3503
11601TIP3   OH256217   4.821   4.701  10.752 -0.0334 -0.3044 -0.0300
11601TIP3    H156218   4.906   4.694  10.796 -0.2141  2.0569  0.8344
11601TIP3    H256219   4.780   4.615  10.767  1.8757 -1.2476  0.1422
11602TIP3   OH256220   6.438   5.453  16.965  0.2410  0.1661  0.1592
11602TIP3    H156221   6.523   5.440  16.922  0.8079 -0.7030  1.4634
11602TIP3    H256222   6.441   5.544  16.996  1.7198 -0.4720  2.1780
11603TIP3   OH256223   1.554   3.475   1.119  0.5352  0.0448 -0.2742
11603TIP3    H156224   1.546   3.475   1.024  1.0830 -0.7104 -0.3289
11603TIP3    H256225   1.593   3.560   1.140 -1.2518  0.9859 -0.5493
11604TIP3   OH256226   6.239   3.843   3.833 -0.1932 -0.1478  0.0680
11604TIP3    H156227   6.288   3.797   3.901  0.5557 -0.1831 -0.4761
11604TIP3    H256228   6.259   3.794   3.753  0.4046  0.9511 -0.4751
11605TIP3   OH256229   0.469   6.590  16.776 -0.5511  0.4271 -0.6740
11605TIP3    H156230   0.430   6.598  16.863 -0.0370  0.9453 -0.4796
11605TIP3    H256231   0.417   6.523  16.732 -0.3871 -0.3481  0.2773
11606TIP3   OH256232   5.588   6.447  14.081  0.0478 -0.1112  0.1146
11606TIP3    H156233   5.551   6.364  14.052  2.3539 -0.8953 -0.8411
11606TIP3    H256234   5.671   6.422  14.123  0.2530  1.6382  0.8217
11607TIP3   OH256235   6.699   4.252  12.741 -0.0830 -0.3289 -0.0786
11607TIP3    H156236   6.754   4.330  12.748  2.0830 -1.9010  2.5660
11607TIP3    H256237   6.645   4.253  12.819 -0.0081 -1.4518  0.0062
11608TIP3   OH256238   1.264   5.369  14.710  0.4126  0.0120  0.3715
11608TIP3    H156239   1.345   5.395  14.664  1.0930 -0.8978  1.0262
11608TIP3    H256240   1.243   5.283  14.673 -0.4532  0.3926 -0.0317
11609TIP3   OH256241   1.913   3.834  11.928 -0.0402  0.3665 -0.8820
11609TIP3    H156242   1.989   3.858  11.980 -0.2619  0.2200 -0.4868
11609TIP3    H256243   1.949   3.793  11.849  0.3139  1.0921 -1.1049
11610TIP3   OH256244   5.307   6.165   4.341 -0.0759  0.5705 -0.4295
11610TIP3    H156245   5.239   6.102   4.315  1.1930 -0.3925 -1.5861
11610TIP3    H256246   5.270   6.251   4.321 -1.0500  0.0759 -0.7819
11611TIP3   OH256247   3.348   3.430  14.529  0.1932  0.1570  1.0818
11611TIP3    H156248   3.299   3.404  14.451 -0.2378 -0.0417  1.4111
11611TIP3    H256249   3.341   3.525  14.531 -1.1409  0.0756  1.7213
11612TIP3   OH256250   5.558   3.126  14.075 -0.3380 -0.1016  0.7270
11612TIP3    H156251   5.572   3.170  14.159  1.9260 -0.5174  0.6179
11612TIP3    H256252   5.600   3.041  14.085  1.3157  0.4006 -1.2782
11613TIP3   OH256253   2.314   5.007   1.949  0.1122 -0.0040  0.1717
11613TIP3    H156254   2.362   5.020   1.866  2.6367  1.2395  1.6905
11613TIP3    H256255   2.373   4.954   2.002 -1.2097 -0.3010  1.3810
11614TIP3   OH256256   2.809   5.767  11.346 -0.2723  0.4407 -0.6326
11614TIP3    H156257   2.737   5.796  11.289  1.2076  2.1646 -1.7394
11614TIP3    H256258   2.774   5.777  11.434 -1.2550  1.6863 -1.1265
11615TIP3   OH256259   1.658   5.752   1.104  0.1783 -0.3696  0.2991
11615TIP3    H156260   1.639   5.845   1.119  0.6650 -0.3081  0.5426
11615TIP3    H256261   1.572   5.712   1.093 -0.0758 -0.0174  0.9437
11616TIP3   OH256262   3.456   3.297   1.319 -0.0105 -0.1830 -0.2841
11616TIP3    H156263   3.530   3.262   1.269  0.5774 -1.8871  1.6061
11616TIP3    H256264   3.382   3.242   1.293 -0.3114  0.6049 -1.1343
11617TIP3   OH256265   4.812   0.973  15.612 -0.3273  0.2030 -0.3068
11617TIP3    H156266   4.771   0.910  15.553 -1.0339  0.8891 -0.5513
11617TIP3    H256267   4.875   1.020  15.557  0.9317 -0.9502  0.1001
11618TIP3   OH256268   5.498   6.758   6.226 -0.3564 -0.2651  0.1841
11618TIP3    H156269   5.484   6.678   6.277 -0.4148 -0.1965  0.2731
11618TIP3    H256270   5.482   6.830   6.287 -0.9736 -0.1778 -0.0731
11619TIP3   OH256271   3.595   0.066  13.459 -0.6505  0.3490  0.3245
11619TIP3    H156272   3.590   0.007  13.384 -0.9797  0.8762 -0.0692
11619TIP3    H256273   3.517   0.121  13.452  0.1311  1.4660  0.1547
11620TIP3   OH256274   4.749   6.326   0.100 -0.1131 -0.2614 -0.3634
11620TIP3    H156275   4.833   6.350   0.061  0.8419 -2.3288  0.3097
11620TIP3    H256276   4.719   6.406   0.144  0.6144  1.0125 -2.0593
11621TIP3   OH256277   1.601   6.078   5.557 -0.3945 -0.2700 -0.5030
11621TIP3    H156278   1.632   6.143   5.494 -2.2976 -0.0502 -1.2659
11621TIP3    H256279   1.510   6.061   5.532 -0.8996 -0.9340  1.5735
11622TIP3   OH256280   5.374   6.206  11.680 -0.1164  0.0460  0.2269
11622TIP3    H156281   5.402   6.256  11.757 -0.8997 -2.0398  1.9620
11622TIP3    H256282   5.290   6.246  11.655 -1.9147 -1.6350  3.0137
11623TIP3   OH256283   1.400   5.770  13.366 -0.4820 -0.1629 -0.0784
11623TIP3    H156284   1.337   5.815  13.308 -2.1177 -1.6119  0.4732
11623TIP3    H256285   1.421   5.835  13.433 -0.5061  0.7179 -0.8894
11624TIP3   OH256286   3.868   3.592   1.552  0.9227  0.1509 -0.0017
11624TIP3    H156287   3.797   3.604   1.615  1.7479 -1.7721  1.4280
11624TIP3    H256288   3.856   3.503   1.519  1.8111  0.3339 -0.8846
11625TIP3   OH256289   5.885   5.455   0.753 -0.3234  0.2994  0.5807
11625TIP3    H156290   5.974   5.437   0.785 -0.5852  0.2617  1.3096
11625TIP3    H256291   5.896   5.527   0.691  0.4274 -0.7783 -0.5776
11626TIP3   OH256292   2.476   1.585   5.852  0.3310  0.2436 -0.6126
11626TIP3    H156293   2.521   1.515   5.899  0.6986 -0.5328 -2.0470
11626TIP3    H256294   2.470   1.657   5.915 -0.3114 -1.1504  1.0023
11627TIP3   OH256295   5.940   5.265   6.343 -0.2233  0.3369 -0.1197
11627TIP3    H156296   5.906   5.177   6.329 -0.4956  0.4281 -0.0540
11627TIP3    H256297   6.026   5.253   6.381 -0.5278  0.1029  0.4953
11628TIP3   OH256298   5.404   2.315  11.614 -0.0892  0.1900 -0.0318
11628TIP3    H156299   5.385   2.234  11.565  0.1359  0.8932 -1.3340
11628TIP3    H256300   5.318   2.346  11.643 -0.2122 -0.3314  0.1701
11629TIP3   OH256301   0.946   4.708  13.563  1.2171 -0.0320  0.2711
11629TIP3    H156302   0.912   4.751  13.641 -1.8123 -1.4903 -0.0591
11629TIP3    H256303   0.992   4.631  13.595  2.1871  0.6919  0.6614
11630TIP3   OH256304   6.472   0.136   0.061  0.0146 -0.2548 -0.7639
11630TIP3    H156305   6.402   0.070   0.061 -0.7249  0.4577  0.9257
11630TIP3    H256306   6.527   0.112   0.136  0.2092  0.5554 -0.6395
11631TIP3   OH256307   3.442   5.847  10.919 -0.4216 -0.4927 -0.3627
11631TIP3    H156308   3.469   5.839  11.010 -0.1023 -2.1742 -0.5663
11631TIP3    H256309   3.405   5.760  10.898 -1.3877  0.1756 -1.5466
11632TIP3   OH256310   5.953   5.472  13.645 -0.3526 -0.1955 -0.8476
11632TIP3    H156311   5.968   5.468  13.551  0.4099 -0.6666 -0.7163
11632TIP3    H256312   6.039   5.452  13.684 -1.0053 -1.5450 -0.0444
11633TIP3   OH256313   5.506   4.471  16.051 -0.4740  0.1293 -0.0064
11633TIP3    H156314   5.461   4.387  16.058 -0.0249 -0.2457 -1.3300
11633TIP3    H256315   5.485   4.503  15.964 -1.8519  2.1359  0.9756
11634TIP3   OH256316   3.704   5.187   2.491 -0.3533 -0.0690 -0.0185
11634TIP3    H156317   3.693   5.180   2.397 -0.2066  1.7208 -0.1872
11634TIP3    H256318   3.743   5.103   2.517 -1.2065 -0.9232 -1.3934
11635TIP3   OH256319   6.042   5.568  12.049 -0.5967 -0.4032 -0.0245
11635TIP3    H156320   5.987   5.490  12.061 -0.3770 -0.6957 -0.8224
11635TIP3    H256321   6.131   5.533  12.042 -0.5096 -0.1010 -0.5081
11636TIP3   OH256322   5.295   1.852  12.733 -0.0234  0.3524 -0.3993
11636TIP3    H156323   5.322   1.811  12.815 -0.0504  0.7669 -0.1777
11636TIP3    H256324   5.202   1.872  12.746 -0.2218 -0.2842 -0.8278
11637TIP3   OH256325   3.999   2.916  12.894 -0.1769  0.2341  0.6114
11637TIP3    H156326   4.089   2.947  12.905 -0.8450  2.4588  0.1860
11637TIP3    H256327   3.990   2.848  12.961  1.9892 -0.4913  0.2597
11638TIP3   OH256328   0.176   0.850  16.067 -0.3915 -0.1650  0.0976
11638TIP3    H156329   0.228   0.799  16.128  0.2416 -1.0243 -1.1088
11638TIP3    H256330   0.096   0.798  16.054 -1.8956  1.4230  2.3857
11639TIP3   OH256331   4.332   1.065  13.193 -0.0882 -0.5896  0.4561
11639TIP3    H156332   4.277   1.127  13.241 -0.9036  0.5971 -1.8384
11639TIP3    H256333   4.420   1.082  13.225 -0.5994  0.0821  1.5803
11640TIP3   OH256334   2.242   0.339   1.860 -0.1602 -0.0990  0.7029
11640TIP3    H156335   2.295   0.396   1.803  0.0685  0.7142  1.6887
11640TIP3    H256336   2.210   0.270   1.802  1.1601 -0.0525 -0.1371
11641TIP3   OH256337   4.654   1.412   3.523 -0.0246 -0.5641  0.2465
11641TIP3    H156338   4.621   1.354   3.592  0.5478 -1.7451 -0.4499
11641TIP3    H256339   4.748   1.394   3.519 -0.0452 -0.5020 -0.8289
11642TIP3   OH256340   1.190   2.846   5.267  0.0682  1.1143 -0.1699
11642TIP3    H156341   1.175   2.938   5.287  0.7186  1.2474 -0.2835
11642TIP3    H256342   1.282   2.832   5.287  0.0139  0.5290 -0.3190
11643TIP3   OH256343   3.100   1.453   4.926  0.2131  0.6223 -0.2551
11643TIP3    H156344   3.014   1.466   4.967 -0.4239 -0.1706 -1.2632
11643TIP3    H256345   3.163   1.467   4.996 -0.7414  1.1920  0.5221
11644TIP3   OH256346   0.619   5.790  11.523 -0.1762 -0.5908  0.5956
11644TIP3    H156347   0.591   5.706  11.560  0.3183 -2.7996 -3.4716
11644TIP3    H256348   0.544   5.818  11.470  0.2062  0.7751  0.7657
11645TIP3   OH256349   1.079   3.695  15.472 -0.3986  0.9209 -0.0791
11645TIP3    H156350   0.988   3.680  15.448  0.0892 -2.9477 -0.2666
11645TIP3    H256351   1.129   3.658  15.399  1.2123 -0.2696  1.5144
11646TIP3   OH256352   5.960   5.368   3.046  0.6174 -0.0033  0.1619
11646TIP3    H156353   5.892   5.427   3.079 -0.2468 -1.8244  1.8009
11646TIP3    H256354   6.041   5.403   3.083  0.0626 -0.0347  1.4682
11647TIP3   OH256355   5.514   4.611  13.809  0.0293 -0.1347 -0.3933
11647TIP3    H156356   5.539   4.530  13.852  0.2326 -0.6730 -1.4945
11647TIP3    H256357   5.423   4.597  13.781 -0.8370  0.9739  1.6017
11648TIP3   OH256358   5.297   0.542  14.943 -0.3204 -0.8267 -0.0743
11648TIP3    H156359   5.252   0.458  14.949 -0.8038 -0.6175 -0.6259
11648TIP3    H256360   5.284   0.583  15.028 -2.0898 -0.3284 -0.5439
11649TIP3   OH256361   3.794   5.209   4.015  0.2860 -0.4753  0.2136
11649TIP3    H156362   3.792   5.297   3.979 -0.6268 -0.5040  0.1603
11649TIP3    H256363   3.884   5.196   4.042  0.6660  0.0828 -0.7373
11650TIP3   OH256364   4.820   6.668   1.821  0.2493  0.4576  0.2939
11650TIP3    H156365   4.747   6.640   1.876 -1.3593  1.1525 -1.3871
11650TIP3    H256366   4.850   6.749   1.862  0.3487 -0.0208  1.2028
11651TIP3   OH256367   2.183   1.615   1.581  0.8106 -0.0159 -0.5667
11651TIP3    H156368   2.128   1.694   1.590 -1.6978 -1.5247 -1.4288
11651TIP3    H256369   2.182   1.575   1.668  3.6671  1.7454  0.3932
11652TIP3   OH256370   2.719   5.008   3.305 -0.2893 -0.1979  0.1488
11652TIP3    H156371   2.785   4.943   3.281 -0.8932 -0.3957 -1.0593
11652TIP3    H256372   2.763   5.093   3.295  0.2091 -0.3834  0.7701
11653TIP3   OH256373   1.451   6.435  10.870  0.2434  0.0113  0.1328
11653TIP3    H156374   1.476   6.355  10.824 -1.2765 -0.2067 -0.3939
11653TIP3    H256375   1.357   6.424  10.887  0.2747  1.1453  1.1577
11654TIP3   OH256376   1.818   6.635  16.761 -0.4468  0.4101  0.2653
11654TIP3    H156377   1.902   6.667  16.731 -1.3094  2.4425 -0.1106
11654TIP3    H256378   1.785   6.703  16.819 -1.9855 -0.1746  0.1312
11655TIP3   OH256379   2.760   5.393   6.530  0.1092  0.2670  0.1598
11655TIP3    H156380   2.789   5.471   6.579  0.8853  0.4769 -0.6060
11655TIP3    H256381   2.779   5.414   6.439 -1.4919 -0.0526 -0.2666
11656TIP3   OH256382   6.083   4.728  14.224  0.3213 -0.0392 -0.5787
11656TIP3    H156383   6.039   4.753  14.143  0.5089 -2.5333 -1.5306
11656TIP3    H256384   6.107   4.811  14.265 -1.7626  1.3242 -1.9480
11657TIP3   OH256385   5.945   3.026   2.519 -0.0180 -0.2078  0.3014
11657TIP3    H156386   5.880   2.984   2.462  1.2390  0.1361 -1.4777
11657TIP3    H256387   6.014   2.960   2.527  0.4158  0.2453  0.3087
11658TIP3   OH256388   5.821   6.643  14.603 -0.5508 -0.7639  0.6385
11658TIP3    H156389   5.777   6.727  14.608  0.0885 -0.2714 -1.2670
11658TIP3    H256390   5.774   6.595  14.534  0.9780 -0.7561 -0.4491
11659TIP3   OH256391   3.685   1.748  10.896 -0.1016  0.1972  0.4316
11659TIP3    H156392   3.613   1.807  10.872 -0.5834 -0.4168  0.3542
11659TIP3    H256393   3.697   1.693  10.819 -0.7421 -0.8792  1.0868
11660TIP3   OH256394   2.094   4.001   3.045  0.0447 -0.1718 -0.2320
11660TIP3    H156395   2.160   3.956   3.098  2.2656  0.6352 -2.1545
11660TIP3    H256396   2.079   4.084   3.091 -0.0642 -0.5779  0.4882
11661TIP3   OH256397   0.973   4.616  12.365 -0.7307  0.3143 -0.1231
11661TIP3    H156398   0.884   4.650  12.371 -1.5756 -1.9402  1.1199
11661TIP3    H256399   0.970   4.556  12.290  0.4177  1.8887 -1.5224
11662TIP3   OH256400   6.712   5.497  16.904  0.5857  0.3054 -0.0320
11662TIP3    H156401   6.708   5.461  16.816  0.1343  1.0873 -0.3470
11662TIP3    H256402   6.802   5.528  16.913  1.2520 -1.7148  0.5990
11663TIP3   OH256403   1.426   6.389  12.220 -0.4281  0.1071 -0.3070
11663TIP3    H156404   1.333   6.414  12.218 -0.3673  0.3177 -1.8110
11663TIP3    H256405   1.460   6.429  12.299 -1.6325 -0.0024  0.2846
11664TIP3   OH256406   2.917   3.230  12.924 -0.0992  0.2368  0.4072
11664TIP3    H156407   2.940   3.323  12.923 -1.4186  0.6116  1.2753
11664TIP3    H256408   2.873   3.215  12.840 -0.6503  0.6245  0.6200
11665TIP3   OH256409   4.169   0.099   4.373 -0.1007  0.1224 -0.2156
11665TIP3    H156410   4.088   0.051   4.386  0.0648 -0.1919 -0.3347
11665TIP3    H256411   4.164   0.133   4.284 -0.9271  1.6917  0.3807
11666TIP3   OH256412   0.127   6.407   5.311 -0.3542 -0.4292 -0.0915
11666TIP3    H156413   0.102   6.368   5.227 -0.9941  1.8450 -1.0484
11666TIP3    H256414   0.163   6.335   5.362 -0.0686 -1.9139 -2.2772
11667TIP3   OH256415   5.144   3.230  13.159  0.4564  0.0337 -0.1600
11667TIP3    H156416   5.090   3.203  13.233  0.9896  1.1232  0.6571
11667TIP3    H256417   5.100   3.307  13.124  1.1804  0.6294  0.1986
11668TIP3   OH256418   1.178   0.307   5.610  0.5131  0.2121  0.2627
11668TIP3    H156419   1.128   0.279   5.533 -0.3695  1.0717  0.5040
11668TIP3    H256420   1.248   0.362   5.575  1.8756 -1.6940 -0.1597
11669TIP3   OH256421   0.134   1.754   3.594  0.4024 -0.5621  0.2137
11669TIP3    H156422   0.195   1.823   3.566  0.6180 -0.4725  0.8866
11669TIP3    H256423   0.172   1.673   3.560  0.2184 -0.3657 -0.4689
11670TIP3   OH256424   1.364   5.979   3.273  0.0436 -0.1847  0.3727
11670TIP3    H156425   1.449   6.007   3.237 -1.0777 -0.3815 -2.7416
11670TIP3    H256426   1.367   5.884   3.271  0.8892 -0.3228  3.4498
11671TIP3   OH256427   1.114   3.247   1.851 -0.8475  0.1677 -0.1895
11671TIP3    H156428   1.155   3.251   1.937 -0.1903 -0.6428 -0.4553
11671TIP3    H256429   1.142   3.327   1.807  0.5627 -0.4308 -0.4144
11672TIP3   OH256430   4.174   6.015   0.599 -0.2791 -0.0818  0.2447
11672TIP3    H156431   4.238   5.947   0.576 -0.4237 -0.5920  1.3139
11672TIP3    H256432   4.223   6.075   0.655 -1.0980 -1.3221  2.4003
11673TIP3   OH256433   4.257   1.207  15.374 -0.3036  0.7896  0.1466
11673TIP3    H156434   4.320   1.259  15.424 -0.7289  0.9344  0.5399
11673TIP3    H256435   4.279   1.224  15.283 -0.4702  1.7049  0.2690
11674TIP3   OH256436   4.692   0.875  16.738  0.3885 -0.0325 -0.3327
11674TIP3    H156437   4.750   0.834  16.673 -0.6773  2.0451 -2.7514
11674TIP3    H256438   4.694   0.815  16.813  1.3102 -2.8358 -2.4276
11675TIP3   OH256439   5.494   2.129  14.894  0.5239  0.1900  0.1326
11675TIP3    H156440   5.584   2.154  14.915  0.5361  1.3783 -1.2049
11675TIP3    H256441   5.480   2.162  14.806 -0.2890 -2.5488 -0.8389
11676TIP3   OH256442   0.939   4.143  16.650  0.4541  0.0601  0.3185
11676TIP3    H156443   0.937   4.239  16.652 -0.8186  0.1128 -1.3049
11676TIP3    H256444   0.970   4.118  16.737  1.5676  1.9474  0.5169
11677TIP3   OH256445   5.369   6.099   0.318  0.6741 -0.1454 -0.0605
11677TIP3    H156446   5.441   6.118   0.379  0.7135 -2.0656  0.5647
11677TIP3    H256447   5.399   6.022   0.270 -0.2483  0.0958 -1.0528
11678TIP3   OH256448   0.329   4.628  16.102  0.2768 -0.0517 -0.3867
11678TIP3    H156449   0.310   4.716  16.135 -1.7101 -0.7110  0.4274
11678TIP3    H256450   0.320   4.635  16.007 -0.5179  0.4979 -0.2783
11679TIP3   OH256451   6.734   6.664  11.885 -0.3863  0.6794  1.1823
11679TIP3    H156452   6.672   6.694  11.818  0.0267  0.3280  0.6258
11679TIP3    H256453   6.716   6.570  11.892 -0.0957  0.6271  1.2133
11680TIP3   OH256454   3.444   0.092   0.070 -0.0989 -0.4107 -0.0444
11680TIP3    H156455   3.489   0.137  -0.002 -1.5942  1.0528 -0.1373
11680TIP3    H256456   3.415   0.009   0.033 -0.3788  0.0954 -0.9830
11681TIP3   OH256457   2.861   4.541   5.558 -0.1023  0.0379  0.5699
11681TIP3    H156458   2.766   4.544   5.550  0.0012  2.1126 -0.6285
11681TIP3    H256459   2.879   4.579   5.644 -0.3665 -0.9709  1.0795
11682TIP3   OH256460   1.351   4.811  11.681 -0.3383 -0.2870 -0.0947
11682TIP3    H156461   1.369   4.863  11.759  0.6265 -1.7159  0.6743
11682TIP3    H256462   1.437   4.785  11.649 -0.7793 -1.4133 -0.4350
11683TIP3   OH256463   1.795   6.733  12.692  0.5745  0.6784 -0.0920
11683TIP3    H156464   1.889   6.752  12.697  0.7295  0.2832 -1.3246
11683TIP3    H256465   1.779   6.671  12.764  1.6533 -0.8142 -1.0913
11684TIP3   OH256466   0.196   4.708   5.192  0.2601  0.1090  0.2875
11684TIP3    H156467   0.188   4.784   5.133  1.3995 -0.0426 -0.0864
11684TIP3    H256468   0.125   4.719   5.255 -0.7033  0.5343 -0.8267
11685TIP3   OH256469   4.686   4.008  12.443 -0.3529 -0.0172 -0.0645
11685TIP3    H156470   4.738   3.932  12.469  1.8512  1.5639  0.4609
11685TIP3    H256471   4.642   4.035  12.524 -0.9221 -0.5510 -0.1894
11686TIP3   OH256472   1.317   3.242  11.854  0.2026 -0.0771 -0.0361
11686TIP3    H156473   1.257   3.188  11.802 -0.4718  0.4588  0.1761
11686TIP3    H256474   1.356   3.180  11.916  1.8939 -0.9702 -1.8741
11687TIP3   OH256475   6.306   3.562   4.450 -0.5038 -0.3490 -0.6266
11687TIP3    H156476   6.279   3.643   4.406  0.0149 -0.5317 -1.3068
11687TIP3    H256477   6.356   3.514   4.383  1.3708 -0.0764  0.5005
11688TIP3   OH256478   4.291   1.545  14.727 -0.2212  0.2116  0.3238
11688TIP3    H156479   4.323   1.555  14.817  1.4348  0.8074 -0.2952
11688TIP3    H256480   4.297   1.633  14.690  0.8620 -0.3570 -0.9060
11689TIP3   OH256481   2.744   5.717   2.844  0.5312 -0.6777 -0.5029
11689TIP3    H156482   2.810   5.705   2.776  1.2301  2.6747 -0.5962
11689TIP3    H256483   2.785   5.685   2.924  0.9342 -1.7061 -1.1029
11690TIP3   OH256484   5.231   5.137  10.903 -0.1937 -0.3178  0.2595
11690TIP3    H156485   5.225   5.220  10.951  1.0319  0.4666 -0.8635
11690TIP3    H256486   5.141   5.104  10.901 -0.6886  0.9234  0.8438
11691TIP3   OH256487   3.471   2.501  15.286 -0.0387  0.4377 -0.4476
11691TIP3    H156488   3.554   2.516  15.331  0.4091 -0.5415 -0.9078
11691TIP3    H256489   3.487   2.424  15.232 -0.9328  0.8592 -1.3507
11692TIP3   OH256490   6.267   1.362  16.558  0.3793 -0.3791  0.6535
11692TIP3    H156491   6.318   1.422  16.612  0.7862 -1.5462  1.6164
11692TIP3    H256492   6.328   1.334  16.490  0.2390  0.1431  0.3035
11693TIP3   OH256493   5.412   6.113   5.837 -0.2821 -0.1736 -0.2305
11693TIP3    H156494   5.386   6.144   5.924 -0.4809 -2.9495  0.7939
11693TIP3    H256495   5.330   6.113   5.787 -0.8979 -1.9158  0.7181
11694TIP3   OH256496   1.148   0.866   4.193  0.8267 -0.2784 -0.4524
11694TIP3    H156497   1.199   0.819   4.126  0.5194  0.1038 -0.9562
11694TIP3    H256498   1.059   0.866   4.160  0.5847 -0.4853  0.1836
11695TIP3   OH256499   4.080   5.381   0.083  0.3500 -0.1970 -0.1301
11695TIP3    H156500   4.027   5.457   0.107  0.5106 -0.1184 -0.0158
11695TIP3    H256501   4.043   5.351   0.000  0.2697 -0.0069 -0.1649
11696TIP3   OH256502   5.151   3.033   0.568 -0.1893 -0.0574  0.3961
11696TIP3    H156503   5.219   3.046   0.634 -0.3793 -0.5283  0.6904
11696TIP3    H256504   5.199   3.021   0.486  0.0415  0.7054  0.4115
11697TIP3   OH256505   0.387   2.305  14.574  0.9409 -0.7077  0.0445
11697TIP3    H156506   0.459   2.362  14.549  0.6851 -0.4408 -0.0846
11697TIP3    H256507   0.390   2.304  14.670 -0.9342  2.0180  0.2466
11698TIP3   OH256508   2.639   5.719  13.823 -0.1551  0.6271 -0.0799
11698TIP3    H156509   2.653   5.790  13.886  1.0971 -0.6704  1.1651
11698TIP3    H256510   2.594   5.651  13.872 -2.3739  0.9083 -1.5514
11699TIP3   OH256511   6.769   5.370  15.881  0.1997  0.4060 -0.2134
11699TIP3    H156512   6.770   5.275  15.867  1.5598  0.1302  1.3894
11699TIP3    H256513   6.677   5.394  15.875 -0.1392 -0.9698 -0.9504
11700TIP3   OH256514   0.803   0.976   2.088 -0.9268 -0.4768 -0.7302
11700TIP3    H156515   0.719   1.017   2.107 -1.1814 -2.1857  2.3560
11700TIP3    H256516   0.782   0.898   2.038 -1.2639 -1.1432  0.4254
11701TIP3   OH256517   6.558   6.765  11.314  0.3730  0.3646  0.2041
11701TIP3    H156518   6.640   6.807  11.288  0.1936 -0.2285 -1.4370
11701TIP3    H256519   6.584   6.701  11.380  1.1806  0.4315 -0.0394
11702TIP3   OH256520   4.570   0.021  11.759  0.0619  0.2949  0.3628
11702TIP3    H156521   4.627   0.060  11.825 -0.2108  1.7595 -0.2072
11702TIP3    H256522   4.521  -0.046  11.805  1.1483  0.0645  1.2154
11703TIP3   OH256523   2.420   5.548   3.310  0.3760  0.2342  0.3952
11703TIP3    H156524   2.471   5.557   3.391  3.3334 -1.8844 -1.0201
11703TIP3    H256525   2.459   5.612   3.250 -1.7147  1.7162  0.5275
11704TIP3   OH256526   6.210   4.137   5.565 -0.2184  0.5013  0.0181
11704TIP3    H156527   6.291   4.164   5.608 -0.0468  0.8520 -0.5046
11704TIP3    H256528   6.141   4.182   5.613 -0.2184 -0.6857  1.1846
11705TIP3   OH256529   3.393   3.976   1.166 -0.3920 -0.5160 -0.0122
11705TIP3    H156530   3.401   3.911   1.097  0.6147 -1.0906  0.6264
11705TIP3    H256531   3.372   4.057   1.120  0.7279 -0.7820 -1.0341
11706TIP3   OH256532   0.520   5.670  14.439  0.1879 -0.4337  0.0200
11706TIP3    H156533   0.547   5.622  14.517  0.8223 -0.3455 -0.1435
11706TIP3    H256534   0.544   5.761  14.457 -3.2298  0.3454  1.3799
11707TIP3   OH256535   6.760   3.352  14.810  0.5956 -0.3605  0.1973
11707TIP3    H156536   6.838   3.299  14.822  0.3015 -0.7506  0.4188
11707TIP3    H256537   6.765   3.419  14.879  0.3711 -0.8291  0.6743
11708TIP3   OH256538   6.009   2.541  17.141  0.0546  0.2591 -0.5292
11708TIP3    H156539   5.990   2.616  17.085  0.9550 -0.5029 -1.9449
11708TIP3    H256540   6.068   2.487  17.088  1.0783 -0.4373  1.2446
11709TIP3   OH256541   1.833   6.452  13.215  0.1396  0.7381 -0.2834
11709TIP3    H156542   1.750   6.430  13.171 -0.5368 -0.4394  1.4766
11709TIP3    H256543   1.876   6.368  13.229  1.1915  1.2559 -0.3019
11710TIP3   OH256544   3.060   3.261  12.380 -0.2121  0.1839  0.1289
11710TIP3    H156545   3.077   3.355  12.384  1.7758 -0.0553 -1.5874
11710TIP3    H256546   2.970   3.254  12.349 -0.7563  1.4966  1.3174
11711TIP3   OH256547   1.678   0.308  16.759 -0.0227 -0.0559 -0.1994
11711TIP3    H156548   1.606   0.262  16.715  0.0820  0.6798 -1.1947
11711TIP3    H256549   1.726   0.240  16.805  0.8537 -1.1758 -2.6103
11712TIP3   OH256550   1.911   2.267   0.486  0.0758 -0.1281  0.2829
11712TIP3    H156551   1.862   2.221   0.418 -0.3789  0.8048 -0.0435
11712TIP3    H256552   1.961   2.334   0.440  1.5419 -0.9266  0.6373
11713TIP3   OH256553   5.840   4.110   4.289  0.2441  0.0667 -0.0411
11713TIP3    H156554   5.750   4.111   4.256  0.4881  0.4155 -0.7279
11713TIP3    H256555   5.878   4.032   4.249  1.0380  1.4004 -2.0202
11714TIP3   OH256556   0.947   4.591   2.930 -0.2480 -0.5598  0.0039
11714TIP3    H156557   1.038   4.570   2.951 -0.5611 -0.0706  1.9968
11714TIP3    H256558   0.946   4.686   2.920 -1.0473 -0.1179  3.1872
11715TIP3   OH256559   2.159   6.117  12.939  0.8861 -0.2153 -0.5117
11715TIP3    H156560   2.195   6.130  12.850 -0.2830 -0.8994 -1.1032
11715TIP3    H256561   2.117   6.201  12.960  1.9999  0.2855 -0.1788
11716TIP3   OH256562   4.952   1.266   0.593 -0.4304  0.2346  0.2247
11716TIP3    H156563   5.039   1.226   0.586  0.4397  2.1161 -0.3711
11716TIP3    H256564   4.950   1.300   0.683  0.1034  1.5621 -0.2492
11717TIP3   OH256565   1.265   3.132   3.471  0.5117  0.1261 -0.2068
11717TIP3    H156566   1.307   3.050   3.497  0.3361  0.7199  2.2509
11717TIP3    H256567   1.324   3.201   3.504 -0.1801  0.9685 -0.6901
11718TIP3   OH256568   4.714   0.245  16.802  0.2507  0.3204 -0.4970
11718TIP3    H156569   4.696   0.338  16.816 -0.1362  0.5012 -2.0495
11718TIP3    H256570   4.802   0.243  16.765  1.0248 -0.1023  1.2716
11719TIP3   OH256571   6.264   1.509  11.634  0.9214  0.4357 -0.1136
11719TIP3    H156572   6.289   1.497  11.543  1.2930 -4.0644  0.3330
11719TIP3    H256573   6.175   1.475  11.639  0.4893  1.6533  1.0696
11720TIP3   OH256574   4.977   6.495   2.708 -0.2073 -0.1888  0.3133
11720TIP3    H156575   4.976   6.457   2.620  0.5277  0.7764 -0.1241
11720TIP3    H256576   4.986   6.419   2.766  1.0520 -0.7240 -0.5270
11721TIP3   OH256577   6.629   1.557   2.279 -0.3611 -0.6009  0.1162
11721TIP3    H156578   6.650   1.523   2.366  1.4562  0.9499  0.3586
11721TIP3    H256579   6.536   1.577   2.282 -0.2735 -0.3270  1.8215
11722TIP3   OH256580   2.256   6.751   3.662  0.2064 -0.2583 -0.0576
11722TIP3    H156581   2.195   6.743   3.736  0.4542  0.0795  0.1871
11722TIP3    H256582   2.200   6.769   3.587 -0.0959 -1.1434 -0.0574
11723TIP3   OH256583   0.643   0.209  13.385  0.3224  0.0458  0.0902
11723TIP3    H156584   0.659   0.290  13.335 -0.4393  0.7983  1.0206
11723TIP3    H256585   0.703   0.145  13.347  1.3486  1.2001 -0.3037
11724TIP3   OH256586   3.269   3.051  13.073 -0.4687  0.1344  0.1328
11724TIP3    H156587   3.221   3.045  12.990  0.7493 -0.1248 -0.5798
11724TIP3    H256588   3.229   2.984  13.128 -0.8936 -0.1111 -0.4625
11725TIP3   OH256589   6.435   2.100  13.847 -0.3839  0.0128  0.4464
11725TIP3    H156590   6.372   2.095  13.775 -0.3698 -0.5240  0.4684
11725TIP3    H256591   6.456   2.009  13.867  0.9536  0.1798 -0.0417
11726TIP3   OH256592   3.128   3.566   5.573  0.3347 -0.1676 -0.6019
11726TIP3    H156593   3.049   3.566   5.628  0.7169 -0.5388 -0.0437
11726TIP3    H256594   3.153   3.658   5.567 -1.3110  0.2435 -2.5212
11727TIP3   OH256595   5.483   6.675  15.697  0.3358  0.3844  0.0129
11727TIP3    H156596   5.504   6.656  15.606  1.3311 -0.7497  0.4546
11727TIP3    H256597   5.558   6.726  15.728  0.9048 -0.8186  0.6831
11728TIP3   OH256598   0.532   3.499  11.299 -0.6536  0.1330  0.3650
11728TIP3    H156599   0.508   3.447  11.222 -1.5783  0.7582  0.2070
11728TIP3    H256600   0.539   3.435  11.370 -0.9886 -0.3071  0.0083
11729TIP3   OH256601   2.816   1.651  15.064 -0.0238 -0.1319 -0.0571
11729TIP3    H156602   2.861   1.665  15.147  0.4423 -2.2207  0.1069
11729TIP3    H256603   2.879   1.678  14.997 -0.8208  2.6473  0.2243
11730TIP3   OH256604   4.250   5.362   4.036 -0.4248 -0.4219  0.4431
11730TIP3    H156605   4.294   5.446   4.032  0.7047 -0.9288  1.5798
11730TIP3    H256606   4.157   5.384   4.044 -0.5262  0.6602 -2.4953
11731TIP3   OH256607   3.842   0.893  14.326  0.7375 -0.3244 -0.1993
11731TIP3    H156608   3.852   0.926  14.416  0.4282  0.7770 -0.5528
11731TIP3    H256609   3.768   0.832  14.331 -0.7216  1.3825 -0.0989
11732TIP3   OH256610   6.470   3.225  16.027 -0.1462 -0.2503 -0.2906
11732TIP3    H156611   6.527   3.231  16.104 -1.8743  0.1938  1.0104
11732TIP3    H256612   6.494   3.301  15.974  0.0212  0.3186  0.5751
11733TIP3   OH256613   6.246   3.206   5.302 -0.3950 -0.0151  0.6979
11733TIP3    H156614   6.307   3.157   5.356 -0.8122 -0.6362  0.6169
11733TIP3    H256615   6.165   3.154   5.303 -1.1763  1.1629  1.4058
11734TIP3   OH256616   3.981   1.916   4.241 -0.0969 -0.4724 -0.2928
11734TIP3    H156617   3.923   1.985   4.274  1.0225  0.2718  0.2256
11734TIP3    H256618   3.924   1.843   4.222 -1.1630  0.1208  0.5026
11735TIP3   OH256619   3.001   4.878   2.191 -0.4245 -0.0215 -0.5791
11735TIP3    H156620   3.049   4.796   2.207 -1.3178 -0.5116 -0.3170
11735TIP3    H256621   2.916   4.849   2.157 -1.4132  0.6830  1.1244
11736TIP3   OH256622   5.084   1.174  11.208  0.2922  0.3433  0.5114
11736TIP3    H156623   5.121   1.184  11.121  0.3341  3.4463  0.7909
11736TIP3    H256624   4.994   1.145  11.193 -0.1152  2.0907 -0.6819
11737TIP3   OH256625   4.234   0.723  12.604 -0.0009 -0.3346 -0.1796
11737TIP3    H156626   4.163   0.673  12.643 -0.7375 -0.5642 -1.7603
11737TIP3    H256627   4.286   0.753  12.679 -1.4057 -0.6720  0.9688
11738TIP3   OH256628   6.132   6.654   2.890  0.2180 -0.0904 -0.4256
11738TIP3    H156629   6.039   6.670   2.877  0.0124 -1.6263 -1.1128
11738TIP3    H256630   6.138   6.606   2.972  0.0624 -2.3640 -1.6557
11739TIP3   OH256631   5.184   0.737   0.696 -0.2234  0.6091 -0.0714
11739TIP3    H156632   5.127   0.662   0.712  0.8421 -1.0955 -3.3677
11739TIP3    H256633   5.141   0.786   0.625 -0.1218  2.2979  0.9769
11740TIP3   OH256634   5.759   0.132  15.181  0.2593  0.5016  0.1141
11740TIP3    H156635   5.805   0.199  15.131 -0.6273  1.8512  1.0139
11740TIP3    H256636   5.828   0.085  15.227  1.1147 -0.9422 -2.4647
11741TIP3   OH256637   6.559   3.930  12.131 -0.1195 -0.4765 -0.2243
11741TIP3    H156638   6.609   3.852  12.157 -0.4330  0.0535  2.2040
11741TIP3    H256639   6.604   4.003  12.173 -1.1347  0.3961 -0.5932
11742TIP3   OH256640   0.244   5.162   2.340 -0.0098  0.4468 -0.3472
11742TIP3    H156641   0.327   5.209   2.333 -1.2043  2.5691 -1.4136
11742TIP3    H256642   0.218   5.171   2.432  0.4156  0.7409 -0.2580
11743TIP3   OH256643   2.575   3.737   3.766 -0.5230  0.7803  0.2803
11743TIP3    H156644   2.566   3.670   3.698 -0.9390  1.7296 -0.6318
11743TIP3    H256645   2.621   3.693   3.837  0.1047 -0.1891 -0.6956
11744TIP3   OH256646   6.338   5.287   0.216 -0.9872  0.0721  0.2641
11744TIP3    H156647   6.416   5.235   0.232  0.7762  2.1891 -0.9097
11744TIP3    H256648   6.315   5.323   0.301 -0.4246 -0.2116  0.5398
11745TIP3   OH256649   4.134   3.258  16.047 -0.0974 -0.0407 -0.4964
11745TIP3    H156650   4.208   3.308  16.011 -0.3221  0.7916  0.1518
11745TIP3    H256651   4.157   3.167  16.030  1.3981  0.1554  0.2473
11746TIP3   OH256652   1.093   1.471   4.409 -0.2761  0.9140 -0.1261
11746TIP3    H156653   1.013   1.423   4.429  0.6710  0.2398  2.3369
11746TIP3    H256654   1.139   1.416   4.346 -0.7346  0.2268  0.1310
11747TIP3   OH256655   3.640   3.393   3.606 -0.2331  0.3999  0.0100
11747TIP3    H156656   3.604   3.482   3.607  0.3912  0.7860 -2.8258
11747TIP3    H256657   3.575   3.342   3.558 -0.5234 -0.7153  1.5122
11748TIP3   OH256658   5.474   0.155   4.713  0.2607 -0.2321 -0.3717
11748TIP3    H156659   5.566   0.143   4.737 -0.4133 -1.7619  1.7602
11748TIP3    H256660   5.474   0.229   4.652  2.5920  1.7228  1.7904
11749TIP3   OH256661   0.246   2.242   3.229  0.2719 -0.1492 -0.1808
11749TIP3    H156662   0.207   2.186   3.162  0.6780 -0.6732  0.0104
11749TIP3    H256663   0.284   2.315   3.180  0.4187 -0.4409 -0.5047
11750TIP3   OH256664   6.199   4.940  14.382  0.3926  0.4513  0.2669
11750TIP3    H156665   6.231   5.022  14.347 -0.6537  0.4403 -0.7717
11750TIP3    H256666   6.159   4.963  14.466 -1.9738  1.4525 -1.0422
11751TIP3   OH256667   0.496   0.244   2.999 -0.5123 -0.1513 -0.4940
11751TIP3    H156668   0.415   0.262   2.952 -1.1439 -0.5281  0.4236
11751TIP3    H256669   0.563   0.293   2.951 -1.0916 -0.6884 -1.8989
11752TIP3   OH256670   1.099   1.708   0.485 -0.0123 -0.0768 -0.2364
11752TIP3    H156671   1.173   1.647   0.490 -0.7392 -0.9157  0.6372
11752TIP3    H256672   1.079   1.727   0.577 -1.7950 -0.9980 -0.3998
11753TIP3   OH256673   5.687   5.289  13.201 -0.0785  0.0657  0.2550
11753TIP3    H156674   5.673   5.381  13.220  0.0202 -0.1008  1.2139
11753TIP3    H256675   5.714   5.286  13.110  0.2614  1.0180  0.3187
11754TIP3   OH256676   0.822   1.047   0.604  0.1499  0.3410  0.0704
11754TIP3    H156677   0.806   0.971   0.548  0.3312  0.5448 -0.2662
11754TIP3    H256678   0.769   1.117   0.565 -1.4013 -0.0497  1.4087
11755TIP3   OH256679   1.117   3.008   0.303 -0.1236  0.0855 -0.2095
11755TIP3    H156680   1.068   3.068   0.359  1.5771 -0.0623  1.5538
11755TIP3    H256681   1.153   2.943   0.363  2.7619  0.5691 -1.2552
11756TIP3   OH256682   2.874   2.547  13.397  0.4026  0.0848 -0.4668
11756TIP3    H156683   2.932   2.583  13.464 -1.6661  3.2109 -0.1597
11756TIP3    H256684   2.805   2.504  13.446  0.9470 -1.2200 -0.7817
11757TIP3   OH256685   3.029   6.272  11.480 -0.1148  1.0291 -0.1528
11757TIP3    H156686   3.047   6.291  11.388  2.5128  0.1020  0.0845
11757TIP3    H256687   3.024   6.176  11.483  2.6049  0.8279  0.9939
11758TIP3   OH256688   4.829   4.542  14.212 -0.1536  0.8402 -0.5928
11758TIP3    H156689   4.923   4.526  14.203  0.0530  1.9032 -0.5202
11758TIP3    H256690   4.800   4.561  14.122 -0.2171  0.8785 -0.5643
11759TIP3   OH256691   0.064   0.889  13.167 -0.4456  0.7916 -0.5832
11759TIP3    H156692   0.073   0.808  13.218 -1.1438  0.6202 -0.7142
11759TIP3    H256693   0.024   0.860  13.085 -0.8395  1.2893 -0.5722
11760TIP3   OH256694   3.064   3.007  15.312  0.5198  0.0651 -0.2855
11760TIP3    H156695   3.015   3.057  15.246  0.0852 -1.4137 -1.1475
11760TIP3    H256696   3.086   3.071  15.380  0.9565  1.6440 -1.8407
11761TIP3   OH256697   1.852   2.149  15.201 -0.1585 -0.2509 -0.3725
11761TIP3    H156698   1.821   2.137  15.111  0.0148  0.5037 -0.5359
11761TIP3    H256699   1.947   2.140  15.196 -0.1733 -0.5310 -0.2052
11762TIP3   OH256700   4.709   1.220   1.656  0.5721 -0.6321 -0.3502
11762TIP3    H156701   4.740   1.183   1.739 -1.6937  0.1521  0.9229
11762TIP3    H256702   4.760   1.300   1.645  0.4540 -0.4006  0.6538
11763TIP3   OH256703   3.797   0.121  13.123  0.4245  0.5052 -0.2863
11763TIP3    H156704   3.703   0.107  13.124  0.4895  0.0909  0.0470
11763TIP3    H256705   3.812   0.174  13.044  0.2553 -2.0291 -2.1789
11764TIP3   OH256706   5.579   3.485  16.920 -0.2603 -0.2130 -0.5527
11764TIP3    H156707   5.504   3.537  16.890 -0.5195 -0.4231 -0.2801
11764TIP3    H256708   5.654   3.544  16.911 -0.3700 -0.1982 -1.3760
11765TIP3   OH256709   0.709   0.500   0.370 -0.2525  0.3262  0.0410
11765TIP3    H156710   0.687   0.561   0.440  0.4641 -1.3669  1.8336
11765TIP3    H256711   0.784   0.539   0.326  0.2086  0.7552  1.1752
11766TIP3   OH256712   1.452   2.466   0.676 -0.2041  0.0466 -0.2549
11766TIP3    H156713   1.449   2.559   0.700  0.3703  0.0418 -0.1525
11766TIP3    H256714   1.414   2.421   0.752  1.5130  0.0391  0.6381
11767TIP3   OH256715   2.110   1.316  13.204  0.1618 -0.7662  0.1105
11767TIP3    H156716   2.171   1.388  13.191 -0.6227 -0.3274 -1.3000
11767TIP3    H256717   2.121   1.293  13.296  0.2278  1.3388  0.6915
11768TIP3   OH256718   3.039   1.961   3.767 -0.0450  0.4337 -0.6278
11768TIP3    H156719   3.117   1.913   3.797 -0.6642 -0.6442 -0.6809
11768TIP3    H256720   3.074   2.032   3.714  0.8947 -0.9333 -1.9387
11769TIP3   OH256721   6.182   1.168   1.548  0.0361 -0.2802  0.1642
11769TIP3    H156722   6.174   1.263   1.560  1.1966 -0.1391 -0.0237
11769TIP3    H256723   6.276   1.154   1.532 -0.3272 -1.2892 -1.2652
11770TIP3   OH256724   4.940   0.798   2.782 -0.0021  0.0860  0.1461
11770TIP3    H156725   4.957   0.706   2.803  1.9412  0.6989  1.5686
11770TIP3    H256726   4.991   0.813   2.702  0.6232  0.1789  0.5496
11771TIP3   OH256727   5.852   3.403   5.177 -0.4131 -0.7386 -0.4442
11771TIP3    H156728   5.890   3.435   5.095 -1.6429 -0.5890 -0.9824
11771TIP3    H256729   5.886   3.461   5.244 -0.7783  0.2690 -1.1049
11772TIP3   OH256730   6.262   3.227  16.925 -0.2782 -0.1491 -0.1010
11772TIP3    H156731   6.301   3.175  16.854  0.1669 -0.4396  0.3436
11772TIP3    H256732   6.332   3.233  16.991 -1.1124 -1.0492  0.9174
11773TIP3   OH256733   5.074   2.293   0.952  0.3901  0.5184 -0.2248
11773TIP3    H156734   4.980   2.308   0.946  0.4586  1.0502 -0.0850
11773TIP3    H256735   5.113   2.376   0.922  0.8019  0.5664  0.4252
11774TIP3   OH256736   0.190   1.231   2.298 -0.3360 -0.8870  0.0285
11774TIP3    H156737   0.198   1.288   2.375 -1.7669 -1.3095  0.5180
11774TIP3    H256738   0.226   1.283   2.226 -0.8410  0.3078  0.6169
11775TIP3   OH256739   6.608   2.543   2.575 -0.5676 -0.1344  0.2471
11775TIP3    H156740   6.628   2.453   2.602 -0.6979 -0.2036  0.1124
11775TIP3    H256741   6.675   2.596   2.618 -0.5167 -0.2911  0.3628
11776TIP3   OH256742   1.796   3.990   0.339  1.1312  0.1034 -0.4917
11776TIP3    H156743   1.879   4.038   0.343  1.5949 -0.7698  1.1323
11776TIP3    H256744   1.729   4.059   0.341  1.8014  0.7598  0.8624
11777TIP3   OH256745   1.229   2.334   0.903 -0.5503 -0.3075 -0.4506
11777TIP3    H156746   1.195   2.339   0.814 -2.6944  0.9538  0.3516
11777TIP3    H256747   1.270   2.247   0.908  1.8826  0.4992 -3.3220
11778TIP3   OH256748   1.190   4.856  11.443  0.5368  0.0628  0.2516
11778TIP3    H156749   1.229   4.861  11.530  0.4777  1.4279  0.2223
11778TIP3    H256750   1.265   4.863  11.383  0.4611  0.5683  0.2054
11779TIP3   OH256751   0.769   5.350  13.872  0.0394 -0.1121 -0.1528
11779TIP3    H156752   0.825   5.417  13.834  0.8776 -0.0677  1.0961
11779TIP3    H256753   0.818   5.317  13.948  0.4733 -3.4289 -1.6762
11780TIP3   OH256754   3.601   2.693  13.897 -0.3223 -0.4883  0.2207
11780TIP3    H156755   3.693   2.668  13.886 -0.3013  0.2772 -1.9929
11780TIP3    H256756   3.602   2.755  13.970  1.2659  0.8739 -0.8665
11781TIP3   OH256757   3.855   1.774  14.990 -0.1564 -0.1173  0.4192
11781TIP3    H156758   3.909   1.728  14.927  2.7544  2.0637  1.1328
11781TIP3    H256759   3.906   1.772  15.072 -1.6456  1.1262  1.4408
11782TIP3   OH256760   2.563   5.531  17.110 -0.0922 -0.0118 -0.1519
11782TIP3    H156761   2.630   5.583  17.067 -0.7338 -0.0110 -1.2032
11782TIP3    H256762   2.480   5.570  17.080 -0.5676 -0.0753  1.0268
11783TIP3   OH256763   1.227   3.211  10.673  0.1829 -0.2489 -0.7009
11783TIP3    H156764   1.179   3.205  10.590 -0.0484  1.8779 -0.7652
11783TIP3    H256765   1.310   3.166  10.656 -0.3102 -0.8006 -1.7332
11784TIP3   OH256766   4.065   6.575   1.377  0.2602  0.0509 -0.0892
11784TIP3    H156767   4.017   6.636   1.321 -1.5253  0.2356  1.5468
11784TIP3    H256768   4.076   6.497   1.323 -1.7626  0.0811 -0.6217
11785TIP3   OH256769   4.865   4.328   1.955  0.6517 -0.3253  0.0868
11785TIP3    H156770   4.806   4.299   2.025  1.1676  0.8863  1.0562
11785TIP3    H256771   4.945   4.355   2.001  1.2054 -0.0191 -1.0247
11786TIP3   OH256772   0.472   1.625  13.109 -0.1917 -0.1801  0.0296
11786TIP3    H156773   0.551   1.627  13.054 -0.6744  1.8588 -0.6883
11786TIP3    H256774   0.464   1.534  13.136  3.1487 -0.2394  1.2552
11787TIP3   OH256775   1.330   6.769  16.529  0.3333  0.2412 -0.4051
11787TIP3    H156776   1.254   6.824  16.510 -1.6319 -1.7247  1.2245
11787TIP3    H256777   1.351   6.728  16.445 -0.0075  1.2398 -0.9995
11788TIP3   OH256778   1.836   0.982   3.709 -0.0698  0.4385  0.5543
11788TIP3    H156779   1.908   0.934   3.666  0.6581  1.1588  0.9435
11788TIP3    H256780   1.759   0.927   3.695  0.7940 -1.0098  1.2608
11789TIP3   OH256781   5.647   5.035  14.058  0.2145 -0.2454  0.0919
11789TIP3    H156782   5.599   4.994  14.130  1.1207 -1.8116 -0.1391
11789TIP3    H256783   5.644   4.970  13.988  1.2331  0.3233 -0.4930
11790TIP3   OH256784   5.917   3.737  12.485  0.0312 -0.0659 -0.1050
11790TIP3    H156785   5.915   3.718  12.579  3.5384  0.1576  0.1575
11790TIP3    H256786   5.881   3.825  12.478  0.0202  0.0517  1.1111
11791TIP3   OH256787   4.720   1.439  11.352  0.2286  0.0858  0.2847
11791TIP3    H156788   4.741   1.399  11.437  0.7452  0.7148  0.4644
11791TIP3    H256789   4.661   1.377  11.310  0.4255 -0.5075  0.8660
11792TIP3   OH256790   3.927   4.917  13.086 -0.6603 -0.0968  0.0555
11792TIP3    H156791   3.875   4.996  13.098 -0.7884  0.1646 -1.9630
11792TIP3    H256792   3.899   4.859  13.157 -1.1390  1.3536  1.0830
11793TIP3   OH256793   2.092   4.276   2.495 -0.4200 -0.3128 -0.7704
11793TIP3    H156794   1.997   4.282   2.505 -0.2026  1.4314  1.0588
11793TIP3    H256795   2.125   4.276   2.585  1.3065 -1.8030 -1.3447
11794TIP3   OH256796   2.403   5.648  13.378  0.2732  0.0845  0.2932
11794TIP3    H156797   2.333   5.630  13.441  0.4845  3.6611  1.7855
11794TIP3    H256798   2.479   5.603  13.414  0.0737  1.0010  1.9810
11795TIP3   OH256799   0.795   2.440   1.537 -0.4767 -0.1156 -0.6459
11795TIP3    H156800   0.851   2.467   1.464  0.3918 -1.9164 -0.6942
11795TIP3    H256801   0.758   2.522   1.571  2.9037  1.2741  0.0125
11796TIP3   OH256802   1.131   1.167  15.683  0.5032  0.4179  0.6142
11796TIP3    H156803   1.163   1.214  15.606  1.3584  0.5264  1.0310
11796TIP3    H256804   1.037   1.185  15.684  0.5327  0.6669 -0.2270
11797TIP3   OH256805   1.395   6.684  14.939  0.7380  0.3091  1.1844
11797TIP3    H156806   1.368   6.704  14.850  0.4367  1.4930  1.5214
11797TIP3    H256807   1.464   6.747  14.959  2.7281 -1.6440  0.8960
11798TIP3   OH256808   6.723   1.945   6.215 -0.3096 -0.3464  0.0643
11798TIP3    H156809   6.769   2.021   6.251 -1.6853  0.3120  0.5126
11798TIP3    H256810   6.654   1.927   6.278 -0.7689 -1.2046 -0.6615
11799TIP3   OH256811   5.735   2.463  15.457 -0.0314 -0.0936  0.2818
11799TIP3    H156812   5.791   2.428  15.527 -1.4507  0.8191  1.9369
11799TIP3    H256813   5.771   2.550  15.439  0.4253 -0.3869 -0.2571
11800TIP3   OH256814   5.142   5.981  15.163 -0.1287  0.4416  0.2429
11800TIP3    H156815   5.148   5.975  15.068 -1.3690 -0.6275  0.1851
11800TIP3    H256816   5.085   6.056  15.179 -3.0352 -1.4850 -0.1046
11801TIP3   OH256817   6.190   2.263  16.644  0.1176 -0.5365  0.6813
11801TIP3    H156818   6.145   2.232  16.722 -1.4267 -1.1039 -0.3723
11801TIP3    H256819   6.169   2.198  16.577  1.5545 -0.1653 -0.1702
11802TIP3   OH256820   1.845   1.794  12.861  0.0730  0.3258 -0.1337
11802TIP3    H156821   1.937   1.770  12.874 -0.3087 -0.5455  1.1274
11802TIP3    H256822   1.810   1.725  12.804 -0.3004 -0.5392  1.1081
11803TIP3   OH256823   2.566   1.202   4.793 -0.3469  0.0759  0.2823
11803TIP3    H156824   2.578   1.149   4.715 -0.3621 -1.1988  1.1124
11803TIP3    H256825   2.653   1.237   4.813 -0.0279 -0.8475  0.5516
11804TIP3   OH256826   2.129   5.202  11.827  0.1747 -0.1849 -0.5155
11804TIP3    H156827   2.163   5.252  11.901  1.5734 -0.7227 -0.7743
11804TIP3    H256828   2.155   5.252  11.750 -0.0497 -0.3550 -0.7038
11805TIP3   OH256829   6.378   3.637  13.550  0.1856 -0.1106  0.0210
11805TIP3    H156830   6.286   3.624  13.574 -0.4690 -1.4271 -2.7856
11805TIP3    H256831   6.425   3.569  13.597 -0.2683  0.4730  1.3602
11806TIP3   OH256832   4.240   0.109   5.235  0.6887 -0.5565 -0.3433
11806TIP3    H156833   4.288   0.118   5.317  0.6739 -2.9729  0.0054
11806TIP3    H256834   4.262   0.021   5.204 -1.0655 -0.5465 -1.7731
11807TIP3   OH256835   4.945   2.136  16.333 -0.4031 -0.2104 -1.1492
11807TIP3    H156836   4.867   2.163  16.286 -0.4200  0.1118 -0.9393
11807TIP3    H256837   4.928   2.045  16.358 -0.9555  0.0393 -0.5983
11808TIP3   OH256838   6.637   5.596   3.958 -0.2808 -0.6147  0.5028
11808TIP3    H156839   6.671   5.596   4.047  2.7311 -0.6164 -0.5080
11808TIP3    H256840   6.658   5.509   3.924  0.9243  0.1821 -0.9247
11809TIP3   OH256841   0.547   3.973   4.845 -0.3509 -0.0960 -0.5740
11809TIP3    H156842   0.562   4.023   4.925 -3.2544  3.2404 -1.8379
11809TIP3    H256843   0.453   3.952   4.847 -0.0725 -1.7211 -2.1830
11810TIP3   OH256844   4.412   3.399   3.192 -0.2393 -0.0452  0.2202
11810TIP3    H156845   4.429   3.492   3.208  2.3837 -0.6704  1.7699
11810TIP3    H256846   4.422   3.357   3.278 -0.0602 -1.9075 -0.6496
11811TIP3   OH256847   6.675   3.779   5.353  0.4397 -0.4608 -0.3129
11811TIP3    H156848   6.665   3.713   5.285  1.5485 -0.5629 -0.3898
11811TIP3    H256849   6.609   3.757   5.418  0.0461 -0.9605 -0.8706
11812TIP3   OH256850   2.857   3.469   5.658  0.4606  0.1554 -0.1604
11812TIP3    H156851   2.833   3.384   5.622 -0.3722  0.4421 -0.3045
11812TIP3    H256852   2.842   3.460   5.753 -0.5269  0.4267 -0.2849
11813TIP3   OH256853   3.296   6.143  13.788 -0.4714  0.4012  0.5154
11813TIP3    H156854   3.277   6.051  13.808 -0.9746  0.5673  0.8110
11813TIP3    H256855   3.362   6.169  13.852 -2.0970  0.9430  2.0598
11814TIP3   OH256856   2.354   5.310  14.455  0.4327 -0.3544 -0.3358
11814TIP3    H156857   2.362   5.406  14.453  1.3535 -0.4223 -2.5284
11814TIP3    H256858   2.432   5.280  14.500  0.0100 -0.0910  0.6010
11815TIP3   OH256859   4.786   4.116  15.592  0.3903 -0.0790  0.2150
11815TIP3    H156860   4.701   4.074  15.581  0.2016  0.6046 -1.1576
11815TIP3    H256861   4.801   4.163  15.510  2.2674 -0.4784  0.2650
11816TIP3   OH256862   3.604   4.142   4.388  0.5835  0.3348  0.5409
11816TIP3    H156863   3.638   4.124   4.476 -2.8316  0.1570  2.0016
11816TIP3    H256864   3.614   4.237   4.377  1.5565  0.2759  0.8617
11817TIP3   OH256865   6.103   2.814  11.474  0.5545  0.4111  0.4078
11817TIP3    H156866   6.097   2.721  11.454  2.1426  0.1999  0.7392
11817TIP3    H256867   6.085   2.820  11.567 -0.2363  0.5305  0.2499
11818TIP3   OH256868   5.079   0.646  11.560  0.0701 -0.1845 -0.2488
11818TIP3    H156869   5.006   0.620  11.617  0.9778  0.0344  1.0743
11818TIP3    H256870   5.052   0.730  11.523 -1.2461 -1.1167 -1.5101
11819TIP3   OH256871   5.129   0.226  15.666 -1.0709  0.1815 -0.5574
11819TIP3    H156872   5.177   0.145  15.682 -1.4696 -0.3875 -2.0203
11819TIP3    H256873   5.046   0.197  15.628 -0.2462  1.2924 -3.4876
11820TIP3   OH256874   0.290   3.080   1.506 -0.3129  0.4503 -0.3925
11820TIP3    H156875   0.350   3.096   1.579  0.6997  0.4242 -1.1949
11820TIP3    H256876   0.284   3.164   1.461  2.0154 -0.3338 -2.4021
11821TIP3   OH256877   4.435   0.652   3.565 -0.0087  0.0363 -0.1327
11821TIP3    H156878   4.437   0.607   3.480 -2.0648 -1.6083  0.6120
11821TIP3    H256879   4.374   0.724   3.551  2.1334  1.8397 -0.8866
11822TIP3   OH256880   2.603   1.201   5.595  0.5653 -0.2402  0.0013
11822TIP3    H156881   2.638   1.123   5.638  0.9093  0.3340  0.7782
11822TIP3    H256882   2.648   1.274   5.637  0.4976  0.3646 -0.9576
11823TIP3   OH256883   4.390   3.866  12.835  0.9251 -0.3985  0.3094
11823TIP3    H156884   4.431   3.926  12.772  1.7852  1.2748  2.3206
11823TIP3    H256885   4.296   3.876  12.820  1.1130 -0.1674 -0.8151
11824TIP3   OH256886   6.620   1.737   0.100  0.1515 -0.0571  0.2153
11824TIP3    H156887   6.696   1.696   0.059  0.4357 -1.6928  2.2246
11824TIP3    H256888   6.552   1.669   0.098  0.0404 -0.0550  1.9634
11825TIP3   OH256889   1.612   2.031   4.303 -0.1316 -0.3866  0.2952
11825TIP3    H156890   1.631   1.937   4.297  1.8582 -0.1415  1.7061
11825TIP3    H256891   1.674   2.071   4.241  0.8918  0.1543  1.6372
11826TIP3   OH256892   4.395   0.455  13.407  0.3191 -0.1289 -0.0530
11826TIP3    H156893   4.366   0.368  13.379 -0.6691 -0.3231  1.4390
11826TIP3    H256894   4.424   0.442  13.497  1.0845  0.9200 -0.1298
11827TIP3   OH256895   3.623   1.143   5.397 -0.0092  0.0305 -0.0452
11827TIP3    H156896   3.559   1.189   5.342 -0.3969 -1.5544 -0.9654
11827TIP3    H256897   3.572   1.075   5.440  0.3805  0.9593  2.0033
11828TIP3   OH256898   0.860   0.717  14.843 -0.6351 -0.2241  0.8764
11828TIP3    H156899   0.922   0.646  14.857 -1.5274 -0.9277  1.3489
11828TIP3    H256900   0.775   0.674  14.835 -1.3494  0.8397  2.2832
11829TIP3   OH256901   4.344   6.658   1.315  0.1728 -0.2309 -0.3493
11829TIP3    H156902   4.261   6.650   1.361 -0.2565  1.0105 -0.8870
11829TIP3    H256903   4.374   6.747   1.333  2.0710 -1.0430  0.9386
11830TIP3   OH256904   1.063   4.477   1.093 -0.0232 -0.1900 -0.1815
11830TIP3    H156905   1.149   4.478   1.136 -0.3714 -1.1638  0.5716
11830TIP3    H256906   1.034   4.568   1.096  0.6730  0.0291  0.1891
11831TIP3   OH256907   0.145   2.748   3.859 -0.0821  0.3090 -0.3638
11831TIP3    H156908   0.234   2.713   3.857 -0.4142 -0.5141 -2.5572
11831TIP3    H256909   0.136   2.798   3.778 -1.3530  1.1316  0.2400
11832TIP3   OH256910   0.900   1.407   3.373 -0.0843  0.8935 -0.0586
11832TIP3    H156911   0.841   1.408   3.448  1.5076 -0.3825  1.2973
11832TIP3    H256912   0.900   1.497   3.341 -1.9018  1.1480  0.5465
11833TIP3   OH256913   4.663   2.163   5.223 -0.0701 -0.1687 -0.1528
11833TIP3    H156914   4.683   2.119   5.141 -0.0701  1.5635 -1.1437
11833TIP3    H256915   4.738   2.219   5.240 -0.9112  0.9833 -0.0650
11834TIP3   OH256916   0.585   6.246   0.079  0.1504 -0.7322 -0.1849
11834TIP3    H156917   0.665   6.206   0.045  0.8349  0.1859  0.3081
11834TIP3    H256918   0.616   6.314   0.138 -1.0000 -1.0404  0.8127
11835TIP3   OH256919   6.228   5.807  15.066  0.1021 -0.4561  0.3279
11835TIP3    H156920   6.321   5.785  15.054  0.3442  0.3070  0.7392
11835TIP3    H256921   6.183   5.723  15.058  0.8337 -0.8519  0.2051
11836TIP3   OH256922   1.405   2.227  12.459  0.3208  0.3304 -0.1479
11836TIP3    H156923   1.419   2.318  12.432  1.3121  0.4700  0.7675
11836TIP3    H256924   1.417   2.228  12.554 -2.5481 -0.2501  0.3150
11837TIP3   OH256925   3.824   3.222   5.754 -0.2503 -0.3849  0.2059
11837TIP3    H156926   3.822   3.153   5.820 -1.6107 -0.1386  0.4577
11837TIP3    H256927   3.746   3.275   5.772 -0.0390  0.3410 -0.9016
11838TIP3   OH256928   0.005   2.353  12.610  0.6736  0.3601 -0.4897
11838TIP3    H156929   0.084   2.327  12.657  0.0800  0.4882  0.5992
11838TIP3    H256930  -0.035   2.419  12.665 -0.3947  0.0326 -0.8543
11839TIP3   OH256931   3.564   3.540  15.560 -0.5424  0.4331 -0.4611
11839TIP3    H156932   3.614   3.622  15.556  0.1059  0.1349  1.0056
11839TIP3    H256933   3.577   3.508  15.649  0.7573 -2.2158 -1.4761
11840TIP3   OH256934   1.289   2.850   4.387  0.0047 -0.5304 -0.1297
11840TIP3    H156935   1.257   2.838   4.477 -0.9952  1.4110 -0.1771
11840TIP3    H256936   1.384   2.855   4.396 -0.0629 -0.6836  0.7839
11841TIP3   OH256937   3.148   3.927  11.259 -0.6406  0.3219 -0.0540
11841TIP3    H156938   3.182   3.980  11.331  0.0805  1.1512 -0.9643
11841TIP3    H256939   3.072   3.882  11.295 -0.6122  1.1394  1.0681
11842TIP3   OH256940   1.703   1.695   0.934 -0.2172 -0.4751  0.3470
11842TIP3    H156941   1.706   1.657   0.846  0.1199 -1.5634  0.8052
11842TIP3    H256942   1.656   1.629   0.986 -0.3119  0.1061  1.0093
11843TIP3   OH256943   5.929   4.252  13.983 -0.1881 -0.5339 -0.1317
11843TIP3    H156944   5.854   4.215  13.936  0.3745 -1.5454 -0.2822
11843TIP3    H256945   5.953   4.329  13.933 -0.8576 -0.4538 -0.3344
11844TIP3   OH256946   0.492   1.922  14.947 -0.0431  0.3181 -0.3215
11844TIP3    H156947   0.408   1.925  14.901 -0.7760  0.9452  0.9940
11844TIP3    H256948   0.497   2.006  14.992  0.5698 -0.3259  0.8476
11845TIP3   OH256949   5.098   3.731  11.988 -0.2768  0.1112  0.3115
11845TIP3    H156950   5.098   3.770  11.901 -0.9964  2.5096  1.3173
11845TIP3    H256951   5.006   3.735  12.015 -0.3291 -2.0540  0.6257
11846TIP3   OH256952   5.411   6.063  13.343 -0.1321  0.1345 -0.5283
11846TIP3    H156953   5.490   6.082  13.292  0.1433  1.4791  0.3221
11846TIP3    H256954   5.432   5.984  13.393  0.6139  0.3700 -0.4632
11847TIP3   OH256955   0.587   4.624   0.151  0.1009  0.0275 -0.1694
11847TIP3    H156956   0.519   4.588   0.209 -0.3305 -0.1851 -0.7895
11847TIP3    H256957   0.643   4.675   0.209 -0.5177  0.1029  0.3838
11848TIP3   OH256958   1.161   4.271   1.711 -0.2057 -0.4379 -0.0417
11848TIP3    H156959   1.249   4.273   1.672 -0.2863 -1.9684 -0.3491
11848TIP3    H256960   1.177   4.271   1.806  0.0770  0.4202 -0.0816
11849TIP3   OH256961   2.838   3.490   4.272  0.2804  0.3893  0.5948
11849TIP3    H156962   2.836   3.574   4.317 -0.6469  0.3479  0.6362
11849TIP3    H256963   2.931   3.476   4.251  0.8465  0.1025  3.0403
11850TIP3   OH256964   4.490   3.209   2.271 -0.1485 -0.2184 -0.4595
11850TIP3    H156965   4.513   3.216   2.364  1.7440 -0.9963 -0.8365
11850TIP3    H256966   4.574   3.208   2.225 -0.9969 -1.5089 -2.0667
11851TIP3   OH256967   3.221   6.131  12.526  0.1902 -0.0957 -0.0279
11851TIP3    H156968   3.261   6.081  12.455 -2.2580 -0.0484 -1.5674
11851TIP3    H256969   3.164   6.194  12.482  0.2058  1.4145  1.9612
11852TIP3   OH256970   4.534   6.701  14.831  0.2428  0.0731 -0.4659
11852TIP3    H156971   4.497   6.780  14.791 -0.5339 -0.7731 -1.4992
11852TIP3    H256972   4.528   6.635  14.762  1.9308 -0.6099 -0.0048
11853TIP3   OH256973   6.314   6.668  14.549 -0.6976  0.3280 -0.7433
11853TIP3    H156974   6.250   6.627  14.607  0.9200  0.6208  1.3206
11853TIP3    H256975   6.292   6.762  14.552 -0.6730  0.3318 -0.6816
11854TIP3   OH256976   2.050   5.289   1.231 -0.4657 -0.2350  0.1968
11854TIP3    H156977   2.116   5.310   1.165 -0.9470  1.0030  0.0877
11854TIP3    H256978   2.100   5.253   1.304  0.0400 -2.0017 -0.9654
11855TIP3   OH256979   4.904   6.514   2.407  0.4404 -0.5946  0.3711
11855TIP3    H156980   4.875   6.425   2.427  0.2552 -0.4445  0.7931
11855TIP3    H256981   4.824   6.563   2.389  0.4365 -0.2631  1.1967
11856TIP3   OH256982   2.723   0.164   1.269  0.2944 -0.0340  0.2546
11856TIP3    H156983   2.768   0.238   1.308  0.5526  0.1403 -0.3632
11856TIP3    H256984   2.655   0.203   1.213  0.0274 -0.2753  0.4045
11857TIP3   OH256985   2.366   1.965   5.212 -0.4630  0.2334  0.3207
11857TIP3    H156986   2.293   2.018   5.243  0.0002  1.6424 -0.8880
11857TIP3    H256987   2.422   2.026   5.165  1.0304 -1.0021  0.4191
11858TIP3   OH256988   6.692   2.389   4.163  0.1037  0.6381  0.2524
11858TIP3    H156989   6.646   2.311   4.133 -0.2397  0.6270  0.7864
11858TIP3    H256990   6.720   2.433   4.083 -1.2719  0.8887 -0.1213
11859TIP3   OH256991   6.736   4.113   3.054  0.1616  0.1993 -0.0094
11859TIP3    H156992   6.678   4.146   3.123  0.1487  0.3253 -0.0809
11859TIP3    H256993   6.820   4.155   3.072  0.6015 -1.0169  0.8980
11860TIP3   OH256994   1.291   6.534  15.933  0.0321  0.2368  0.0835
11860TIP3    H156995   1.276   6.527  15.839  1.1819  0.5212 -0.1412
11860TIP3    H256996   1.206   6.559  15.969 -0.3140  0.5949 -0.9384
11861TIP3   OH256997   2.768   4.573  11.174  0.2132 -0.0540 -0.2463
11861TIP3    H156998   2.858   4.553  11.147  0.6851  1.7520 -0.1628
11861TIP3    H256999   2.771   4.569  11.270 -0.5235 -2.6898 -0.2524
11862TIP3   OH257000   0.412   5.519  12.514  0.2483  0.2197  0.1393
11862TIP3    H157001   0.451   5.433  12.530  1.9921  0.8191 -0.6845
11862TIP3    H257002   0.351   5.505  12.442  1.2457 -0.1669 -0.6499
11863TIP3   OH257003   0.423   0.838   5.234 -0.4936  0.4937 -0.1883
11863TIP3    H157004   0.473   0.766   5.194 -0.9758  0.7510 -1.3039
11863TIP3    H257005   0.436   0.912   5.174 -0.2572  1.2505  0.7860
11864TIP3   OH257006   0.635   6.122  12.777 -0.1220 -0.1386  0.1236
11864TIP3    H157007   0.581   6.058  12.823 -0.6424 -0.5516 -1.0063
11864TIP3    H257008   0.716   6.076  12.756 -0.8868 -0.8129 -1.5742
11865TIP3   OH257009   1.360   2.256   2.891 -0.0876  0.0504 -0.3085
11865TIP3    H157010   1.430   2.225   2.833  1.1027  0.5921  0.7951
11865TIP3    H257011   1.378   2.350   2.902 -2.1343  0.6557 -1.5374
11866TIP3   OH257012   1.344   6.056   4.476 -0.0263 -0.4302  0.6954
11866TIP3    H157013   1.310   6.146   4.475 -0.2876 -0.4977  1.8035
11866TIP3    H257014   1.421   6.061   4.533  3.1784  0.1317 -3.2418
11867TIP3   OH257015   3.604   5.795  16.518  0.1803 -0.3287 -0.1243
11867TIP3    H157016   3.598   5.717  16.462  3.6770  0.0100 -1.1790
11867TIP3    H257017   3.593   5.868  16.457  1.7631  0.0189 -0.0173
11868TIP3   OH257018   5.679   3.062  16.928 -0.2371  0.1889 -0.1049
11868TIP3    H157019   5.684   3.056  16.833  0.1183 -0.5314 -0.0524
11868TIP3    H257020   5.760   3.106  16.954  0.0600 -0.3630 -0.0836
11869TIP3   OH257021   3.440   4.342   3.418 -0.0342 -0.5584  0.0856
11869TIP3    H157022   3.482   4.428   3.414  0.1012 -0.5437  1.3429
11869TIP3    H257023   3.370   4.346   3.353  0.1385  0.4106 -0.0557
11870TIP3   OH257024   6.748   4.971   5.689  0.4890  0.9220  0.0565
11870TIP3    H157025   6.830   5.019   5.678  1.2909 -0.5836 -0.9242
11870TIP3    H257026   6.772   4.896   5.745  0.4150 -0.8415 -2.1252
11871TIP3   OH257027   0.505   1.451   3.596 -0.4113  0.2183  0.0654
11871TIP3    H157028   0.513   1.536   3.640 -2.0541  0.0105  0.8445
11871TIP3    H257029   0.591   1.410   3.609  0.8148  2.1424 -1.2885
11872TIP3   OH257030   5.735   5.230  11.424 -0.0313 -0.1937 -0.6346
11872TIP3    H157031   5.643   5.221  11.401 -0.0103  1.2164 -1.3703
11872TIP3    H257032   5.767   5.140  11.432 -1.5368 -0.7105 -0.0229
11873TIP3   OH257033   3.481   2.949   4.010  0.1181  0.1264  0.2266
11873TIP3    H157034   3.390   2.975   4.028 -0.3485  0.9477 -2.7815
11873TIP3    H257035   3.534   3.013   4.057 -0.9138  1.3696 -0.2405
11874TIP3   OH257036   1.657   2.931  12.296  0.0299 -0.2762  0.3264
11874TIP3    H157037   1.573   2.963  12.329 -0.4603 -2.0882  0.9363
11874TIP3    H257038   1.719   2.952  12.365  0.2064  1.4930 -0.3253
11875TIP3   OH257039   3.849   6.058  15.010  0.1644  0.4885 -0.0141
11875TIP3    H157040   3.897   5.977  15.027 -0.6726 -0.0534 -0.1952
11875TIP3    H257041   3.780   6.033  14.949 -1.4251  0.9017  1.5613
11876TIP3   OH257042   2.651   2.810   3.468 -0.1095  0.1000  0.4595
11876TIP3    H157043   2.590   2.749   3.511 -0.4702  1.2429  1.6581
11876TIP3    H257044   2.676   2.871   3.538 -0.3027  1.7259 -0.8295
11877TIP3   OH257045   0.921   0.179   3.291 -0.5735  0.0985 -0.7032
11877TIP3    H157046   0.930   0.130   3.209  0.6890  1.0818 -1.1852
11877TIP3    H257047   0.851   0.243   3.273 -1.1213 -0.4570 -0.5976
11878TIP3   OH257048   3.253   0.572  12.435  0.7126 -0.5659 -0.8412
11878TIP3    H157049   3.257   0.515  12.358 -1.9761 -1.1007 -0.6466
11878TIP3    H257050   3.266   0.514  12.510  0.0931 -0.5791 -0.7421
11879TIP3   OH257051   3.350   3.925  11.083  0.0378 -0.0318  0.1832
11879TIP3    H157052   3.280   3.908  11.146  1.8544 -0.4261  2.2228
11879TIP3    H257053   3.309   3.912  10.998 -2.4037 -0.0263  1.2701
11880TIP3   OH257054   0.153   6.165  14.483 -0.1600 -0.1172 -0.0105
11880TIP3    H157055   0.174   6.258  14.476 -5.2856  1.2696 -0.4256
11880TIP3    H257056   0.176   6.142  14.573  0.2652  1.8105  0.4140
11881TIP3   OH257057   4.497   3.078   6.498  0.4877  0.0304  0.1103
11881TIP3    H157058   4.573   3.114   6.544  1.0869  0.7606 -1.3879
11881TIP3    H257059   4.532   3.005   6.447 -0.0358 -0.3575  0.2962
11882TIP3   OH257060   4.122   4.806  15.717  0.0201  0.3153 -0.2406
11882TIP3    H157061   4.031   4.831  15.704 -0.5341 -1.6354 -0.4000
11882TIP3    H257062   4.159   4.877  15.769 -1.0384  2.1138 -1.8077
11883TIP3   OH257063   5.271   6.769   1.525 -0.4910 -0.4445 -0.1682
11883TIP3    H157064   5.179   6.749   1.542 -0.9192  1.2860 -0.2888
11883TIP3    H257065   5.318   6.689   1.551 -1.8708 -0.8093  1.3550
11884TIP3   OH257066   0.653   5.404  13.248 -0.0792 -0.0357  0.1115
11884TIP3    H157067   0.576   5.348  13.236  0.6855 -1.1340  0.1718
11884TIP3    H257068   0.617   5.489  13.273 -1.2302 -1.0972  2.3865
11885TIP3   OH257069   5.858   4.352   2.345  0.0589 -0.1654 -0.1351
11885TIP3    H157070   5.845   4.381   2.435 -1.8936 -2.7275  0.5372
11885TIP3    H257071   5.772   4.321   2.317  0.5999  0.5905 -2.9470
11886TIP3   OH257072   0.764   2.855  13.495 -0.4170  0.0026 -0.2891
11886TIP3    H157073   0.713   2.936  13.487 -0.1880  0.2858  0.8995
11886TIP3    H257074   0.710   2.797  13.548 -0.0868 -0.1990 -0.1680
11887TIP3   OH257075   4.949   0.375  13.603  0.1907  0.0460 -0.0414
11887TIP3    H157076   4.874   0.434  13.604 -0.1094 -0.3334  0.2688
11887TIP3    H257077   4.915   0.292  13.638  0.2266 -0.7862 -1.8678
11888TIP3   OH257078   5.079   5.830  14.038 -0.0121  0.1436 -0.2312
11888TIP3    H157079   5.029   5.893  14.091  2.1184  1.1145  0.7439
11888TIP3    H257080   5.080   5.751  14.091 -2.4816 -0.7387 -1.3449
11889TIP3   OH257081   2.543   4.059   3.381  0.6146  0.5218 -0.0711
11889TIP3    H157082   2.537   3.966   3.402  2.3598  0.4813  0.4147
11889TIP3    H257083   2.627   4.086   3.416 -0.5913  2.7190  1.3913
11890TIP3   OH257084   2.482   0.634  15.084  0.2966  0.3454  0.2898
11890TIP3    H157085   2.509   0.563  15.142 -0.7969 -1.1423 -0.9075
11890TIP3    H257086   2.388   0.641  15.097  0.4638  2.0817  0.8563
11891TIP3   OH257087   4.128   1.425   6.036 -0.4486  0.1926  0.0360
11891TIP3    H157088   4.162   1.346   5.994 -0.4934  0.5811 -0.7554
11891TIP3    H257089   4.202   1.459   6.086  0.7421  1.5964 -2.4763
11892TIP3   OH257090   2.197   5.370   3.377  0.0877 -0.0355  0.2933
11892TIP3    H157091   2.244   5.443   3.418  0.6626  0.0476 -0.4931
11892TIP3    H257092   2.240   5.359   3.292  0.4346 -1.7065  0.6554
11893TIP3   OH257093   5.560   0.951   4.068  0.5529  0.1923  0.1392
11893TIP3    H157094   5.486   1.010   4.083  0.1894  0.1068 -1.1633
11893TIP3    H257095   5.637   1.008   4.069  0.3917  0.4027  0.7142
11894TIP3   OH257096   5.186   0.499  14.373  0.2628  0.3622 -0.2195
11894TIP3    H157097   5.124   0.568  14.353 -1.4270 -1.2444 -0.7433
11894TIP3    H257098   5.198   0.451  14.291 -0.9878 -1.7748  0.7412
11895TIP3   OH257099   3.639   4.339   3.148  0.0379 -0.6488  0.2608
11895TIP3    H157100   3.675   4.250   3.147  0.1342 -0.6038 -0.3524
11895TIP3    H257101   3.558   4.331   3.200 -0.3904 -1.2679 -0.4833
11896TIP3   OH257102   6.788   3.343   3.393 -0.7536 -0.7802  0.0276
11896TIP3    H157103   6.867   3.316   3.440 -0.5149 -0.8120 -0.3857
11896TIP3    H257104   6.731   3.379   3.461  1.3079  3.3501 -0.1168
11897TIP3   OH257105   5.553   0.802  16.449  0.6773 -0.4487 -0.1667
11897TIP3    H157106   5.577   0.723  16.496  1.5645  0.3637  0.7921
11897TIP3    H257107   5.630   0.858  16.455  1.1082 -0.5551 -3.1914
11898TIP3   OH257108   5.740   0.856  12.032  0.0284  0.0737 -0.5554
11898TIP3    H157109   5.763   0.943  12.065  0.0192  0.5657 -1.7963
11898TIP3    H257110   5.755   0.861  11.938 -1.1633 -0.8905 -0.8248
11899TIP3   OH257111   2.375   4.871   0.438  0.1653  0.3945  0.1308
11899TIP3    H157112   2.461   4.882   0.479  0.5335  0.8116 -0.7349
11899TIP3    H257113   2.367   4.945   0.378 -0.1634 -0.4567 -0.9059
11900TIP3   OH257114   2.905   2.198  11.738 -0.6506  0.4925  0.3444
11900TIP3    H157115   2.932   2.114  11.700 -0.6800 -0.0143  1.3872
11900TIP3    H257116   2.820   2.179  11.779 -0.3191  0.8308  1.2177
11901TIP3   OH257117   5.576   6.258   4.419  0.0341 -0.0959 -0.4180
11901TIP3    H157118   5.642   6.188   4.413 -0.7855 -0.7347 -4.1484
11901TIP3    H257119   5.496   6.219   4.384 -0.7463  2.3501 -1.5836
11902TIP3   OH257120   4.216   3.000  15.571 -0.2344 -0.3111  0.1089
11902TIP3    H157121   4.234   2.933  15.636 -2.4697 -0.1936  0.9229
11902TIP3    H257122   4.163   3.065  15.617 -2.0871 -0.3299 -1.8275
11903TIP3   OH257123   2.877   2.292  12.232 -0.4666  0.1092 -0.2235
11903TIP3    H157124   2.928   2.365  12.196  0.4569 -0.1491  0.5249
11903TIP3    H257125   2.943   2.231  12.264 -1.2051 -1.2765 -1.2425
11904TIP3   OH257126   1.977   5.395  15.078  0.3533 -0.6828  0.1161
11904TIP3    H157127   2.002   5.485  15.097  1.4743 -1.0193  0.3097
11904TIP3    H257128   1.884   5.390  15.104 -0.6439  1.1786 -2.6220
11905TIP3   OH257129   1.032   5.923  14.329 -0.4522 -0.1304  0.1357
11905TIP3    H157130   1.115   5.906  14.375  0.2992 -1.0282 -1.4814
11905TIP3    H257131   1.045   6.009  14.288 -0.8273  0.3115  0.9166
11906TIP3   OH257132   5.869   1.549   2.090  0.4892  0.4135 -0.4456
11906TIP3    H157133   5.858   1.570   1.997  0.7157  1.3317 -0.2802
11906TIP3    H257134   5.838   1.627   2.136  0.7454  0.1246  0.2327
11907TIP3   OH257135   2.203   2.074  12.476 -0.3486 -0.7201 -0.4129
11907TIP3    H157136   2.194   2.139  12.406 -1.1362 -2.3391 -1.8822
11907TIP3    H257137   2.158   2.114  12.551  1.2789  1.4208 -0.4969
11908TIP3   OH257138   5.986   0.304   2.325 -0.6177 -0.6966  0.3231
11908TIP3    H157139   5.977   0.339   2.414  0.8796 -0.5234  0.4363
11908TIP3    H257140   6.037   0.370   2.278  1.2387 -2.1204  0.2049
11909TIP3   OH257141   5.612   5.286  13.928 -0.4778  0.2976 -0.0833
11909TIP3    H157142   5.689   5.341  13.945 -0.4034  0.4618 -0.9127
11909TIP3    H257143   5.641   5.198  13.951 -0.4181  0.5173  0.7195
11910TIP3   OH257144   1.397   5.096  11.297 -0.1673  0.4031 -0.2289
11910TIP3    H157145   1.459   5.061  11.362  0.3455  1.6393 -0.0196
11910TIP3    H257146   1.370   5.020  11.246  0.0948 -0.4621  0.8682
11911TIP3   OH257147   2.321   1.813   3.065 -1.0310  0.2664  0.0252
11911TIP3    H157148   2.317   1.907   3.047  0.8168  0.6815  1.5364
11911TIP3    H257149   2.321   1.806   3.160 -0.9054 -1.2511 -0.0603
11912TIP3   OH257150   5.641   1.495   1.555  0.0900  0.0526  0.3214
11912TIP3    H157151   5.573   1.522   1.494 -2.1581 -2.3511  1.5564
11912TIP3    H257152   5.668   1.409   1.524  0.3803 -0.3074  1.5113
11913TIP3   OH257153   3.547   0.536  17.067  0.5282 -0.0717  0.5895
11913TIP3    H157154   3.551   0.621  17.111  1.0434  0.7263 -0.9427
11913TIP3    H257155   3.495   0.552  16.989  0.8704 -1.1058  0.1357
11914TIP3   OH257156   0.027   2.877   3.642  0.7855  0.5525 -0.2067
11914TIP3    H157157  -0.058   2.883   3.687  0.1886  0.2039 -1.2575
11914TIP3    H257158   0.016   2.927   3.562  0.7780 -1.4346 -1.5025
11915TIP3   OH257159   6.556   5.293  13.125  0.9180  0.0062  0.7656
11915TIP3    H157160   6.535   5.214  13.175  2.3844  0.4818  2.1910
11915TIP3    H257161   6.490   5.294  13.055  1.6784 -3.2219 -0.1943
11916TIP3   OH257162   0.652   2.400   6.619 -0.3174 -0.2934 -0.1777
11916TIP3    H157163   0.739   2.396   6.657 -0.6677 -2.0425  0.5444
11916TIP3    H257164   0.654   2.337   6.547 -0.9763 -0.3525 -0.1530
11917TIP3   OH257165   5.129   4.382   3.368 -0.1357  0.1996 -0.0011
11917TIP3    H157166   5.151   4.451   3.306  0.6141  2.1006  2.2563
11917TIP3    H257167   5.041   4.405   3.399 -0.5514 -0.7972 -0.3779
11918TIP3   OH257168   4.723   5.702  12.828 -0.3844  0.0791  0.0167
11918TIP3    H157169   4.761   5.761  12.892  0.0106  1.9692 -1.8223
11918TIP3    H257170   4.793   5.641  12.806 -0.1636  0.1406  0.5591
11919TIP3   OH257171   2.579   4.872   4.523  0.8721  0.2300 -0.1019
11919TIP3    H157172   2.658   4.883   4.469  1.5741  0.2281  0.8859
11919TIP3    H257173   2.528   4.806   4.477  1.6861 -0.1285 -0.5196
11920TIP3   OH257174   2.078   1.917   4.590  0.2285  0.4863 -0.3870
11920TIP3    H157175   2.106   1.826   4.599  0.8140  0.5898 -1.0665
11920TIP3    H257176   2.137   1.966   4.648 -1.6619  0.2003  1.9433
11921TIP3   OH257177   1.845   1.417  15.430  0.0201  0.4167 -0.5281
11921TIP3    H157178   1.910   1.370  15.482  0.6750  1.4034 -0.4348
11921TIP3    H257179   1.782   1.450  15.495  0.6935  1.4228 -0.3681
11922TIP3   OH257180   2.179   3.375   0.916 -0.3976  0.2069 -0.7647
11922TIP3    H157181   2.136   3.290   0.924  1.8735 -1.0312 -0.8504
11922TIP3    H257182   2.167   3.400   0.825  1.0805 -1.3076 -1.4123
11923TIP3   OH257183   2.142   5.463   3.014 -0.2676 -0.1053 -0.6146
11923TIP3    H157184   2.066   5.472   2.957 -1.1358 -1.3595  0.2777
11923TIP3    H257185   2.136   5.537   3.073 -1.7312 -0.9922  0.4379
11924TIP3   OH257186   3.149   6.029  16.109 -0.5509 -0.2123  0.0577
11924TIP3    H157187   3.126   6.114  16.145 -3.0640 -1.3790  1.4341
11924TIP3    H257188   3.128   5.967  16.178  3.1492 -1.9228 -0.0853
11925TIP3   OH257189   4.087   5.983   2.443  0.3595  0.2120 -0.0531
11925TIP3    H157190   4.180   5.969   2.424  0.2216  2.0400 -2.5306
11925TIP3    H257191   4.086   6.061   2.498  0.2578  0.7882 -0.8632
11926TIP3   OH257192   2.442   2.196   1.434 -0.2948  0.4778  0.0402
11926TIP3    H157193   2.490   2.114   1.421 -0.3149  0.5924 -0.8140
11926TIP3    H257194   2.475   2.230   1.517  0.8157  0.3477 -0.3299
11927TIP3   OH257195   0.053   0.558  11.138 -0.1903 -0.4372 -0.2461
11927TIP3    H157196   0.100   0.475  11.148  0.4617  0.0413  1.0003
11927TIP3    H257197   0.039   0.567  11.044  2.4845 -0.5008 -0.7428
11928TIP3   OH257198   0.484   3.591   2.731  0.1281 -0.2056  0.2365
11928TIP3    H157199   0.562   3.539   2.716  0.2192  0.2496 -1.0307
11928TIP3    H257200   0.428   3.573   2.655  0.3946  1.9006 -0.5416
11929TIP3   OH257201   6.564   6.474  13.806  0.2122  0.8103 -0.0510
11929TIP3    H157202   6.581   6.493  13.898 -2.2589 -0.2838  0.7148
11929TIP3    H257203   6.569   6.379  13.799 -1.8593  0.6691 -0.4539
11930TIP3   OH257204   6.699   1.710   1.716 -0.3989  0.1902 -0.2998
11930TIP3    H157205   6.619   1.680   1.760 -0.3753  0.6688  0.0784
11930TIP3    H257206   6.676   1.795   1.680  0.1722  0.6928  0.4974
11931TIP3   OH257207   4.375   1.018   2.931 -0.4428 -0.0879  0.1838
11931TIP3    H157208   4.400   1.004   2.840 -2.5017  1.7355 -0.7416
11931TIP3    H257209   4.387   0.932   2.972 -0.4542 -1.2269 -2.0336
11932TIP3   OH257210   1.035   4.095  16.092 -0.1212 -0.5778  0.0529
11932TIP3    H157211   1.085   4.163  16.137 -0.6143  1.5365 -2.3953
11932TIP3    H257212   0.974   4.062  16.159  2.0094 -0.6628  2.0576
11933TIP3   OH257213   0.515   5.115   4.615  0.2582  0.5150 -0.6234
11933TIP3    H157214   0.490   5.079   4.700 -0.0641  1.3222 -0.3702
11933TIP3    H257215   0.442   5.172   4.590  1.3795  2.1752 -0.3044
11934TIP3   OH257216   2.692   4.278   6.416 -0.0018  0.5092  0.1109
11934TIP3    H157217   2.637   4.227   6.357  1.0071 -1.1804  0.5646
11934TIP3    H257218   2.714   4.217   6.487  1.7854  1.3614  0.3432
11935TIP3   OH257219   2.785   1.845  14.091  0.0282 -0.2855  0.5115
11935TIP3    H157220   2.773   1.774  14.154  1.1952 -1.7830 -0.8807
11935TIP3    H257221   2.879   1.847  14.074 -0.1495  0.7238 -0.4759
11936TIP3   OH257222   4.002   6.627  13.051 -0.1361 -0.3236  0.1615
11936TIP3    H157223   4.020   6.599  13.142 -0.0128  2.5863  1.1233
11936TIP3    H257224   4.069   6.693  13.033 -1.3745  0.5701 -1.3466
11937TIP3   OH257225   4.359   1.955  14.111 -0.4705  0.2758  0.3011
11937TIP3    H157226   4.278   2.006  14.115 -1.5159 -1.1265 -1.2250
11937TIP3    H257227   4.392   1.968  14.022  0.8093  0.5359  0.7922
11938TIP3   OH257228   5.806   0.255  16.271  0.4464  0.1210 -0.2596
11938TIP3    H157229   5.883   0.226  16.320  0.8536 -0.1709 -1.0532
11938TIP3    H257230   5.792   0.345  16.300 -1.4899 -1.0838  3.0506
11939TIP3   OH257231   5.453   2.823  15.240 -0.0461 -0.0981  0.0800
11939TIP3    H157232   5.378   2.879  15.260 -1.0827 -0.7676 -1.7345
11939TIP3    H257233   5.526   2.861  15.290 -1.6188  0.4083  2.1092
11940TIP3   OH257234   0.094   2.241  13.355 -0.2098 -0.7898 -0.2186
11940TIP3    H157235   0.143   2.197  13.286 -0.0013 -0.2678 -0.4099
11940TIP3    H257236   0.002   2.233  13.328 -0.0686  0.3927 -1.1707
11941TIP3   OH257237   0.215   0.463   3.693 -0.1344 -0.4059 -0.1977
11941TIP3    H157238   0.223   0.559   3.685  0.6975 -0.5180 -0.9430
11941TIP3    H257239   0.285   0.438   3.753  0.0265 -0.5985 -0.4618
11942TIP3   OH257240   1.593   4.595   4.903 -1.0468  0.4188  0.2369
11942TIP3    H157241   1.538   4.543   4.843 -1.1724 -1.9658  2.2557
11942TIP3    H257242   1.533   4.658   4.941 -1.0835  1.6134 -1.6648
11943TIP3   OH257243   3.821   1.043   4.384 -1.1989  0.0665 -0.3380
11943TIP3    H157244   3.837   1.109   4.316 -1.9160 -0.3134 -0.8877
11943TIP3    H257245   3.726   1.040   4.392 -1.1247  0.0263  0.6173
11944TIP3   OH257246   1.845   2.731   2.567 -0.1707 -0.5774  0.1236
11944TIP3    H157247   1.879   2.652   2.610 -0.2716 -0.4532  0.4387
11944TIP3    H257248   1.885   2.803   2.616  2.1533 -0.3804 -1.8942
11945TIP3   OH257249   2.710   5.635  15.169  0.0510 -0.2450  0.5189
11945TIP3    H157250   2.756   5.576  15.109 -0.5109  0.2723 -0.4618
11945TIP3    H257251   2.624   5.595  15.181 -0.3508  0.3636 -0.1887
11946TIP3   OH257252   0.325   1.827  15.762  0.0457  0.2479  0.0158
11946TIP3    H157253   0.246   1.774  15.750  0.1879 -0.6185  2.3792
11946TIP3    H257254   0.397   1.765  15.753  0.3454  0.5708  0.1739
11947TIP3   OH257255   2.423   1.720   1.976 -0.4972 -0.1487  0.1962
11947TIP3    H157256   2.371   1.799   1.990 -1.8856 -1.1769  1.1191
11947TIP3    H257257   2.514   1.751   1.977 -1.0204  1.8191 -2.1794
11948TIP3   OH257258   5.325   2.130  12.824  0.3661  0.6174 -0.1582
11948TIP3    H157259   5.293   2.124  12.913  0.8085 -1.9231 -0.0988
11948TIP3    H257260   5.304   2.045  12.785 -0.5881  1.9488 -2.7712
11949TIP3   OH257261   2.020   4.755   4.334  0.2629 -0.2447 -0.0650
11949TIP3    H157262   1.998   4.730   4.245 -0.6250 -0.9117  0.3276
11949TIP3    H257263   1.976   4.838   4.348  0.1501 -0.2902 -0.1471
11950TIP3   OH257264   4.179   5.795   6.218  0.2890 -0.1993 -0.5904
11950TIP3    H157265   4.167   5.882   6.255 -0.5305 -0.4787 -0.1797
11950TIP3    H257266   4.214   5.743   6.290 -1.2165 -0.7203 -0.1858
11951TIP3   OH257267   6.458   6.327   2.844  0.6110 -0.0853 -0.1874
11951TIP3    H157268   6.496   6.322   2.757 -0.3697  1.4489 -0.7510
11951TIP3    H257269   6.443   6.236   2.870  1.8926 -0.5953 -1.1615
11952TIP3   OH257270   3.923   3.040  12.133 -0.2856  0.9192  0.2589
11952TIP3    H157271   3.976   3.009  12.206 -2.4107  0.0580  1.5152
11952TIP3    H257272   3.969   3.009  12.055  0.0696 -1.4691  1.3418
11953TIP3   OH257273   0.415   2.988  16.662 -0.3978 -0.3890  0.0410
11953TIP3    H157274   0.486   2.949  16.611  0.2937 -0.5094  1.0766
11953TIP3    H257275   0.411   3.079  16.631  2.0267  0.4172  1.7872
11954TIP3   OH257276   0.392   1.110  11.399 -0.1658  0.2018  0.2125
11954TIP3    H157277   0.349   1.037  11.355  0.1256  0.6955 -0.9155
11954TIP3    H257278   0.356   1.188  11.358  1.1470  0.6472 -0.1370
11955TIP3   OH257279   2.766   3.072  12.012 -0.6806 -0.1690  0.0011
11955TIP3    H157280   2.767   3.121  12.094  0.3502 -0.9929  0.4938
11955TIP3    H257281   2.674   3.049  12.000 -0.5648 -2.2889  2.3207
11956TIP3   OH257282   6.533   0.832  13.663 -0.2893  0.1469 -0.4538
11956TIP3    H157283   6.535   0.739  13.682  1.3677  0.2257 -0.0707
11956TIP3    H257284   6.459   0.843  13.603 -1.6937 -1.0993  0.9382
11957TIP3   OH257285   5.427   0.347   5.517 -0.5069 -0.4080 -0.1968
11957TIP3    H157286   5.381   0.358   5.434  0.0739 -2.6400 -0.8723
11957TIP3    H257287   5.495   0.282   5.498  1.6090  1.2328  1.2777
11958TIP3   OH257288   4.489   3.380  13.298  0.1007  0.2031 -0.9139
11958TIP3    H157289   4.439   3.356  13.376 -2.2507 -0.2115 -2.4480
11958TIP3    H257290   4.449   3.463  13.269  0.1109 -0.2525 -2.3123
11959TIP3   OH257291   0.664   2.451  11.563  0.0587 -0.1253 -0.3613
11959TIP3    H157292   0.695   2.426  11.476  1.4620 -0.4967  0.2099
11959TIP3    H257293   0.673   2.546  11.565  0.5181 -0.1651 -0.4454
11960TIP3   OH257294   1.928   0.122   0.424 -0.0930 -0.3516 -0.7476
11960TIP3    H157295   1.895   0.210   0.443  0.1103 -0.3959 -0.1492
11960TIP3    H257296   1.993   0.134   0.355 -0.9374 -0.1931 -1.5381
11961TIP3   OH257297   0.599   1.328   4.771  0.0684 -0.1272  0.0578
11961TIP3    H157298   0.593   1.262   4.702  0.7334 -0.0184 -0.1070
11961TIP3    H257299   0.682   1.373   4.754 -0.5656  1.0474 -0.1074
11962TIP3   OH257300   4.918   5.446  15.275 -0.1193 -0.5912 -0.1877
11962TIP3    H157301   4.901   5.477  15.186 -0.3212 -1.2467 -0.3813
11962TIP3    H257302   4.997   5.493  15.302 -1.5362  1.6550  0.3086
11963TIP3   OH257303   4.729   0.191   2.458  0.0681 -0.2778 -0.1245
11963TIP3    H157304   4.696   0.222   2.542  1.6797  2.5536 -0.4055
11963TIP3    H257305   4.820   0.166   2.476  0.0170 -0.9467 -0.7699
11964TIP3   OH257306   5.571   5.995   6.668  0.4278  0.3407 -0.3637
11964TIP3    H157307   5.644   6.023   6.723  0.6111  1.6530 -1.2338
11964TIP3    H257308   5.529   6.076   6.641  0.3809 -0.2569 -2.2074
11965TIP3   OH257309   2.192   3.195   2.426 -0.5251 -0.3746  0.2748
11965TIP3    H157310   2.165   3.227   2.512 -1.3834  1.6566 -0.6793
11965TIP3    H257311   2.116   3.209   2.370  0.4039 -0.5407 -1.0803
11966TIP3   OH257312   6.140   3.070  11.114  0.4762  0.0859 -0.2516
11966TIP3    H157313   6.090   3.033  11.187  0.2677 -2.9946 -1.7552
11966TIP3    H257314   6.081   3.134  11.074  0.3917  1.4156  1.8613
11967TIP3   OH257315   1.336   0.243  16.820 -0.5296 -0.2505 -0.2605
11967TIP3    H157316   1.364   0.300  16.892 -2.0714 -0.8266  0.8509
11967TIP3    H257317   1.242   0.256  16.815 -0.5558 -0.8576 -1.6507
11968TIP3   OH257318   1.773   2.178   0.263  0.1591  0.0803  0.1478
11968TIP3    H157319   1.828   2.202   0.189  0.4303  0.0905  0.3493
11968TIP3    H257320   1.701   2.241   0.261  0.8185  0.8723  0.6206
11969TIP3   OH257321   1.929   3.066   3.744 -0.1419  0.7243 -0.2488
11969TIP3    H157322   1.852   3.039   3.694  0.4429  1.1201 -1.3987
11969TIP3    H257323   1.976   2.985   3.762 -0.7203  0.5028  0.2964
11970TIP3   OH257324   2.648   5.918   1.118  0.1154 -0.1739  0.0693
11970TIP3    H157325   2.556   5.897   1.135 -0.0394 -0.1102 -0.6650
11970TIP3    H257326   2.692   5.834   1.120 -0.2823 -0.4417 -1.5121
11971TIP3   OH257327   1.676   5.608  13.482  0.1919 -0.4810  0.1997
11971TIP3    H157328   1.663   5.679  13.418  1.3936  1.6830  2.1779
11971TIP3    H257329   1.597   5.555  13.475 -2.6482  3.1710  1.1152
11972TIP3   OH257330   2.577   4.505   6.484  0.5973  0.3590  0.2275
11972TIP3    H157331   2.487   4.493   6.512 -0.1267  1.9905 -1.2166
11972TIP3    H257332   2.594   4.431   6.426 -0.9057  1.5933 -1.9120
11973TIP3   OH257333   3.691   5.465   2.606 -0.3333 -0.0029  0.0988
11973TIP3    H157334   3.746   5.417   2.543 -0.4350 -0.8337  0.6199
11973TIP3    H257335   3.701   5.557   2.581  0.7438 -0.1972 -0.2540
11974TIP3   OH257336   2.807   6.482  16.691 -0.1122  0.1855 -0.8285
11974TIP3    H157337   2.753   6.404  16.679 -1.1754  0.5596  1.0635
11974TIP3    H257338   2.891   6.448  16.722 -0.7868 -0.2127  0.6476
11975TIP3   OH257339   1.588   5.954  15.533 -0.3972 -0.4860 -0.5540
11975TIP3    H157340   1.510   5.987  15.577  0.2209  1.1056 -0.5586
11975TIP3    H257341   1.647   5.930  15.604 -0.3050 -0.1943 -0.5306
11976TIP3   OH257342   1.686   5.239   4.009  0.4057  0.6610  0.0770
11976TIP3    H157343   1.760   5.227   4.068  0.3769  2.9786  0.6696
11976TIP3    H257344   1.619   5.178   4.042  1.9646 -1.4324 -0.4525
11977TIP3   OH257345   4.426   3.468  11.778 -0.4030  0.0679 -0.5284
11977TIP3    H157346   4.412   3.456  11.872  0.0019  1.3299 -0.2935
11977TIP3    H257347   4.440   3.379  11.745 -1.1309 -0.4531  0.4967
11978TIP3   OH257348   5.667   4.942  16.741  0.0544  0.2128 -0.4703
11978TIP3    H157349   5.606   4.938  16.667 -1.6540 -1.9068  0.8961
11978TIP3    H257350   5.745   4.897  16.710 -0.9825 -1.4772 -0.7824
11979TIP3   OH257351   2.156   0.998   2.660  0.0632 -0.0341  0.1032
11979TIP3    H157352   2.219   1.041   2.718  0.9940 -1.6521  0.3579
11979TIP3    H257353   2.188   1.016   2.572 -0.1955  0.7202  0.1582
11980TIP3   OH257354   6.002   0.797  16.102 -0.2877 -0.6993 -0.0854
11980TIP3    H157355   6.027   0.861  16.035  0.2769  1.5850  2.1933
11980TIP3    H257356   5.909   0.782  16.087 -0.0055 -0.9560 -1.8938
11981TIP3   OH257357   6.613   3.354   6.179 -0.0810  0.0374 -0.0480
11981TIP3    H157358   6.623   3.406   6.259 -0.8292 -0.7663  0.5729
11981TIP3    H257359   6.521   3.365   6.154  0.1253  0.2217 -0.7667
11982TIP3   OH257360   5.117   1.951   3.942 -0.0668  0.2391 -0.1088
11982TIP3    H157361   5.026   1.926   3.956 -0.4169 -0.0010 -2.4840
11982TIP3    H257362   5.113   2.034   3.895  0.9315  0.0159 -0.6250
11983TIP3   OH257363   6.327   1.888   4.794  0.3256  0.7526 -0.0103
11983TIP3    H157364   6.246   1.914   4.837 -0.1008 -1.5824  0.7736
11983TIP3    H257365   6.396   1.928   4.847 -0.2707  0.0520  1.3715
11984TIP3   OH257366   2.108   4.023   4.656  0.3848 -0.4195  0.2364
11984TIP3    H157367   2.190   4.042   4.701  1.5996  0.7333 -2.2793
11984TIP3    H257368   2.124   4.048   4.565 -1.7713 -2.9907 -0.9928
11985TIP3   OH257369   4.610   3.339   4.925  0.1794 -0.0032 -0.1306
11985TIP3    H157370   4.538   3.361   4.866  1.1297  1.9565 -0.6399
11985TIP3    H257371   4.654   3.423   4.941  3.1735 -1.3155 -0.9126
11986TIP3   OH257372   2.317   3.347  11.345  0.3326  0.4689 -0.0895
11986TIP3    H157373   2.259   3.388  11.281  0.5798  1.3477  0.2334
11986TIP3    H257374   2.385   3.306  11.293 -0.7552 -0.8811 -0.4926
11987TIP3   OH257375   2.185   1.776   2.197  0.0535  0.0600  0.0556
11987TIP3    H157376   2.163   1.823   2.117  1.2054 -2.5971 -1.9680
11987TIP3    H257377   2.280   1.788   2.205  0.0475 -0.2817  0.6385
11988TIP3   OH257378   2.077   3.193   2.974 -0.3583  0.0322 -0.4038
11988TIP3    H157379   1.988   3.161   2.987  0.2389 -1.8984 -0.7373
11988TIP3    H257380   2.069   3.288   2.977 -2.3837 -0.1006 -0.1942
11989TIP3   OH257381   0.428   0.374  12.513  0.4264  0.1264  0.1817
11989TIP3    H157382   0.409   0.423  12.593  1.5011  2.7723 -1.0868
11989TIP3    H257383   0.518   0.398  12.490  0.9777 -2.4015 -0.6195
11990TIP3   OH257384   4.663   0.469  15.375  0.5929 -0.3512 -0.0099
11990TIP3    H157385   4.578   0.452  15.335  0.4507 -1.5409  0.7785
11990TIP3    H257386   4.691   0.552  15.335 -1.0986  0.2801  0.0166
11991TIP3   OH257387   4.576   5.613  12.623 -0.2386  0.1196  0.5312
11991TIP3    H157388   4.633   5.648  12.691 -1.8442 -0.1727  2.0963
11991TIP3    H257389   4.590   5.670  12.548  1.2990  0.6832  1.2154
11992TIP3   OH257390   0.615   1.622   3.876  0.0222 -0.0402  0.1394
11992TIP3    H157391   0.689   1.657   3.924 -0.0587 -1.2217  1.1775
11992TIP3    H257392   0.594   1.540   3.920 -0.1738 -1.0968 -1.8030
11993TIP3   OH257393   1.887   4.802   2.610 -0.0914 -0.0019  0.1394
11993TIP3    H157394   1.967   4.827   2.657  0.1998 -0.3855 -0.1418
11993TIP3    H257395   1.912   4.724   2.561 -0.5588  0.0516 -0.1888
11994TIP3   OH257396   0.042   6.083   6.226 -0.5515  0.1816 -0.1379
11994TIP3    H157397   0.090   6.080   6.309 -1.4984  0.7783  0.4626
11994TIP3    H257398   0.070   6.005   6.179  1.7437  1.0091 -0.2515
11995TIP3   OH257399   2.617   2.590  17.083  0.3234  0.2802  0.4663
11995TIP3    H157400   2.591   2.676  17.050 -1.2514  0.4923  2.1289
11995TIP3    H257401   2.658   2.608  17.167  0.8725 -0.5389  0.3854
11996TIP3   OH257402   3.258   4.314  11.575  0.1537  0.0653  0.1574
11996TIP3    H157403   3.252   4.338  11.483  1.7642 -1.0851 -0.3103
11996TIP3    H257404   3.214   4.229  11.581 -0.1823  0.2615  0.5023
11997TIP3   OH257405   2.035   4.048  14.296 -0.1498 -0.0087 -0.8750
11997TIP3    H157406   2.075   4.102  14.364  0.6038 -0.7000 -0.7599
11997TIP3    H257407   2.017   4.109  14.224  0.8328  0.3822 -0.8035
11998TIP3   OH257408   6.302   3.077   2.703  0.1180  0.3233 -0.3431
11998TIP3    H157409   6.349   3.058   2.784 -1.2216 -1.0801  0.1453
11998TIP3    H257410   6.367   3.123   2.649  0.4835  3.1389  2.2046
11999TIP3   OH257411   5.929   1.683   0.860  0.2807 -0.3675 -0.6463
11999TIP3    H157412   5.974   1.741   0.921 -2.1411 -1.3402  2.3195
11999TIP3    H257413   5.992   1.613   0.841  1.3396  0.3624  0.1165
12000TIP3   OH257414   5.526   6.282  16.501 -0.8590  0.5283  0.4525
12000TIP3    H157415   5.576   6.349  16.454  0.1811 -0.6675 -0.2109
12000TIP3    H257416   5.549   6.200  16.457 -3.6268 -0.0678 -0.0686
12001TIP3   OH257417   5.782   5.368  16.519 -0.5385 -0.0853 -0.7829
12001TIP3    H157418   5.840   5.409  16.583 -0.8510  0.9418 -1.1303
12001TIP3    H257419   5.694   5.393  16.547 -0.6283  1.4663 -2.2938
12002TIP3   OH257420   3.208   4.064   4.207  1.1123  0.6363 -0.1463
12002TIP3    H157421   3.254   4.085   4.126  1.2477  2.0626  0.2733
12002TIP3    H257422   3.218   3.970   4.216  0.0167  0.2383 -2.4331
12003TIP3   OH257423   5.613   1.493   4.458 -0.0585  0.2863 -0.3095
12003TIP3    H157424   5.619   1.468   4.366 -1.0919 -0.3759 -0.2118
12003TIP3    H257425   5.520   1.509   4.472  0.0742  0.2700  0.6536
12004TIP3   OH257426   3.102   5.170   3.970  0.8179 -0.3551 -0.0344
12004TIP3    H157427   3.173   5.216   4.015  0.3414  0.1536  0.2025
12004TIP3    H257428   3.126   5.077   3.976  0.7790 -0.2961  1.2423
12005TIP3   OH257429   2.633   4.379  13.811 -0.4851  0.0800  0.7401
12005TIP3    H157430   2.698   4.443  13.781  1.2984 -1.7448  0.5521
12005TIP3    H257431   2.665   4.350  13.896  1.9187 -4.4704 -1.3599
12006TIP3   OH257432   0.910   3.800  10.675  0.1568  0.0176 -0.3047
12006TIP3    H157433   0.980   3.865  10.666 -1.7233  1.9058 -2.6155
12006TIP3    H257434   0.909   3.778  10.768  1.2234  2.9655  0.5002
12007TIP3   OH257435   2.479   0.036   0.116 -0.2161  0.1870  0.3211
12007TIP3    H157436   2.429   0.014   0.194 -1.3718 -0.2725 -0.5300
12007TIP3    H257437   2.517   0.122   0.136 -2.2089  1.0480  0.5813
12008TIP3   OH257438   6.783   3.327   5.075 -0.6291 -0.1013  0.2456
12008TIP3    H157439   6.703   3.346   5.026  0.5861  2.1886 -1.0417
12008TIP3    H257440   6.787   3.232   5.079 -1.5305 -0.3875 -2.9918
12009TIP3   OH257441   0.162   1.396  14.875  0.3593  0.6061  0.3163
12009TIP3    H157442   0.232   1.343  14.912  0.0360  0.0703  0.1734
12009TIP3    H257443   0.182   1.400  14.781 -0.1463 -0.0869  0.1754
12010TIP3   OH257444   0.154   5.898  14.919  0.3472 -0.4396  0.1135
12010TIP3    H157445   0.219   5.833  14.894  2.0190  0.7587  1.1809
12010TIP3    H257446   0.147   5.891  15.015  1.3035  1.5627  0.3854
12011TIP3   OH257447   5.621   1.534   3.965 -0.3611  0.1219  0.2246
12011TIP3    H157448   5.594   1.593   4.035 -1.6368  0.0558 -0.1849
12011TIP3    H257449   5.541   1.488   3.939  0.6819 -2.3595  1.0118
12012TIP3   OH257450   5.183   1.095   2.814 -0.5678 -0.0873 -0.5259
12012TIP3    H157451   5.164   1.027   2.878  1.7542  0.0008  0.3572
12012TIP3    H257452   5.109   1.155   2.819 -1.4620 -1.2401  0.4758
12013TIP3   OH257453   5.724   5.897   1.950  0.4198  0.5153 -0.4020
12013TIP3    H157454   5.714   5.987   1.981 -0.8561  0.5299 -0.7933
12013TIP3    H257455   5.791   5.859   2.007  1.1702  1.7858 -0.4141
12014TIP3   OH257456   3.347   5.549   3.939 -0.5749 -0.5391 -0.3742
12014TIP3    H157457   3.424   5.598   3.969 -1.7852  1.1719  0.0694
12014TIP3    H257458   3.344   5.472   3.997 -0.4270  0.5068  1.0633
12015TIP3   OH257459   3.551   1.798  13.021 -0.0009  0.0361  0.3466
12015TIP3    H157460   3.639   1.812  12.985  0.0341 -0.3716  0.2672
12015TIP3    H257461   3.492   1.818  12.948  0.1004 -1.9655 -0.3746
12016TIP3   OH257462   2.291   6.577  14.741 -0.5127  0.2892  0.2393
12016TIP3    H157463   2.266   6.497  14.695 -1.2848  0.7550 -0.1630
12016TIP3    H257464   2.240   6.576  14.822  1.3505 -0.8810  1.4979
12017TIP3   OH257465   4.120   6.509   2.705 -0.2882 -0.1960  0.0504
12017TIP3    H157466   4.202   6.507   2.657  0.7580  1.7234  1.6417
12017TIP3    H257467   4.139   6.463   2.787 -1.1141 -0.6443  0.0018
12018TIP3   OH257468   0.540   4.335   3.172 -0.1307 -0.3147 -0.2489
12018TIP3    H157469   0.586   4.305   3.251  0.4591 -1.3633 -0.9620
12018TIP3    H257470   0.600   4.399   3.133  1.0649 -2.0575 -1.4545
12019TIP3   OH257471   4.125   6.052   4.800 -0.2377 -0.0148 -0.5088
12019TIP3    H157472   4.207   6.044   4.849 -0.3832  1.4793  0.0200
12019TIP3    H257473   4.101   5.962   4.779  0.3449 -0.6401  1.3197
12020TIP3   OH257474   3.249   5.482   1.192  0.3572  0.1473 -0.1857
12020TIP3    H157475   3.297   5.515   1.268  2.3102  1.5434 -1.8955
12020TIP3    H257476   3.280   5.537   1.119 -1.4747 -1.0698 -1.9868
12021TIP3   OH257477   5.250   2.054   5.481 -0.3000 -0.3386  0.3383
12021TIP3    H157478   5.276   1.984   5.421  1.3617  0.5586 -0.0379
12021TIP3    H257479   5.226   2.127   5.425 -0.1054  0.0475  0.7469
12022TIP3   OH257480   6.099   4.608   3.601 -0.2985  0.4075 -0.4757
12022TIP3    H157481   6.157   4.542   3.561  0.3671 -1.1163  2.6428
12022TIP3    H257482   6.011   4.573   3.588 -0.0036 -0.7588  0.4172
12023TIP3   OH257483   2.696   3.210   5.581 -0.2241  0.0734 -0.2827
12023TIP3    H157484   2.632   3.169   5.639 -1.8811 -1.1785 -2.8597
12023TIP3    H257485   2.643   3.254   5.514  1.6168  1.6004 -0.8274
12024TIP3   OH257486   1.513   4.663   2.804  0.3319  0.0411 -0.4878
12024TIP3    H157487   1.586   4.722   2.819 -0.9394  2.0262 -1.5516
12024TIP3    H257488   1.544   4.602   2.737  1.5845 -0.3707  0.4376
12025TIP3   OH257489   5.289   5.107  13.389 -0.1945  0.7550  0.0687
12025TIP3    H157490   5.265   5.161  13.314 -0.5526  0.9975  0.3499
12025TIP3    H257491   5.381   5.127  13.405  0.0907  0.1588 -0.7481
12026TIP3   OH257492   5.103   6.308  12.971  0.2064 -0.3972  0.5558
12026TIP3    H157493   5.178   6.338  13.021  0.2749  0.8947 -0.2886
12026TIP3    H257494   5.121   6.216  12.953  2.3922  0.2655 -1.0211
12027TIP3   OH257495   4.428   3.109   1.691 -0.3717  0.0617 -0.0026
12027TIP3    H157496   4.374   3.031   1.689  0.3991 -0.5599  1.5108
12027TIP3    H257497   4.517   3.076   1.701  0.2702  1.0733 -1.9996
12028TIP3   OH257498   0.640   5.428   2.094 -0.1462  0.0383 -0.1901
12028TIP3    H157499   0.651   5.493   2.024 -0.5139 -2.9133 -3.2565
12028TIP3    H257500   0.560   5.381   2.071 -0.5552 -0.8158  2.5573
12029TIP3   OH257501   4.053   5.739   4.187 -0.3569  0.0644  0.3392
12029TIP3    H157502   4.079   5.817   4.137 -1.9962  0.2513 -0.2694
12029TIP3    H257503   4.131   5.718   4.238  0.8748  0.8032 -1.1105
12030TIP3   OH257504   1.890   3.426  11.320  0.2671  0.2948  0.1826
12030TIP3    H157505   1.808   3.470  11.341 -0.6299 -0.0353 -2.3028
12030TIP3    H257506   1.951   3.497  11.298  0.3438  0.4796  0.9475
12031TIP3   OH257507   0.895   4.598   2.395 -0.5142  0.1171  0.7296
12031TIP3    H157508   0.875   4.630   2.483  0.5696  0.1210  0.9941
12031TIP3    H257509   0.855   4.512   2.392 -0.6420  0.1526  1.1997
12032TIP3   OH257510   0.048   6.126  16.782 -0.6203 -0.0479  0.7395
12032TIP3    H157511   0.104   6.200  16.761 -1.7385  0.3893 -0.9271
12032TIP3    H257512   0.107   6.050  16.780 -0.0115  0.4306 -0.6760
12033TIP3   OH257513   3.368   3.081   6.419 -0.2977  0.2680 -0.2820
12033TIP3    H157514   3.462   3.066   6.430  0.5056  3.8057 -1.1030
12033TIP3    H257515   3.360   3.127   6.336 -2.8551 -0.2543 -0.4267
12034TIP3   OH257516   3.865   0.484  17.065  0.6939  0.3987 -0.4674
12034TIP3    H157517   3.785   0.526  17.034 -0.2582 -0.7097  0.4016
12034TIP3    H257518   3.875   0.515  17.155 -0.0339 -1.1925  0.1915
12035TIP3   OH257519   3.626   3.824  12.634  0.2298 -0.0044 -0.1898
12035TIP3    H157520   3.615   3.881  12.711 -1.5894 -0.0154 -0.3822
12035TIP3    H257521   3.536   3.809  12.603  0.8735 -0.6873 -1.8258
12036TIP3   OH257522   4.976   5.489  12.647 -0.0366  0.1097  0.0541
12036TIP3    H157523   4.935   5.423  12.703  1.1922 -0.3160  0.4953
12036TIP3    H257524   5.003   5.558  12.708  1.2845 -0.3453  0.0325
12037TIP3   OH257525   4.739   1.173   3.758 -0.9919 -0.6899 -0.4861
12037TIP3    H157526   4.701   1.108   3.699 -1.8918 -1.6003  1.0440
12037TIP3    H257527   4.715   1.144   3.846  0.7110  0.3515  0.3966
12038TIP3   OH257528   3.681   3.438   2.578 -0.5063  0.7375  0.5026
12038TIP3    H157529   3.694   3.524   2.538  0.8373 -0.3320 -1.5113
12038TIP3    H257530   3.630   3.389   2.513  1.4208 -0.9502  0.1714
12039TIP3   OH257531   0.835   3.792  15.294  0.0500 -0.1736  0.4120
12039TIP3    H157532   0.803   3.771  15.206 -1.5821 -0.9257  1.1406
12039TIP3    H257533   0.791   3.874  15.317  1.0909  0.4552  0.2505
12040TIP3   OH257534   2.064   2.608   2.394 -0.4118  0.0381  0.3408
12040TIP3    H157535   1.998   2.590   2.461 -1.1311 -0.7023 -0.5387
12040TIP3    H257536   2.058   2.533   2.334  0.8844  0.2049 -0.0313
12041TIP3   OH257537   4.753   1.986  15.979 -0.2537 -0.5093 -0.2845
12041TIP3    H157538   4.828   1.929  15.993 -0.9465 -1.9713 -2.0339
12041TIP3    H257539   4.677   1.927  15.984 -1.5601  1.1941  3.3432
12042TIP3   OH257540   0.749   3.040   5.888 -0.2555 -0.0404  0.2291
12042TIP3    H157541   0.697   2.961   5.897 -1.1325  0.5646  0.5586
12042TIP3    H257542   0.762   3.072   5.977  1.2375 -0.5173  0.2140
12043TIP3   OH257543   1.807   3.400   5.394  0.3381  0.1625 -0.0251
12043TIP3    H157544   1.885   3.358   5.360 -0.2504 -0.8027 -0.2151
12043TIP3    H257545   1.815   3.394   5.489 -0.3159 -1.5288 -0.0428
12044TIP3   OH257546   5.523   0.216  13.755 -0.2901 -0.1133  0.6607
12044TIP3    H157547   5.617   0.215  13.773 -0.5720  0.6049  2.4153
12044TIP3    H257548   5.510   0.294  13.702  0.0219  0.1882  1.0178
12045TIP3   OH257549   4.678   4.694   0.329  0.0625  0.0444  0.5225
12045TIP3    H157550   4.617   4.764   0.305 -0.8947 -0.7459  0.5913
12045TIP3    H257551   4.709   4.718   0.416 -1.6783 -0.5157  1.3437
12046TIP3   OH257552   0.490   0.936  12.644 -0.5342  0.7440 -0.1620
12046TIP3    H157553   0.546   0.983  12.582  0.6957 -1.1437 -0.5746
12046TIP3    H257554   0.443   0.872  12.591  0.0075 -0.4353  0.7271
12047TIP3   OH257555   5.458   3.755  12.419  0.3648 -0.1032  0.4616
12047TIP3    H157556   5.468   3.777  12.511  2.4553  1.3261 -0.0417
12047TIP3    H257557   5.374   3.791  12.394  0.5247  0.9743  1.4212
12048TIP3   OH257558   0.668   2.134  12.660  0.0839  0.9473 -0.2189
12048TIP3    H157559   0.575   2.119  12.674  0.1646 -0.8625 -1.3379
12048TIP3    H257560   0.709   2.109  12.743 -0.4205  2.0605  0.3897
12049TIP3   OH257561   3.598   6.631   4.790 -0.1571 -0.5279 -0.1748
12049TIP3    H157562   3.630   6.543   4.771 -1.1651 -0.7134 -1.0948
12049TIP3    H257563   3.523   6.617   4.849 -0.9305 -0.3788 -1.0908
12050TIP3   OH257564   1.561   3.796  15.495  0.0683 -0.1151 -0.1477
12050TIP3    H157565   1.634   3.796  15.558  0.5383 -1.0511 -0.6751
12050TIP3    H257566   1.567   3.712  15.451 -2.1060 -0.7587  0.6481
12051TIP3   OH257567   5.072   6.040   0.756 -0.3504 -0.3451  0.4031
12051TIP3    H157568   5.074   6.119   0.702  3.8647 -1.4442 -1.4863
12051TIP3    H257569   5.004   5.986   0.715 -2.9595  1.9325  1.4348
12052TIP3   OH257570   2.284   4.572   4.652  0.0563  0.5339  0.3213
12052TIP3    H157571   2.283   4.477   4.666 -0.5708  0.5866  0.7129
12052TIP3    H257572   2.278   4.583   4.557 -0.1978  0.1790  0.2951
12053TIP3   OH257573   0.209   3.596   1.665 -0.1006 -0.8223  0.6696
12053TIP3    H157574   0.151   3.668   1.692 -0.1498 -0.6709  0.1641
12053TIP3    H257575   0.297   3.630   1.681  0.0611  0.6970 -2.6518
12054TIP3   OH257576   6.600   1.935   5.681 -0.1004  0.2289 -0.2066
12054TIP3    H157577   6.516   1.896   5.654  0.4383 -1.1188 -0.0473
12054TIP3    H257578   6.604   1.918   5.775  0.1054  0.7850 -0.1172
12055TIP3   OH257579   3.412   5.971  13.006  0.1568  0.5198  0.1319
12055TIP3    H157580   3.394   5.877  13.003 -0.6904  0.6573  0.6006
12055TIP3    H257581   3.353   6.009  12.941 -0.6976  0.8888  1.0945
12056TIP3   OH257582   4.981   0.048   1.539  0.5291 -0.5051 -0.0257
12056TIP3    H157583   4.968  -0.041   1.508  0.9247 -0.6461  0.1983
12056TIP3    H257584   4.896   0.091   1.529  1.0415  0.0520 -3.1893
12057TIP3   OH257585   6.188   2.179  12.920 -0.7288 -0.1847 -0.2065
12057TIP3    H157586   6.264   2.123  12.940 -0.0843  0.3996 -0.9744
12057TIP3    H257587   6.216   2.267  12.945 -1.4721 -0.0821  0.2959
12058TIP3   OH257588   1.836   2.176   3.803 -0.2395 -0.2650  0.1134
12058TIP3    H157589   1.805   2.192   3.892 -0.3854  0.2647 -0.0303
12058TIP3    H257590   1.793   2.094   3.777  0.1476 -0.6558  0.6857
12059TIP3   OH257591   3.155   5.634  16.143  0.0170 -0.1986  0.3662
12059TIP3    H157592   3.193   5.661  16.059  2.0137  1.2879  1.6616
12059TIP3    H257593   3.170   5.709  16.201 -0.7101 -1.4440  2.2394
12060TIP3   OH257594   5.892   4.613  13.958 -0.1654  0.0016 -0.0988
12060TIP3    H157595   5.945   4.534  13.950 -1.9174 -1.1492 -1.3261
12060TIP3    H257596   5.928   4.673  13.893  2.1199  0.8839  1.8537
12061TIP3   OH257597   2.940   2.351  16.439  0.7543 -0.4935  0.3621
12061TIP3    H157598   2.988   2.273  16.465 -0.3294 -1.0466  0.7475
12061TIP3    H257599   2.978   2.421  16.492  0.7080 -1.0388  1.1232
12062TIP3   OH257600   5.461   1.699   4.803 -0.1812 -0.2740  0.6316
12062TIP3    H157601   5.493   1.704   4.893  1.3644 -0.7380  0.1360
12062TIP3    H257602   5.540   1.701   4.749 -1.1150  1.4018 -0.7969
12063TIP3   OH257603   3.811   0.315   3.305  0.6291 -0.8861 -0.0270
12063TIP3    H157604   3.756   0.366   3.245 -0.5869 -0.6121  1.2571
12063TIP3    H257605   3.865   0.380   3.350 -0.8247 -0.6483  1.5109
12064TIP3   OH257606   1.843   3.756   0.485  0.3998 -0.1993 -0.6982
12064TIP3    H157607   1.789   3.742   0.563  1.1587  0.4551 -0.0407
12064TIP3    H257608   1.820   3.845   0.457 -1.5334 -1.1934 -2.5765
12065TIP3   OH257609   2.589   0.751   5.905 -0.0862 -0.7369  0.0435
12065TIP3    H157610   2.671   0.788   5.938  0.2060 -0.5382 -0.8697
12065TIP3    H257611   2.541   0.827   5.870 -1.3074 -0.6289  1.8457
12066TIP3   OH257612   1.455   2.040   1.327  0.1169  0.5731  0.3809
12066TIP3    H157613   1.506   2.061   1.248  0.6225  0.6861  0.7341
12066TIP3    H257614   1.364   2.045   1.298  0.2916  0.8552 -0.1400
12067TIP3   OH257615   3.639   4.095  14.866  0.0961  0.0163  0.4456
12067TIP3    H157616   3.726   4.069  14.835 -0.5019  0.2672 -1.6155
12067TIP3    H257617   3.630   4.187  14.840 -0.8595 -0.0717  0.4012
12068TIP3   OH257618   5.795   5.009  14.782 -0.0427  0.5003 -0.0898
12068TIP3    H157619   5.766   5.034  14.694  1.2833  2.1847 -0.1031
12068TIP3    H257620   5.715   4.981  14.827 -1.1394  1.8220 -1.1313
12069TIP3   OH257621   2.020   0.898  13.119  0.5613  0.3137  0.2349
12069TIP3    H157622   1.933   0.909  13.158  0.6954  1.6613  0.2135
12069TIP3    H257623   2.046   0.809  13.142 -1.0766 -0.3377 -0.2711
12070TIP3   OH257624   1.893   1.658   5.779  0.3860 -0.5332 -0.0064
12070TIP3    H157625   1.838   1.718   5.729  0.4085 -0.2581  0.2984
12070TIP3    H257626   1.912   1.704   5.860 -0.0688 -1.1770  0.4805
12071TIP3   OH257627   3.765   3.933  15.773  0.1170 -0.2948  0.1448
12071TIP3    H157628   3.768   4.014  15.723  0.0038 -0.1633  0.3497
12071TIP3    H257629   3.852   3.926  15.812  0.0392 -0.1312  0.3480
12072TIP3   OH257630   6.489   4.695  12.113  0.2610 -0.7251 -0.1665
12072TIP3    H157631   6.492   4.659  12.024  0.0147 -0.9506 -0.0822
12072TIP3    H257632   6.501   4.620  12.170  2.1428 -0.3766 -0.0286
12073TIP3   OH257633   1.065   1.486  14.147  0.6188 -0.8060 -0.2106
12073TIP3    H157634   1.034   1.561  14.096  1.2452 -1.4845 -1.6595
12073TIP3    H257635   1.055   1.512  14.238 -3.2779 -0.6049 -0.5453
12074TIP3   OH257636   6.717   0.946   4.287  0.0263  0.1373 -0.5235
12074TIP3    H157637   6.725   0.859   4.326 -0.5065  0.4160  0.2357
12074TIP3    H257638   6.713   1.005   4.362 -0.3220  0.7546 -1.0197
12075TIP3   OH257639   1.446   3.691   4.555 -0.2296 -0.0366  0.1109
12075TIP3    H157640   1.391   3.633   4.609 -0.3501 -0.0461 -0.0201
12075TIP3    H257641   1.425   3.667   4.465  2.1993 -2.1455  0.0073
12076TIP3   OH257642   1.159   4.577  14.827  0.3756 -0.2541  0.1561
12076TIP3    H157643   1.117   4.500  14.866 -0.1731 -0.1924 -0.2928
12076TIP3    H257644   1.208   4.617  14.899  1.0027 -1.2503  0.2861
12077TIP3   OH257645   3.706   6.412   3.063 -0.1422  0.4848  0.1244
12077TIP3    H157646   3.702   6.421   2.968  1.0463  0.1447  0.0272
12077TIP3    H257647   3.758   6.333   3.078 -0.3890  0.4827  1.0558
12078TIP3   OH257648   5.005   5.236  13.795  0.0485 -0.0277 -0.0122
12078TIP3    H157649   5.078   5.222  13.854  0.2641 -0.3434 -0.3545
12078TIP3    H257650   5.006   5.161  13.736 -0.2626  0.2028 -0.3175
12079TIP3   OH257651   5.527   6.776   0.661 -0.0796 -0.1894  0.5338
12079TIP3    H157652   5.445   6.755   0.614  0.1729  0.3737 -0.1784
12079TIP3    H257653   5.552   6.693   0.702  0.2200 -1.0020 -1.1753
12080TIP3   OH257654   0.721   2.865   3.665  0.1262 -0.3891 -0.0347
12080TIP3    H157655   0.739   2.957   3.685  0.5877 -0.0870 -1.6506
12080TIP3    H257656   0.656   2.869   3.595 -0.7000 -1.3326  0.6644
12081TIP3   OH257657   4.303   4.090   0.432 -0.0550 -0.1919 -0.0929
12081TIP3    H157658   4.351   4.130   0.505 -0.9775  0.0505  0.4007
12081TIP3    H257659   4.371   4.053   0.376  0.8721  2.0941 -0.5954
12082TIP3   OH257660   2.321   2.631   5.597  0.5350 -0.0774 -0.6472
12082TIP3    H157661   2.291   2.690   5.528  2.0696 -0.8044 -2.0011
12082TIP3    H257662   2.397   2.586   5.559  0.3704 -1.7820  0.8909
12083TIP3   OH257663   0.431   3.441  17.149 -0.2193 -0.2120 -0.0697
12083TIP3    H157664   0.457   3.442  17.057  0.2844 -0.2395  0.0680
12083TIP3    H257665   0.358   3.503  17.154 -0.8099 -0.8316 -0.6438
12084TIP3   OH257666   0.123   3.836   1.007 -0.9185 -0.0855  0.4985
12084TIP3    H157667   0.080   3.920   0.994  1.2743  1.2736  1.4658
12084TIP3    H257668   0.136   3.802   0.918  0.6395  1.9665 -0.1263
12085TIP3   OH257669   5.374   4.915   5.582  0.2447 -0.1874 -0.2255
12085TIP3    H157670   5.350   4.989   5.638 -2.7367  0.2829 -1.9017
12085TIP3    H257671   5.374   4.840   5.641  1.8827  0.8547  1.2243
12086TIP3   OH257672   3.432   3.031   4.999  0.0302 -0.5407  0.0436
12086TIP3    H157673   3.350   2.983   5.012  0.3236 -0.9227  0.5210
12086TIP3    H257674   3.497   2.981   5.048  0.9532 -1.3502 -1.9046
12087TIP3   OH257675   6.491   2.625   3.301  0.6837 -0.9037 -0.0075
12087TIP3    H157676   6.448   2.629   3.215 -1.3039 -2.1685  0.8470
12087TIP3    H257677   6.504   2.531   3.316 -1.7455 -0.9976  2.2666
12088TIP3   OH257678   0.713   2.007   3.375 -0.7128  0.4764  0.4080
12088TIP3    H157679   0.790   1.993   3.429 -1.9029 -0.5613  1.9321
12088TIP3    H257680   0.652   2.054   3.432 -0.8747  2.2548 -1.1035
12089TIP3   OH257681   1.469   3.168  17.077  0.8288  0.0062  0.3304
12089TIP3    H157682   1.435   3.097  17.132 -1.0404  0.6263  0.0487
12089TIP3    H257683   1.526   3.218  17.136  0.5683 -0.5659  1.0894
12090TIP3   OH257684   3.661   3.386  11.172 -0.2164 -0.3193 -0.6813
12090TIP3    H157685   3.614   3.306  11.149 -2.7735  0.6739  0.6702
12090TIP3    H257686   3.599   3.456  11.153  1.3224  1.2268 -0.2358
12091TIP3   OH257687   2.143   3.391  13.213 -0.3310  0.1980 -0.2843
12091TIP3    H157688   2.180   3.477  13.195 -0.3753  0.6577  1.5874
12091TIP3    H257689   2.062   3.409  13.261 -0.0329 -0.8716  0.6681
12092TIP3   OH257690   2.409   5.463   0.315  0.5530 -0.1478  0.0209
12092TIP3    H157691   2.388   5.407   0.240  1.1276 -1.2381  0.6524
12092TIP3    H257692   2.324   5.495   0.344  0.2281 -0.5133 -0.4943
12093TIP3   OH257693   1.287   3.568  15.584 -0.0326  0.3326  0.1071
12093TIP3    H157694   1.221   3.635  15.565  0.5874  1.3843  1.4719
12093TIP3    H257695   1.369   3.617  15.590  0.2005 -0.1994  2.8311
12094TIP3   OH257696   3.017   5.865  15.500  0.1823 -0.2473  0.0167
12094TIP3    H157697   3.038   5.799  15.566  2.2518 -0.5930 -0.9041
12094TIP3    H257698   2.964   5.818  15.436  0.7642 -0.7634 -0.1021
12095TIP3   OH257699   5.875   2.529  13.094  0.1214 -0.2347  0.7390
12095TIP3    H157700   5.823   2.455  13.063 -0.6558  0.9118 -0.8432
12095TIP3    H257701   5.814   2.583  13.145  0.3546 -0.0625  0.8405
12096TIP3   OH257702   4.735   6.418  15.508  0.6387  0.0843  0.0991
12096TIP3    H157703   4.698   6.412  15.596  1.5572  0.5989  0.5353
12096TIP3    H257704   4.684   6.356  15.456 -0.5980  0.5354  0.7520
12097TIP3   OH257705   1.294   4.719   3.337  0.4402 -0.4500 -0.3303
12097TIP3    H157706   1.339   4.803   3.343  0.4003 -0.3810 -0.9942
12097TIP3    H257707   1.350   4.658   3.385  0.6337 -0.1128 -0.1298
12098TIP3   OH257708   4.369   4.822   3.628 -0.2845 -0.2571  0.5550
12098TIP3    H157709   4.351   4.913   3.603 -0.7988 -0.9922 -2.0230
12098TIP3    H257710   4.464   4.813   3.617 -0.2332 -0.0433  0.8062
12099TIP3   OH257711   5.040   1.657  12.813  0.8356 -0.3662  0.5849
12099TIP3    H157712   5.041   1.753  12.817  0.3240 -0.2972 -0.5507
12099TIP3    H257713   4.948   1.634  12.818  0.6125 -0.5718 -2.4934
12100TIP3   OH257714   3.283   6.311  16.495  0.4799  0.3055 -0.4560
12100TIP3    H157715   3.335   6.239  16.531 -1.7993 -0.8171  0.8068
12100TIP3    H257716   3.284   6.378  16.563 -0.0847  0.0864 -0.2271
12101TIP3   OH257717   6.479   5.831   1.466  0.6944  0.2152  0.5103
12101TIP3    H157718   6.492   5.886   1.389  4.0205 -0.8391  0.1579
12101TIP3    H257719   6.396   5.860   1.503 -0.4612  1.5445 -2.7925
12102TIP3   OH257720   3.752   3.197  13.487  0.0560 -0.5187  0.3068
12102TIP3    H157721   3.747   3.190  13.391 -0.6049 -0.4461  0.3324
12102TIP3    H257722   3.817   3.266  13.502  1.1510 -1.4476 -0.0581
12103TIP3   OH257723   5.915   1.567  15.109 -0.3630 -0.6224 -0.0746
12103TIP3    H157724   5.885   1.633  15.048 -2.5363 -1.3286  0.1580
12103TIP3    H257725   5.949   1.496  15.053 -0.7741 -0.5538 -0.4131
12104TIP3   OH257726   2.469   2.876   0.591 -0.1082 -0.5747  0.0519
12104TIP3    H157727   2.393   2.847   0.541 -0.9495  0.1924  0.8262
12104TIP3    H257728   2.474   2.970   0.574  0.7450 -0.6373 -0.0795
12105TIP3   OH257729   5.511   6.351   2.925 -0.2784 -1.0860 -0.3875
12105TIP3    H157730   5.590   6.315   2.965 -0.2775  0.9722  1.7238
12105TIP3    H257731   5.542   6.400   2.849  1.1505  2.4457  2.1824
12106TIP3   OH257732   3.301   0.819   4.938  0.1170  0.2666  0.3206
12106TIP3    H157733   3.223   0.771   4.911 -0.6152  1.6564 -0.1582
12106TIP3    H257734   3.350   0.833   4.857  1.0380 -0.8703  0.6666
12107TIP3   OH257735   1.163   2.747   3.709 -0.3311  0.3678  0.2568
12107TIP3    H157736   1.226   2.791   3.652 -0.1909  1.4355  1.1877
12107TIP3    H257737   1.093   2.719   3.651 -0.6416  2.2379 -0.3464
12108TIP3   OH257738   5.040   4.886  14.017  0.1486  0.5410  0.1970
12108TIP3    H157739   5.101   4.951  14.051 -0.2876  0.2279  1.6395
12108TIP3    H257740   4.965   4.891  14.075 -0.4407 -0.3493 -0.4619
12109TIP3   OH257741   2.544   0.170  12.430 -0.1467  0.2022 -0.6599
12109TIP3    H157742   2.526   0.076  12.425 -1.7632  0.4019  0.6323
12109TIP3    H257743   2.619   0.183  12.372  1.1800 -2.1421  0.3605
12110TIP3   OH257744   0.677   4.703   6.620  0.1541  0.1774  0.1647
12110TIP3    H157745   0.590   4.733   6.595 -0.5227 -2.2294 -0.7084
12110TIP3    H257746   0.730   4.717   6.542  0.7737  2.1736  0.8775
12111TIP3   OH257747   3.715   0.849  11.431  0.1795  0.0151 -0.1464
12111TIP3    H157748   3.759   0.772  11.396 -0.1090  0.0347 -0.5655
12111TIP3    H257749   3.637   0.814  11.474  1.0947 -0.1237  1.4961
12112TIP3   OH257750   0.575   2.040  10.404  0.3661 -0.7135 -0.0887
12112TIP3    H157751   0.625   1.959  10.415 -0.4206 -1.2986 -0.7233
12112TIP3    H257752   0.621   2.087  10.335 -0.8415 -1.9888 -1.8186
12113TIP3   OH257753   1.721   6.297   0.467  0.1216  0.3088  0.1985
12113TIP3    H157754   1.691   6.355   0.537 -1.5034  0.7981 -0.8493
12113TIP3    H257755   1.659   6.225   0.467 -1.5047  1.5709 -2.3303
12114TIP3   OH257756   2.471   1.211  14.719 -0.4229 -0.2400 -0.3883
12114TIP3    H157757   2.472   1.117  14.703 -2.2834 -0.4118  0.1762
12114TIP3    H257758   2.550   1.229  14.769 -0.7013 -1.7371  0.6334
12115TIP3   OH257759   3.601   4.065   4.107  0.7039 -0.2307 -0.2745
12115TIP3    H157760   3.621   4.126   4.178 -2.1127  0.7438 -0.1717
12115TIP3    H257761   3.673   4.075   4.045  2.3627  0.1593  1.6162
12116TIP3   OH257762   4.549   5.967  11.318 -0.2564  0.1133  0.4661
12116TIP3    H157763   4.552   6.034  11.250 -0.4959 -1.0226 -0.7065
12116TIP3    H257764   4.551   6.016  11.400  0.9114  1.4855 -0.3329
12117TIP3   OH257765   2.305   5.173  16.804 -0.6775 -0.1593 -0.0947
12117TIP3    H157766   2.327   5.263  16.828 -1.5158  0.6549 -2.1875
12117TIP3    H257767   2.313   5.170  16.709  0.1822 -2.5650 -0.0157
12118TIP3   OH257768   6.656   4.587  11.795 -0.1768  0.0373 -0.2855
12118TIP3    H157769   6.742   4.599  11.835 -0.2950 -1.2230  0.4162
12118TIP3    H257770   6.618   4.512  11.842 -2.1651  1.2984  0.2593
12119TIP3   OH257771   4.473   1.845   0.237  0.2217 -0.2780 -0.0534
12119TIP3    H157772   4.541   1.854   0.304  0.1350  0.6203 -0.0822
12119TIP3    H257773   4.402   1.797   0.280 -0.5864  1.8218  1.0673
12120TIP3   OH257774   1.952   1.835   3.779  0.2629 -0.0148 -0.2740
12120TIP3    H157775   1.972   1.743   3.763 -1.8896 -0.6210  0.1780
12120TIP3    H257776   1.866   1.847   3.740 -1.3953  0.6704  3.2236
12121TIP3   OH257777   1.590   3.882  13.205 -0.7322 -0.0991 -0.1283
12121TIP3    H157778   1.680   3.914  13.198 -0.6295 -0.5204 -0.8257
12121TIP3    H257779   1.537   3.962  13.212 -0.2417  0.1250  1.2462
12122TIP3   OH257780   2.708   5.632  16.892  0.0714  0.2730 -0.2327
12122TIP3    H157781   2.692   5.726  16.885 -0.8597  0.2879  1.5271
12122TIP3    H257782   2.803   5.625  16.897  0.3760  0.8159 -3.5207
12123TIP3   OH257783   0.821   6.556   1.116 -0.3699  0.4378 -0.3386
12123TIP3    H157784   0.827   6.650   1.134  0.0621  0.6133 -1.3434
12123TIP3    H257785   0.757   6.549   1.045  0.3073  0.0724 -0.9286
12124TIP3   OH257786   5.391   4.914   4.473  0.8558 -0.6773 -0.4914
12124TIP3    H157787   5.341   4.866   4.407 -0.1325  2.3018 -2.1439
12124TIP3    H257788   5.460   4.958   4.423  1.3526  0.0611  0.7842
12125TIP3   OH257789   2.149   5.206   0.591  0.1930  0.4441 -0.1244
12125TIP3    H157790   2.090   5.253   0.533  0.6019  0.2848 -0.6852
12125TIP3    H257791   2.236   5.223   0.555  0.5599  1.2011  1.0558
12126TIP3   OH257792   0.253   5.486   2.590  0.5192 -0.7177 -0.6872
12126TIP3    H157793   0.164   5.478   2.555  0.1697 -0.7427  0.1884
12126TIP3    H257794   0.297   5.545   2.528 -0.0816 -0.7620 -1.1713
12127TIP3   OH257795   1.789   0.158  16.342  0.2314  0.1542 -0.0655
12127TIP3    H157796   1.836   0.121  16.416 -0.8824 -0.1290  0.5192
12127TIP3    H257797   1.772   0.249  16.366  0.3380  0.2080 -0.1966
12128TIP3   OH257798   0.361   1.643  16.424  0.0451 -0.4899 -0.1539
12128TIP3    H157799   0.386   1.583  16.493  1.6904 -1.7181 -1.7158
12128TIP3    H257800   0.439   1.697  16.410 -1.2187  1.7328  0.8555
12129TIP3   OH257801   2.125   3.881  16.120 -0.3417 -0.1673 -0.1760
12129TIP3    H157802   2.034   3.904  16.139 -0.9148  1.5878 -4.0888
12129TIP3    H257803   2.166   3.964  16.098  1.0603 -1.3579 -2.3814
12130TIP3   OH257804   1.986   6.680  16.096 -0.0514  0.4184 -0.6171
12130TIP3    H157805   2.059   6.660  16.037 -0.5015 -1.0647 -0.7093
12130TIP3    H257806   2.027   6.726  16.170  1.0474 -0.7276 -0.4792
12131TIP3   OH257807   0.163   2.242   4.387 -0.2797  0.6312 -0.2098
12131TIP3    H157808   0.172   2.259   4.481 -1.9261  0.6790 -0.0318
12131TIP3    H257809   0.131   2.152   4.382 -2.9420  1.4843 -0.5132
12132TIP3   OH257810   1.973   1.804   5.427  0.0171  0.2599  0.2196
12132TIP3    H157811   2.019   1.805   5.344 -0.9209 -1.9373 -0.4066
12132TIP3    H257812   2.009   1.729   5.474 -1.2955 -0.1429  0.6416
12133TIP3   OH257813   5.519   3.832  14.016  0.7659  0.2833  0.4562
12133TIP3    H157814   5.542   3.789  13.934  1.6676 -0.0390  0.8701
12133TIP3    H257815   5.600   3.833  14.067  0.5404  1.6586  0.8259
12134TIP3   OH257816   3.129   6.203  14.375  0.5489 -0.0000 -0.2659
12134TIP3    H157817   3.154   6.225  14.464 -2.6596  0.0746  0.7607
12134TIP3    H257818   3.121   6.108  14.374 -1.3353  0.1002  0.2226
12135TIP3   OH257819   2.392   1.639  15.024 -0.2534 -0.0347 -0.3776
12135TIP3    H157820   2.426   1.600  14.943  0.0243 -0.8392  0.1193
12135TIP3    H257821   2.469   1.678  15.066 -0.2260 -0.4224 -0.0589
12136TIP3   OH257822   6.654   1.917  14.781  0.1824 -0.3410  0.0218
12136TIP3    H157823   6.616   2.004  14.766 -0.1402 -0.7093 -1.5493
12136TIP3    H257824   6.582   1.865  14.816 -0.1796 -0.4548 -0.8563
12137TIP3   OH257825   0.124   4.449  16.151  0.4776  0.0867 -0.8048
12137TIP3    H157826   0.197   4.507  16.126 -0.1093  0.6098 -1.3728
12137TIP3    H257827   0.095   4.482  16.236  1.3764 -0.5964 -0.2248
12138TIP3   OH257828   0.392   0.307  14.493 -0.3870  0.0776  0.0715
12138TIP3    H157829   0.448   0.297  14.416  0.0380  0.6308  0.3061
12138TIP3    H257830   0.355   0.219  14.506  1.5772 -0.6889  0.7863
12139TIP3   OH257831   1.125   5.865   2.458 -0.2957  0.1510 -0.2807
12139TIP3    H157832   1.107   5.948   2.413  0.7892 -0.5912 -2.1806
12139TIP3    H257833   1.196   5.886   2.519  0.8689  0.3673 -1.6751
12140TIP3   OH257834   4.129   5.751   1.206  0.6007 -0.5714  0.0801
12140TIP3    H157835   4.224   5.761   1.217  0.5663  2.7042 -1.4259
12140TIP3    H257836   4.092   5.827   1.251 -1.4664 -2.2206  1.3660
12141TIP3   OH257837   3.469   5.497  15.610  0.6692  0.2263  0.1745
12141TIP3    H157838   3.515   5.563  15.662  2.2738 -0.6708 -0.0481
12141TIP3    H257839   3.378   5.529  15.606  0.6511  0.7373  2.8050
12142TIP3   OH257840   5.032   1.551   0.103 -0.0010  0.3147  0.1179
12142TIP3    H157841   5.019   1.461   0.070 -1.5533  0.4015  0.4227
12142TIP3    H257842   4.943   1.587   0.109  0.3390  0.8857  2.7861
12143TIP3   OH257843   6.479   2.076  12.116  0.1894  0.2456  0.0415
12143TIP3    H157844   6.478   2.155  12.061 -0.6478  0.0128 -0.3016
12143TIP3    H257845   6.388   2.046  12.116  0.6907 -1.3670 -0.7575
12144TIP3   OH257846   1.769   3.163  14.918 -0.0249  0.8289  0.4278
12144TIP3    H157847   1.793   3.246  14.877  0.3572  1.6419  2.2070
12144TIP3    H257848   1.752   3.104  14.844  2.7031  1.5699 -0.9099
12145TIP3   OH257849   4.910   1.539  13.186  0.0212  0.4448  0.0824
12145TIP3    H157850   4.955   1.457  13.165 -2.0083 -2.3610  5.0052
12145TIP3    H257851   4.974   1.589  13.237  0.5064  0.9971 -1.0168
12146TIP3   OH257852   3.688   3.788  15.546 -0.1578 -0.1640 -0.3152
12146TIP3    H157853   3.737   3.809  15.466 -0.6151 -2.3829 -1.2507
12146TIP3    H257854   3.743   3.818  15.617  0.9317  0.5684 -1.4323
12147TIP3   OH257855   4.541   6.158   0.210 -0.8721 -0.0236 -0.3345
12147TIP3    H157856   4.612   6.205   0.167  0.9293 -2.6708 -0.5452
12147TIP3    H257857   4.515   6.214   0.282  0.2935  1.7730 -1.2404
12148TIP3   OH257858   4.929   2.355  13.064 -0.1955  0.1474 -0.2787
12148TIP3    H157859   4.986   2.415  13.015  1.7325 -0.1474  1.4390
12148TIP3    H257860   4.916   2.280  13.006  2.7321 -0.5896 -0.1514
12149TIP3   OH257861   2.205   2.135  16.911  0.3714  0.3926 -0.5008
12149TIP3    H157862   2.223   2.217  16.956  0.4203  0.2282 -0.2109
12149TIP3    H257863   2.110   2.136  16.896  0.1653 -0.0318  0.6019
12150TIP3   OH257864   3.748   4.719  11.716 -0.2367 -0.4289  0.4689
12150TIP3    H157865   3.770   4.798  11.767 -1.2585 -0.2702  0.6822
12150TIP3    H257866   3.755   4.647  11.779 -1.5529 -0.2261  0.8696
12151TIP3   OH257867   2.073   0.610   1.313 -0.6534 -0.4761  0.2176
12151TIP3    H157868   2.161   0.581   1.289 -0.4333  0.1415  0.2804
12151TIP3    H257869   2.054   0.563   1.394 -0.5135 -0.8598  0.0314
12152TIP3   OH257870   4.999   5.310   2.562  0.7088  0.0798  0.0874
12152TIP3    H157871   4.998   5.215   2.546  1.5276  0.3681 -1.8696
12152TIP3    H257872   5.077   5.324   2.616  1.4349 -0.2145 -0.8519
12153TIP3   OH257873   2.348   2.828  11.925 -0.6936  0.1654  0.0186
12153TIP3    H157874   2.417   2.894  11.930  0.5771 -1.0334 -1.0707
12153TIP3    H257875   2.332   2.804  12.017 -1.1309  1.8723  0.4322
12154TIP3   OH257876   3.652   5.469   5.148  0.1925 -0.2278  0.1763
12154TIP3    H157877   3.646   5.376   5.171  0.5105 -0.0576  0.9505
12154TIP3    H257878   3.665   5.514   5.231 -0.8520  0.5996 -0.0870
12155TIP3   OH257879   4.312   2.522  11.976  0.4011 -0.2767  0.3584
12155TIP3    H157880   4.381   2.587  11.968 -0.6285  0.7895 -0.1197
12155TIP3    H257881   4.230   2.572  11.972 -0.4136 -1.5475  0.4092
12156TIP3   OH257882   2.142   2.502  14.560 -0.1906 -0.4735 -0.2271
12156TIP3    H157883   2.087   2.472  14.488  0.2571 -0.7597 -0.4472
12156TIP3    H257884   2.137   2.598  14.555  0.9871 -0.4511 -1.5354
12157TIP3   OH257885   6.236   4.332  11.451 -0.1840  0.5092  0.1685
12157TIP3    H157886   6.305   4.397  11.462 -1.6493  2.4061 -1.0990
12157TIP3    H257887   6.268   4.274  11.382  0.1137  1.4168 -0.4699
12158TIP3   OH257888   3.263   5.561  11.482 -0.3020  0.0737 -0.0718
12158TIP3    H157889   3.335   5.606  11.439  1.7395 -1.3092  1.7232
12158TIP3    H257890   3.305   5.502  11.545 -2.9108 -2.4338 -0.4906
12159TIP3   OH257891   5.567   0.138   3.230  0.2398  0.3331  0.3823
12159TIP3    H157892   5.588   0.079   3.303 -0.0963  1.6232  1.5619
12159TIP3    H257893   5.586   0.225   3.264 -0.1532  0.9872 -1.0174
12160TIP3   OH257894   0.207   1.923   0.401 -0.2476 -0.6767  0.1633
12160TIP3    H157895   0.130   1.926   0.458 -0.2638 -0.9031  0.1522
12160TIP3    H257896   0.172   1.930   0.312 -0.2750 -1.0104  0.1454
12161TIP3   OH257897   5.374   4.626   1.046  0.0288  0.3909 -0.2957
12161TIP3    H157898   5.407   4.707   1.008  1.2430  0.9631  1.8466
12161TIP3    H257899   5.451   4.571   1.056 -0.4486 -0.1923  0.2276
12162TIP3   OH257900   5.293   2.730  15.739  0.2507 -0.0397 -0.1124
12162TIP3    H157901   5.303   2.636  15.730 -0.5659 -0.1711  0.2674
12162TIP3    H257902   5.301   2.746  15.833  2.2347  0.5110 -0.3328
12163TIP3   OH257903   0.758   1.445   0.145  0.4781  0.3576  0.0283
12163TIP3    H157904   0.842   1.438   0.190  0.4442  1.5025  0.2954
12163TIP3    H257905   0.739   1.355   0.116  0.0036 -0.6938  3.1615
12164TIP3   OH257906   0.848   0.394  13.600  0.2374 -0.1815  0.8293
12164TIP3    H157907   0.926   0.447  13.621 -0.3376  1.0983 -0.0977
12164TIP3    H257908   0.866   0.309  13.639  1.4126  0.5562  2.0076
12165TIP3   OH257909   0.291   3.367   3.451  0.1331 -0.2219 -0.0073
12165TIP3    H157910   0.360   3.350   3.515 -0.7095 -2.6454  0.3615
12165TIP3    H257911   0.302   3.299   3.384 -1.5564 -0.3514 -0.1968
12166TIP3   OH257912   3.312   2.788  10.704 -0.0131 -0.1792 -0.2978
12166TIP3    H157913   3.397   2.818  10.736  0.2782 -0.8063 -0.4780
12166TIP3    H257914   3.332   2.729  10.632 -0.4323 -2.6961  1.5028
12167TIP3   OH257915   5.257   3.303   5.071  0.3061  0.4878 -0.0562
12167TIP3    H157916   5.200   3.246   5.018 -1.2799 -1.1067  3.1192
12167TIP3    H257917   5.346   3.275   5.048 -0.3918 -2.1008  0.0533
12168TIP3   OH257918   3.241   5.372  13.888 -0.5524  0.7197 -0.0705
12168TIP3    H157919   3.195   5.387  13.805  0.1722  0.1688 -0.5898
12168TIP3    H257920   3.282   5.286  13.877  3.6544  2.6096 -1.1156
12169TIP3   OH257921   1.558   2.539  11.411 -0.6183  0.2150 -0.5435
12169TIP3    H157922   1.604   2.575  11.335 -2.1089  0.1114 -1.5391
12169TIP3    H257923   1.623   2.484  11.455  0.5592  1.0700 -1.1654
12170TIP3   OH257924   3.766   0.423   4.522  0.1753 -0.2008 -0.5651
12170TIP3    H157925   3.721   0.494   4.569  0.5368  1.5014 -2.6207
12170TIP3    H257926   3.849   0.413   4.568 -1.4230 -2.1365  2.1762
12171TIP3   OH257927   5.740   1.602  13.949 -0.0985  0.0866 -0.5042
12171TIP3    H157928   5.737   1.675  14.011  0.3350 -1.3235  1.2771
12171TIP3    H257929   5.796   1.536  13.992 -0.0913 -1.1164 -2.2408
12172TIP3   OH257930   6.320   5.160  14.291 -0.3186 -0.3153  0.9956
12172TIP3    H157931   6.408   5.172  14.326 -0.3202  0.1020  0.8524
12172TIP3    H257932   6.262   5.196  14.358 -0.4224 -1.1658  1.3821
12173TIP3   OH257933   5.144   0.448   2.300 -0.1934  0.3306  0.4497
12173TIP3    H157934   5.189   0.523   2.261  0.1340 -0.8877 -1.6815
12173TIP3    H257935   5.206   0.415   2.365  0.4552  0.8323  0.0992
12174TIP3   OH257936   0.319   0.304  16.324 -0.2489  0.4883 -0.6830
12174TIP3    H157937   0.234   0.267  16.347 -0.3706  1.5037  0.5798
12174TIP3    H257938   0.336   0.369  16.391  0.6351  1.6831 -2.0102
12175TIP3   OH257939   3.666   6.076   2.498 -0.5062  0.0613  0.6350
12175TIP3    H157940   3.671   6.130   2.420  1.2143 -2.0500 -0.8591
12175TIP3    H257941   3.602   6.008   2.477 -0.0558 -0.5037  1.0445
12176TIP3   OH257942   3.907   5.177   3.445 -0.2268 -0.2524 -0.0585
12176TIP3    H157943   3.986   5.187   3.392  0.5897 -2.6328  0.5916
12176TIP3    H257944   3.845   5.131   3.387  0.1935 -1.6567  0.5804
12177TIP3   OH257945   4.394   5.758   0.134 -0.1344 -0.4095 -0.1191
12177TIP3    H157946   4.418   5.787   0.046  2.8634  1.0289  1.0608
12177TIP3    H257947   4.335   5.683   0.119 -0.4503  0.3315 -3.2905
12178TIP3   OH257948   0.941   2.559  15.608 -0.1159 -0.2538  0.0899
12178TIP3    H157949   0.992   2.567  15.689 -1.8533  1.7130  1.0900
12178TIP3    H257950   0.893   2.477  15.619  1.8365 -1.5230 -0.3442
12179TIP3   OH257951   1.673   5.912   5.112 -0.1403  0.1563  0.1320
12179TIP3    H157952   1.700   5.997   5.148 -0.1197  1.0015 -1.7311
12179TIP3    H257953   1.619   5.935   5.036  0.2822 -1.4958 -0.7084
12180TIP3   OH257954   6.678   4.281   5.294  0.0962 -0.1032  0.0395
12180TIP3    H157955   6.757   4.253   5.249  0.8465  0.5505  0.9087
12180TIP3    H257956   6.710   4.322   5.375 -1.1382 -0.0239  0.5046
12181TIP3   OH257957   6.146   2.776  16.154 -0.6121 -0.7070 -0.2011
12181TIP3    H157958   6.147   2.734  16.067  0.1972 -1.3439  0.1031
12181TIP3    H257959   6.231   2.817  16.162 -0.6171 -0.7980  0.3622
12182TIP3   OH257960   2.951   6.678  14.803 -0.5229  0.6524  0.2964
12182TIP3    H157961   2.901   6.627  14.867 -0.8160  0.3771 -0.1486
12182TIP3    H257962   2.917   6.767  14.813 -1.3315  0.4173 -0.2072
12183TIP3   OH257963   2.960   6.454   1.508  0.0562  0.7338 -0.0747
12183TIP3    H157964   3.054   6.462   1.523 -0.1907  2.1363  0.8860
12183TIP3    H257965   2.946   6.486   1.419  0.5364  0.0572 -0.3993
12184TIP3   OH257966   3.287   0.679   2.407  0.1551  0.4854 -0.5362
12184TIP3    H157967   3.229   0.651   2.336  1.1319 -0.8457 -0.8498
12184TIP3    H257968   3.253   0.764   2.434 -1.3630  0.1614 -1.3360
12185TIP3   OH257969   3.205   0.101   0.504  0.0159 -0.1882  0.0438
12185TIP3    H157970   3.150   0.124   0.429 -1.2435  0.9012  1.2251
12185TIP3    H257971   3.144   0.062   0.567  0.7592  0.2113  1.0455
12186TIP3   OH257972   5.979   4.842   2.668 -0.4115 -0.1578 -0.2888
12186TIP3    H157973   6.006   4.933   2.676 -1.0923 -0.0063  0.3975
12186TIP3    H257974   5.883   4.846   2.660 -0.6711 -0.9147  1.9733
12187TIP3   OH257975   3.643   2.530  12.494  0.4454  0.4939  0.1097
12187TIP3    H157976   3.732   2.504  12.519  0.3022  0.6207  0.7583
12187TIP3    H257977   3.610   2.580  12.568  0.0538  0.9863 -0.3854
12188TIP3   OH257978   3.666   4.615   5.263 -0.0178 -0.2029  0.6085
12188TIP3    H157979   3.743   4.669   5.245  1.2202 -2.5638 -2.0323
12188TIP3    H257980   3.687   4.571   5.346  2.0391 -1.5520 -0.5498
12189TIP3   OH257981   0.106   0.343  10.952 -0.0977  0.1493  0.0888
12189TIP3    H157982   0.037   0.360  10.887  0.6659  1.3753 -0.4411
12189TIP3    H257983   0.186   0.339  10.900  0.2735 -0.9850  0.7296
12190TIP3   OH257984   0.693   0.738  16.608  0.2729  0.5539 -0.0656
12190TIP3    H157985   0.755   0.679  16.650 -2.0556 -0.1565  2.6942
12190TIP3    H257986   0.684   0.811  16.669 -0.8544  1.1404 -0.8969
12191TIP3   OH257987   2.468   3.353  15.739  0.1856 -0.6225  0.0680
12191TIP3    H157988   2.520   3.281  15.776  1.4207 -0.0075 -0.4151
12191TIP3    H257989   2.530   3.401  15.684 -0.9553  0.0374 -0.6733
12192TIP3   OH257990   0.231   1.992  15.959 -0.1807  0.1231 -0.0512
12192TIP3    H157991   0.269   1.929  15.898 -0.2289 -0.2348  0.2840
12192TIP3    H257992   0.143   2.009  15.924 -0.2333 -0.1318 -0.0426
12193TIP3   OH257993   2.374   1.232   1.531 -0.1209 -0.4180 -0.6515
12193TIP3    H157994   2.280   1.216   1.519 -0.4491  0.1733  0.9230
12193TIP3    H257995   2.405   1.255   1.443 -1.4500 -0.6181 -1.2019
12194TIP3   OH257996   3.171   4.758  16.544 -0.4220 -0.1413 -0.5752
12194TIP3    H157997   3.167   4.787  16.453 -0.7366  1.0345 -0.1984
12194TIP3    H257998   3.093   4.704  16.555 -0.4160 -0.2378 -0.9803
12195TIP3   OH257999   6.290   5.116   4.574 -0.5188  0.0076 -0.1521
12195TIP3    H158000   6.298   5.207   4.545 -0.0037 -0.5815 -1.9980
12195TIP3    H258001   6.380   5.085   4.580 -0.7142 -0.6211 -0.4054
12196TIP3   OH258002   2.808   1.930  12.289  0.1192  0.2709 -0.0355
12196TIP3    H158003   2.860   1.939  12.209 -0.2979 -1.1454 -0.5047
12196TIP3    H258004   2.796   1.835  12.298 -2.1033  0.5243  0.2302
12197TIP3   OH258005   4.456   4.209   4.753 -0.0940  0.5175 -0.1931
12197TIP3    H158006   4.445   4.119   4.725 -0.1678  0.7541 -0.9421
12197TIP3    H258007   4.470   4.203   4.848  1.2486 -0.3914 -0.4145
12198TIP3   OH258008   5.885   1.570  13.246 -0.0804 -0.1598 -0.5912
12198TIP3    H158009   5.881   1.599  13.337 -2.9928  1.7745 -1.1880
12198TIP3    H258010   5.938   1.636  13.202  0.0119 -0.2223 -0.5748
12199TIP3   OH258011   2.321   5.473   0.850  0.5485 -0.4254  0.5468
12199TIP3    H158012   2.377   5.502   0.922  1.3250 -1.1877  0.2637
12199TIP3    H258013   2.248   5.428   0.893 -0.8986  2.1820  1.0226
12200TIP3   OH258014   6.051   4.384  14.629  0.2603 -0.4206 -0.0463
12200TIP3    H158015   6.134   4.417  14.594  0.3451  0.3132  0.7922
12200TIP3    H258016   6.010   4.461  14.669 -0.3060 -1.0039  0.5241
12201TIP3   OH258017   5.031   1.079   2.460 -0.3812 -0.2670 -0.1708
12201TIP3    H158018   4.999   0.989   2.472 -1.3331 -0.0488 -0.9000
12201TIP3    H258019   4.990   1.129   2.529  0.0604 -0.3670  0.1673
12202TIP3   OH258020   6.102   1.788   2.179  0.2909 -0.1051  0.1922
12202TIP3    H158021   6.075   1.865   2.229 -0.1616 -1.4464  2.1210
12202TIP3    H258022   6.061   1.800   2.093 -1.0890  1.0602  0.9674
12203TIP3   OH258023   0.451   2.144   0.021  0.8206  0.2942  0.3981
12203TIP3    H158024   0.399   2.101   0.088 -1.7665 -1.4299 -2.4932
12203TIP3    H258025   0.540   2.110   0.034  0.1869 -0.7895  2.2306
12204TIP3   OH258026   3.014   4.256   0.848  0.6226  0.4787  0.1821
12204TIP3    H158027   3.040   4.164   0.841  1.3840  0.6464  0.6750
12204TIP3    H258028   2.984   4.266   0.939 -0.2413  0.5341 -0.0941
12205TIP3   OH258029   1.979   5.989   0.010  0.1171  0.3359  0.2364
12205TIP3    H158030   1.888   5.979   0.040  0.0052  0.0468 -0.1896
12205TIP3    H258031   2.030   5.930   0.064  0.0861  0.6700  0.6342
12206TIP3   OH258032   1.172   1.359  12.855 -0.3548 -0.2090 -0.2307
12206TIP3    H158033   1.118   1.288  12.820 -2.3505  1.0205  0.1909
12206TIP3    H258034   1.250   1.360  12.799 -0.5745 -2.2573 -0.6630
12207TIP3   OH258035   1.617   6.567  15.911 -0.6745  0.6075  0.2879
12207TIP3    H158036   1.531   6.532  15.934 -0.1002 -1.2601 -0.1765
12207TIP3    H258037   1.604   6.606  15.824 -1.0352  0.2281  0.1665
12208TIP3   OH258038   5.053   0.154   2.445  0.2562  0.1988 -0.2280
12208TIP3    H158039   5.100   0.073   2.462  0.0147 -0.1928 -1.3452
12208TIP3    H258040   5.066   0.171   2.352 -0.6215  0.8485 -0.2486
12209TIP3   OH258041   4.563   3.189   5.192  0.3295 -0.0638  0.4800
12209TIP3    H158042   4.620   3.230   5.128 -0.1288 -1.2356 -0.7176
12209TIP3    H258043   4.478   3.231   5.180  0.6178  0.8769  1.4896
12210TIP3   OH258044   6.605   3.115   4.957 -0.3646 -0.4153 -0.0581
12210TIP3    H158045   6.532   3.080   4.905  0.2430 -1.8392 -0.0225
12210TIP3    H258046   6.579   3.099   5.048 -1.2459  1.7047  0.1151
12211TIP3   OH258047   5.574   2.954  15.479  0.1900  0.0767 -0.3875
12211TIP3    H158048   5.667   2.935  15.493  0.4499  0.0116 -2.0753
12211TIP3    H258049   5.540   2.970  15.567  1.8085  0.1848  0.2515
12212TIP3   OH258050   4.920   1.940  11.166  0.2147 -0.0327 -0.2206
12212TIP3    H158051   4.841   1.942  11.112  1.0193  2.2309 -1.4272
12212TIP3    H258052   4.992   1.949  11.104  1.4314 -1.5790  0.9002
12213TIP3   OH258053   0.646   4.008  13.423 -0.5991 -0.3343 -0.2494
12213TIP3    H158054   0.735   4.042  13.426 -0.8238  0.2086  1.4276
12213TIP3    H258055   0.632   3.969  13.509 -2.8431  1.8973  0.5036
12214TIP3   OH258056   2.245   4.892   5.083 -0.2289 -0.1780 -0.2652
12214TIP3    H158057   2.272   4.903   5.174  2.5832  0.6938 -1.1065
12214TIP3    H258058   2.228   4.798   5.074  0.3414 -0.4094  0.9278
12215TIP3   OH258059   5.677   1.149  12.284  0.4213 -0.1064 -0.0542
12215TIP3    H158060   5.731   1.207  12.231 -0.1122  0.4363 -0.0165
12215TIP3    H258061   5.735   1.118  12.353  0.6224  0.6863  0.1412
12216TIP3   OH258062   6.593   1.770  11.673 -0.1104  0.3214 -0.0880
12216TIP3    H158063   6.545   1.825  11.735  0.7417  0.6920  0.2609
12216TIP3    H258064   6.603   1.686  11.719  1.9013  1.0847  0.9738
12217TIP3   OH258065   3.187   2.427   0.789 -0.2570 -0.0378 -0.2586
12217TIP3    H158066   3.223   2.339   0.802  0.2759  0.3695  1.2942
12217TIP3    H258067   3.129   2.440   0.865 -1.5711  0.3731 -1.2883
12218TIP3   OH258068   5.317   3.858   1.043  0.0425  0.1077 -0.0614
12218TIP3    H158069   5.285   3.818   0.963 -0.5186  0.3682  0.0267
12218TIP3    H258070   5.309   3.952   1.027 -2.7418  0.2056  1.2996
12219TIP3   OH258071   1.023   6.250  16.967  0.0189  0.0932  0.5171
12219TIP3    H158072   1.052   6.169  16.924  0.0388  0.3845 -0.0258
12219TIP3    H258073   1.049   6.320  16.907 -0.3500  0.4765  0.7951
12220TIP3   OH258074   6.531   4.127  10.958 -0.2404  0.3632  0.4437
12220TIP3    H158075   6.590   4.065  10.915 -0.2987  0.2681  0.4990
12220TIP3    H258076   6.560   4.213  10.928 -1.2968  0.2278 -1.0846
12221TIP3   OH258077   2.875   1.933   2.868 -0.3670  0.2417  0.2962
12221TIP3    H158078   2.856   1.872   2.940 -1.1316  0.8122  0.5951
12221TIP3    H258079   2.921   1.880   2.803  2.3620  0.2016  2.0929
12222TIP3   OH258080   1.634   2.303  13.451 -0.2233 -0.0397  0.2296
12222TIP3    H158081   1.726   2.320  13.472  0.0273 -1.4067  0.3162
12222TIP3    H258082   1.637   2.240  13.379 -1.0808 -0.8094  0.8428
12223TIP3   OH258083   3.448   3.573   5.360 -0.2485  0.4738 -0.0145
12223TIP3    H158084   3.356   3.577   5.335 -0.2698  2.7253  0.1608
12223TIP3    H258085   3.465   3.481   5.378 -2.0997 -0.1829 -1.3456
12224TIP3   OH258086   5.456   2.567  11.734  0.5797  0.1338  0.0473
12224TIP3    H158087   5.462   2.479  11.697  0.5139  0.4431 -0.7147
12224TIP3    H258088   5.367   2.595  11.713 -0.1053 -0.3738  2.0329
12225TIP3   OH258089   6.124   6.236  16.919  0.1841  0.0426 -0.0231
12225TIP3    H158090   6.092   6.149  16.897 -0.8221 -0.3155  2.5544
12225TIP3    H258091   6.045   6.290  16.924  0.4922  0.3917  1.3096
12226TIP3   OH258092   4.633   5.968   4.673  0.0503 -0.3883 -0.3741
12226TIP3    H158093   4.620   5.990   4.581 -0.1097  0.9320 -0.0558
12226TIP3    H258094   4.588   5.884   4.685  0.9537 -1.1061 -1.7229
12227TIP3   OH258095   4.854   3.560  13.788  0.2065 -0.2958 -0.8521
12227TIP3    H158096   4.762   3.579  13.805  0.5526  1.3571 -0.5910
12227TIP3    H258097   4.860   3.554  13.692  0.1035  1.4309 -1.0046
12228TIP3   OH258098   4.450   6.717   0.615  0.2285 -0.2289  0.1098
12228TIP3    H158099   4.434   6.804   0.652  0.7931 -0.2458  0.4112
12228TIP3    H258100   4.517   6.678   0.673 -1.7449 -1.8287  1.4611
12229TIP3   OH258101   5.854   6.067  11.487 -0.4375  0.1641  0.0028
12229TIP3    H158102   5.860   6.026  11.573 -0.1763  0.3226  0.0598
12229TIP3    H258103   5.804   6.004  11.434 -0.5777  0.0562  0.2620
12230TIP3   OH258104   4.387   4.017   5.421 -0.1056  0.1005  0.2909
12230TIP3    H158105   4.463   3.959   5.423 -0.3806 -0.2496  1.7247
12230TIP3    H258106   4.355   4.012   5.331  1.1802 -0.2490 -0.1571
12231TIP3   OH258107   5.588   3.397   3.708  0.0632 -0.7427 -0.4714
12231TIP3    H158108   5.513   3.456   3.720 -0.4211 -1.5441  0.4827
12231TIP3    H258109   5.556   3.311   3.735  1.1674 -1.2033 -0.5936
12232TIP3   OH258110   6.458   1.383  16.896 -0.1398  0.4878  0.2081
12232TIP3    H158111   6.507   1.311  16.937 -0.3606  0.4497  0.4077
12232TIP3    H258112   6.368   1.369  16.925 -0.2538  0.6036 -0.0952
12233TIP3   OH258113   6.192   0.273   2.705 -0.5715 -0.2131  0.5573
12233TIP3    H158114   6.220   0.202   2.763 -0.7064 -0.4706  0.3067
12233TIP3    H258115   6.221   0.246   2.618  0.2282  0.4892  0.5961
12234TIP3   OH258116   4.041   1.530   3.300  0.4094 -0.5258  0.1520
12234TIP3    H158117   3.993   1.580   3.366  1.5999  1.4702 -0.3805
12234TIP3    H258118   3.975   1.508   3.234 -0.4415 -0.9914  1.1366
12235TIP3   OH258119   0.252   2.825  16.787  0.1458  0.3974 -0.3022
12235TIP3    H158120   0.317   2.885  16.749 -1.0583  0.8836 -1.7114
12235TIP3    H258121   0.256   2.747  16.731  1.8486 -1.0316  1.6410
12236TIP3   OH258122   3.578   6.293  13.607  0.1437 -0.3285  0.4120
12236TIP3    H158123   3.594   6.209  13.651  1.4241 -0.5370 -0.4065
12236TIP3    H258124   3.602   6.277  13.516 -1.6714  0.3333 -0.2187
12237TIP3   OH258125   4.252   4.308  16.813 -0.2386 -0.3690 -0.0716
12237TIP3    H158126   4.209   4.353  16.740  0.1009  0.3601  0.1702
12237TIP3    H258127   4.303   4.376  16.856  0.0810 -0.9393  0.4581
12238TIP3   OH258128   5.470   4.689  11.432 -0.3082 -0.3204  0.0020
12238TIP3    H158129   5.503   4.778  11.449  0.2174 -0.6347  0.6530
12238TIP3    H258130   5.498   4.671  11.342  0.8726 -0.3681  0.3509
12239TIP3   OH258131   3.535   3.743   5.791 -0.3451  0.3095  0.4587
12239TIP3    H158132   3.610   3.698   5.829 -0.0150 -0.5862 -1.1773
12239TIP3    H258133   3.461   3.716   5.845  0.1999 -0.3474  0.8908
12240TIP3   OH258134   5.341   5.856   3.469  0.1835 -0.2251 -0.2585
12240TIP3    H158135   5.285   5.929   3.495  1.4394  0.7555 -0.1802
12240TIP3    H258136   5.346   5.861   3.374  0.6247  0.0916 -0.2255
12241TIP3   OH258137   1.857   4.738   6.137  0.2355 -0.5182 -0.1042
12241TIP3    H158138   1.911   4.662   6.121  0.9032 -0.2160  0.6308
12241TIP3    H258139   1.773   4.702   6.168 -0.4263 -1.0246 -2.3084
12242TIP3   OH258140   3.371   1.222  14.913  0.6638  0.5133  0.4672
12242TIP3    H158141   3.309   1.154  14.941  0.6916  0.6665  0.9103
12242TIP3    H258142   3.403   1.192  14.828  1.0672 -0.2830  0.8971
12243TIP3   OH258143   4.640   1.824  12.506 -0.6084 -0.0990  0.0006
12243TIP3    H158144   4.685   1.739  12.501  1.7487  1.1048 -1.0065
12243TIP3    H258145   4.594   1.822  12.590  0.6258 -1.7967  0.6987
12244TIP3   OH258146   5.165   2.812   5.785 -0.1438 -0.3257 -0.0668
12244TIP3    H158147   5.230   2.761   5.833 -0.1614  0.7128  1.0896
12244TIP3    H258148   5.213   2.887   5.751 -0.6334  0.2255  0.4334
12245TIP3   OH258149   0.942   1.040  12.130 -0.8324 -0.0947  0.1323
12245TIP3    H158150   1.031   1.070  12.113 -0.4674  0.0223  1.9653
12245TIP3    H258151   0.954   0.957  12.177 -1.7129 -0.5728 -0.4690
12246TIP3   OH258152   3.387   3.668   2.578 -0.6467 -0.1145 -0.8332
12246TIP3    H158153   3.342   3.621   2.648  1.1533 -1.0425 -0.2200
12246TIP3    H258154   3.388   3.606   2.505  1.8165 -1.2111  0.0089
12247TIP3   OH258155   6.558   3.747  14.211 -0.4345  1.1337 -0.1250
12247TIP3    H158156   6.491   3.679  14.217  0.8436 -0.1446  0.1954
12247TIP3    H258157   6.552   3.779  14.121 -0.1247 -0.4307 -0.7444
12248TIP3   OH258158   2.816   2.609  14.092 -0.3402 -0.0019 -0.0368
12248TIP3    H158159   2.817   2.604  13.996  0.1581  1.0934 -0.0945
12248TIP3    H258160   2.908   2.608  14.118 -0.4568 -3.0110  0.6243
12249TIP3   OH258161   1.177   5.836   4.555 -0.7822 -0.2317 -0.2432
12249TIP3    H158162   1.202   5.893   4.628 -0.8169 -0.2725 -0.1985
12249TIP3    H258163   1.160   5.895   4.482  1.1523 -0.3080 -0.7958
12250TIP3   OH258164   0.378   5.817  16.300 -0.4314 -0.2663  0.2566
12250TIP3    H158165   0.416   5.884  16.357  0.2372 -0.5406  0.1490
12250TIP3    H258166   0.368   5.859  16.215  0.5958 -0.4794  0.0166
12251TIP3   OH258167   4.227   3.801   3.811 -0.2410  0.6970 -0.0522
12251TIP3    H158168   4.133   3.819   3.823 -0.4352 -0.7494  0.9447
12251TIP3    H258169   4.236   3.708   3.833  1.5615  1.0041  0.7091
12252TIP3   OH258170   6.063   2.423  16.211  0.3835  0.3330 -0.2327
12252TIP3    H158171   6.082   2.362  16.140  0.6450  1.6846 -1.3712
12252TIP3    H258172   6.148   2.458  16.236  0.5222 -1.3131  1.9390
12253TIP3   OH258173   0.504   4.893   1.186 -0.2920 -0.5340 -0.5756
12253TIP3    H158174   0.497   4.935   1.271 -0.6536  0.0686 -0.8905
12253TIP3    H258175   0.590   4.852   1.186  0.3838  0.8310 -0.5139
12254TIP3   OH258176   6.265   5.574   0.715  0.1369 -0.6045  0.2743
12254TIP3    H158177   6.347   5.620   0.705 -0.5917  0.8365  0.6925
12254TIP3    H258178   6.198   5.637   0.689 -0.8853 -1.4677  0.7196
12255TIP3   OH258179   3.478   4.955  11.829 -0.7608 -0.1492 -0.1471
12255TIP3    H158180   3.461   5.034  11.881  0.0072  1.0706 -1.6835
12255TIP3    H258181   3.437   4.972  11.745 -0.7865 -1.5143 -0.4301
12256TIP3   OH258182   3.932   5.008  16.015  0.0774 -0.2304  0.6969
12256TIP3    H158183   3.925   5.057  15.934  0.2866 -1.2901  0.0244
12256TIP3    H258184   3.862   4.943  16.012  0.8531 -1.1058  0.7589
12257TIP3   OH258185   2.631   6.357  16.941  0.0032  0.0861  0.9361
12257TIP3    H158186   2.566   6.424  16.917  0.3107 -0.1773 -0.7019
12257TIP3    H258187   2.698   6.405  16.989  0.6162  1.1510 -0.8959
12258TIP3   OH258188   2.435   0.183   0.664  0.7307  0.0590 -0.1601
12258TIP3    H158189   2.355   0.181   0.610  1.0995  1.3443 -0.8114
12258TIP3    H258190   2.470   0.271   0.650  2.0093 -0.3230  0.5002
12259TIP3   OH258191   4.717   4.298   1.263  0.0527 -0.1896 -0.5565
12259TIP3    H158192   4.662   4.222   1.244  0.1352 -0.3295 -0.2605
12259TIP3    H258193   4.801   4.278   1.222  0.5516 -0.9473  0.7561
12260TIP3   OH258194   4.478   2.678   3.187  0.3233  0.2528 -0.1598
12260TIP3    H158195   4.433   2.762   3.200 -1.0495 -0.4531 -0.1230
12260TIP3    H258196   4.529   2.690   3.107 -0.0232  1.0573 -0.2700
12261TIP3   OH258197   3.131   3.310   1.550  0.0939 -0.0006 -0.0779
12261TIP3    H158198   3.149   3.247   1.620 -1.3327 -0.5903 -0.2078
12261TIP3    H258199   3.209   3.366   1.547  1.2920 -1.5875  0.2179
12262TIP3   OH258200   5.330   4.867  11.916 -0.1318 -0.1019  0.1173
12262TIP3    H158201   5.257   4.866  11.978 -0.9962 -0.9950 -0.8844
12262TIP3    H258202   5.300   4.814  11.843  0.7491  1.1431 -1.2021
12263TIP3   OH258203   6.535   6.484   1.974 -0.1120 -0.3947 -0.1528
12263TIP3    H158204   6.542   6.497   2.068  0.2276 -2.3731  0.1542
12263TIP3    H258205   6.452   6.437   1.963 -0.5529  0.5308 -0.9560
12264TIP3   OH258206   5.837   0.845   6.412  0.2396 -0.1157 -0.5923
12264TIP3    H158207   5.756   0.885   6.444 -0.5618 -0.3988 -2.1666
12264TIP3    H258208   5.905   0.907   6.436 -0.2132 -0.4976  1.9609
12265TIP3   OH258209   0.343   3.266   6.513 -0.2055 -0.4344 -0.0529
12265TIP3    H158210   0.388   3.184   6.533 -0.4227  0.0270  2.6976
12265TIP3    H258211   0.382   3.330   6.572  0.5478  1.7352 -2.6919
12266TIP3   OH258212   1.497   1.401   3.264 -0.5197  1.0434  0.5183
12266TIP3    H158213   1.521   1.490   3.240  0.6517  0.1986 -1.6862
12266TIP3    H258214   1.466   1.361   3.183  0.1916 -0.9308  1.1552
12267TIP3   OH258215   6.472   5.720  17.006  0.8672 -0.0324  0.5260
12267TIP3    H158216   6.428   5.758  16.930  0.1996 -0.2605  0.7892
12267TIP3    H258217   6.498   5.796  17.059 -0.1461  0.0859  0.8757
12268TIP3   OH258218   5.826   3.990   5.292 -0.0704 -0.0427  0.0950
12268TIP3    H158219   5.757   4.010   5.355  0.8933 -0.6939  1.4103
12268TIP3    H258220   5.905   3.979   5.345  1.3979  2.1190 -1.4752
12269TIP3   OH258221   1.789   4.471   4.763 -0.0208 -0.4233  0.3895
12269TIP3    H158222   1.736   4.393   4.746 -0.9812 -0.1170  1.7529
12269TIP3    H258223   1.733   4.526   4.818  0.7703  1.0771 -0.2484
12270TIP3   OH258224   6.512   2.612   1.658  0.0329  0.4947  0.0183
12270TIP3    H158225   6.574   2.589   1.590  2.0868 -0.7094  2.1428
12270TIP3    H258226   6.447   2.542   1.657  1.4519 -0.8816  0.8496
12271TIP3   OH258227   0.837   0.197  16.351  0.3675  0.0447  0.1898
12271TIP3    H158228   0.822   0.266  16.286 -0.1316 -0.0082  0.2449
12271TIP3    H258229   0.836   0.116  16.300 -1.1508 -0.0926  0.4053
12272TIP3   OH258230   6.612   5.637   5.976  0.2663  0.0176  0.3770
12272TIP3    H158231   6.700   5.661   6.005  0.6059  0.1835 -0.7338
12272TIP3    H258232   6.593   5.697   5.903 -1.1566  0.6323  1.1990
12273TIP3   OH258233   5.379   1.836   2.469 -0.2275  0.1250  0.2651
12273TIP3    H158234   5.423   1.772   2.526 -2.6100 -1.4405  0.4872
12273TIP3    H258235   5.314   1.878   2.525 -0.7819  0.5178 -0.6439
12274TIP3   OH258236   2.544   4.755   2.364 -0.1160 -0.7243 -0.0969
12274TIP3    H158237   2.487   4.678   2.365  0.3738 -1.0900 -0.0650
12274TIP3    H258238   2.530   4.797   2.449 -1.8154  0.2931 -0.8272
12275TIP3   OH258239   1.901   1.339  14.154  0.2670  0.4434 -0.0729
12275TIP3    H158240   1.867   1.261  14.110  0.9130 -0.2347  0.5949
12275TIP3    H258241   1.947   1.305  14.231  1.1139  1.4382 -0.1153
12276TIP3   OH258242   4.558   2.903   3.376  0.1596  0.2046 -0.3928
12276TIP3    H158243   4.619   2.976   3.380 -0.1898  0.4839 -0.1277
12276TIP3    H258244   4.534   2.897   3.284 -0.4845  0.9831 -0.2809
12277TIP3   OH258245   6.570   0.373  11.264  0.1876 -0.4709 -0.2033
12277TIP3    H158246   6.658   0.336  11.260  0.4278 -0.1893  1.8049
12277TIP3    H258247   6.583   0.464  11.287 -0.6642 -0.7991  1.7430
12278TIP3   OH258248   5.855   6.760   0.352 -0.2531  0.0693 -0.4160
12278TIP3    H158249   5.773   6.762   0.400 -0.8845  1.7828 -1.4790
12278TIP3    H258250   5.840   6.697   0.281 -1.2234  1.4532 -1.4916
12279TIP3   OH258251   5.952   4.645  14.468  0.2710 -0.6148 -0.1036
12279TIP3    H158252   5.859   4.668  14.464  0.5392  1.2492  2.1379
12279TIP3    H258253   5.987   4.674  14.384 -0.7415  1.0669  0.0074
12280TIP3   OH258254   6.451   3.602  11.044  0.3104 -0.3043  0.2684
12280TIP3    H158255   6.427   3.510  11.053 -1.7361  0.0207 -1.0690
12280TIP3    H258256   6.399   3.647  11.111  0.1649  0.0228 -0.0610
12281TIP3   OH258257   0.733   3.972  16.519 -0.3820  0.1295  0.1658
12281TIP3    H158258   0.795   4.040  16.545 -0.5425  0.0554  0.7489
12281TIP3    H258259   0.764   3.893  16.562 -2.0340  0.4963  2.2316
12282TIP3   OH258260   4.910   4.359  13.291  0.1611 -0.6518  0.7214
12282TIP3    H158261   4.958   4.435  13.257 -1.6599 -0.3057 -1.2502
12282TIP3    H258262   4.885   4.385  13.379  1.2728  0.2104  0.8188
12283TIP3   OH258263   6.281   5.034  12.329  1.0485 -0.5556  0.1870
12283TIP3    H158264   6.231   5.110  12.298  3.7473  0.9398 -0.9387
12283TIP3    H258265   6.322   5.065  12.410  1.5719 -1.0698  0.1200
12284TIP3   OH258266   4.701   1.101   5.242 -0.4244  0.1300  0.5851
12284TIP3    H158267   4.779   1.052   5.216  0.1447  0.7252  1.1561
12284TIP3    H258268   4.633   1.071   5.181  0.9043  1.6594 -1.8151
12285TIP3   OH258269   2.163   5.728   3.668 -0.2475 -0.3431 -0.3150
12285TIP3    H158270   2.073   5.761   3.666  0.0422  0.4788 -2.1760
12285TIP3    H258271   2.154   5.636   3.694 -1.7719 -0.6080 -1.5818
12286TIP3   OH258272   0.107   4.384  12.579  0.2524 -0.5279 -0.3427
12286TIP3    H158273   0.128   4.476  12.599 -0.6173  0.0191 -1.8243
12286TIP3    H258274   0.179   4.354  12.525  0.9411 -0.9946  0.7947
12287TIP3   OH258275   3.734   0.869   1.267 -0.0192 -0.3907 -0.2640
12287TIP3    H158276   3.796   0.923   1.219 -0.3197 -0.4079 -0.6746
12287TIP3    H258277   3.653   0.875   1.217 -0.9243  1.1723  1.2766
12288TIP3   OH258278   4.038   2.897  11.888  0.0707 -0.0202  0.2385
12288TIP3    H158279   4.100   2.825  11.877  0.2392  0.0592  0.6388
12288TIP3    H258280   3.989   2.900  11.806  1.9192  1.2054 -0.8710
12289TIP3   OH258281   1.701   0.745   1.584  0.5117  0.1233 -0.0915
12289TIP3    H158282   1.629   0.720   1.527  1.8442 -2.8124 -0.6563
12289TIP3    H258283   1.670   0.823   1.630 -1.7686  0.8078 -2.5758
12290TIP3   OH258284   4.080   2.390   5.688 -0.3899  0.5145  0.1292
12290TIP3    H158285   4.070   2.468   5.634  0.3024  1.2333  0.9984
12290TIP3    H258286   4.093   2.423   5.777  1.1963 -0.5252  0.3385
12291TIP3   OH258287   4.014   2.201   2.734  0.0225 -0.1774  0.4070
12291TIP3    H158288   4.018   2.143   2.658  0.7950 -0.7521  0.8655
12291TIP3    H258289   3.930   2.246   2.726  0.0194 -0.3525 -0.6887
12292TIP3   OH258290   2.482   6.053  14.192  0.1377 -0.4720  0.1853
12292TIP3    H158291   2.479   6.144  14.160  2.2386 -0.7996 -1.2025
12292TIP3    H258292   2.537   6.058  14.270  0.0023 -0.4921  0.2807
12293TIP3   OH258293   3.031   0.614   5.152  0.5574  0.6591  0.6534
12293TIP3    H158294   3.121   0.583   5.139  0.3622 -0.5388  1.9218
12293TIP3    H258295   2.995   0.621   5.064  2.0354  1.6528  0.0830
12294TIP3   OH258296   3.276   1.873   5.697 -0.3179  0.0873 -0.0401
12294TIP3    H158297   3.208   1.940   5.699 -1.1033 -0.6868  0.1469
12294TIP3    H258298   3.284   1.845   5.788 -0.9000 -0.9298 -0.2856
12295TIP3   OH258299   6.730   6.581   3.434  0.4834  0.7937  0.1576
12295TIP3    H158300   6.792   6.651   3.413 -1.2740  2.7224  1.0103
12295TIP3    H258301   6.715   6.591   3.528 -0.7217  0.0648  0.0540
12296TIP3   OH258302   1.884   5.011  12.488  0.1161  0.5432  0.0834
12296TIP3    H158303   1.958   4.964  12.527 -0.4623 -1.1609 -0.7814
12296TIP3    H258304   1.810   4.992  12.545 -0.0559  0.6967 -0.0858
12297TIP3   OH258305   6.754   1.048  16.135  0.0285  0.9462  0.3808
12297TIP3    H158306   6.777   1.081  16.221  0.6580  1.4267  0.0337
12297TIP3    H258307   6.809   0.970  16.123 -0.7022  0.3620  0.7708
12298TIP3   OH258308   3.023   0.788   3.219  0.1334  0.1365  0.2140
12298TIP3    H158309   2.961   0.832   3.160  1.4588  0.2216 -1.1560
12298TIP3    H258310   3.108   0.822   3.194  0.9566 -1.4418  0.7662
12299TIP3   OH258311   0.409   5.782  12.561  0.0939  0.0655 -0.2295
12299TIP3    H158312   0.399   5.692  12.532 -0.3759 -0.0251  0.1959
12299TIP3    H258313   0.467   5.776  12.637 -1.8106 -0.1953  1.2983
12300TIP3   OH258314   6.305   0.244   2.205  0.8816  0.4299  0.3360
12300TIP3    H158315   6.287   0.314   2.142  0.8028  1.6962  1.7362
12300TIP3    H258316   6.394   0.215   2.184  0.1666 -0.5508 -1.6063
12301TIP3   OH258317   2.252   3.508  13.634 -0.1408 -0.5849 -0.2205
12301TIP3    H158318   2.261   3.469  13.721 -0.9728 -1.2877 -0.4250
12301TIP3    H258319   2.178   3.461  13.595 -0.1280  0.0993 -1.1020
12302TIP3   OH258320   6.628   0.325  14.496 -0.1328  0.0818 -0.0309
12302TIP3    H158321   6.614   0.233  14.516  0.0119  0.1067  0.1822
12302TIP3    H258322   6.565   0.344  14.426  1.0170 -0.6233 -1.2942
12303TIP3   OH258323   6.624   3.596  16.939  0.1530  0.1765 -0.2866
12303TIP3    H158324   6.668   3.545  16.870  0.2514 -0.6131  0.3454
12303TIP3    H258325   6.691   3.656  16.970 -0.3125  1.6115 -1.8885
12304TIP3   OH258326   1.453   3.917   2.720 -0.2320 -0.0289  0.2754
12304TIP3    H158327   1.521   3.872   2.770  1.2792  0.5023 -1.1952
12304TIP3    H258328   1.485   3.916   2.630 -2.0073  0.5921 -0.4032
12305TIP3   OH258329   5.701   4.005   3.149  0.1209 -0.2212 -0.5963
12305TIP3    H158330   5.668   4.095   3.144  0.2705 -0.2051 -1.3655
12305TIP3    H258331   5.717   3.991   3.243  1.4874  1.0627 -0.5955
12306TIP3   OH258332   6.253   4.617  13.892 -0.4301 -0.0229 -0.1304
12306TIP3    H158333   6.343   4.619  13.924 -0.9294  1.0294  1.3121
12306TIP3    H258334   6.260   4.639  13.799  0.8837 -0.9992 -0.2870
12307TIP3   OH258335   3.540   4.102  13.213  0.4877 -0.2538  0.8190
12307TIP3    H158336   3.466   4.077  13.158 -0.8293  1.6554  1.5997
12307TIP3    H258337   3.606   4.133  13.152  0.0752 -0.5998  0.1843
12308TIP3   OH258338   0.267   0.844   3.352  0.4224 -0.8196 -0.0416
12308TIP3    H158339   0.252   0.780   3.421 -1.0035  0.3548  0.7975
12308TIP3    H258340   0.192   0.833   3.293  0.7162 -0.6285 -0.4549
12309TIP3   OH258341   1.163   1.450  13.495  0.9537 -0.5547 -0.4880
12309TIP3    H158342   1.183   1.496  13.413 -0.4057  0.2841 -0.3729
12309TIP3    H258343   1.117   1.515  13.548  0.9500 -1.3956  0.5509
12310TIP3   OH258344   1.299   5.117  15.971 -0.3876  0.4807 -0.1131
12310TIP3    H158345   1.281   5.040  15.918  1.5580 -0.2101  0.1553
12310TIP3    H258346   1.372   5.092  16.027 -1.2772  1.7493  1.7291
12311TIP3   OH258347   2.190   3.266   0.251 -0.3023  0.4128 -0.4741
12311TIP3    H158348   2.138   3.214   0.312  0.6604 -0.7032 -0.5699
12311TIP3    H258349   2.240   3.326   0.308  2.4838 -2.2760  0.1946
12312TIP3   OH258350   6.223   5.866   0.784  0.4369  0.2154  0.5496
12312TIP3    H158351   6.159   5.800   0.810  1.1782 -0.5521  0.4583
12312TIP3    H258352   6.211   5.876   0.689  1.0458 -0.5917  0.3760
12313TIP3   OH258353   0.981   0.882  15.801 -0.9458 -0.5231 -0.3905
12313TIP3    H158354   0.921   0.877  15.875 -1.0890  0.3621 -0.4305
12313TIP3    H258355   0.925   0.901  15.725 -0.5079  2.0713 -0.1578
12314TIP3   OH258356   6.599   2.887   4.184  0.1316  0.1650  0.5681
12314TIP3    H158357   6.667   2.907   4.121 -2.0446  1.0824 -1.6486
12314TIP3    H258358   6.593   2.791   4.185 -0.0190  0.1490 -0.8970
12315TIP3   OH258359   1.438   3.121  10.532  0.4967  0.2023  0.0400
12315TIP3    H158360   1.528   3.089  10.527  1.7608  3.4927 -0.8403
12315TIP3    H258361   1.401   3.102  10.445  0.5936 -0.4285  0.1322
12316TIP3   OH258362   3.334   4.560  14.502 -0.0424 -0.3179 -0.2388
12316TIP3    H158363   3.413   4.593  14.543  0.0457  1.1390 -1.4526
12316TIP3    H258364   3.280   4.529  14.574  1.6521 -1.4341  0.5980
12317TIP3   OH258365   4.609   0.356  16.118  0.2690 -0.2460  0.0450
12317TIP3    H158366   4.533   0.392  16.164  1.3849  0.5458  1.3670
12317TIP3    H258367   4.607   0.262  16.138 -1.2809 -0.5423 -1.3578
12318TIP3   OH258368   4.142   2.115   2.957  0.1625 -0.3577 -0.3340
12318TIP3    H158369   4.110   2.163   3.033 -1.0688 -0.7637 -0.5685
12318TIP3    H258370   4.102   2.158   2.882  0.0484 -0.9571 -0.6302
12319TIP3   OH258371   1.213   5.355  16.080  0.2781 -0.0701 -0.7778
12319TIP3    H158372   1.272   5.280  16.074 -1.2743 -1.4592  0.3054
12319TIP3    H258373   1.126   5.316  16.085 -0.5011  1.7424  1.3217
12320TIP3   OH258374   3.370   5.308   1.482  0.1628 -0.5834 -0.7952
12320TIP3    H158375   3.388   5.394   1.445  0.2904 -0.4472 -0.4212
12320TIP3    H258376   3.432   5.300   1.555  0.1590 -0.9950 -0.8348
12321TIP3   OH258377   0.458   4.846   4.057  0.2022  0.4839 -0.3117
12321TIP3    H158378   0.367   4.874   4.049 -1.1357 -1.5009  4.4404
12321TIP3    H258379   0.456   4.753   4.032  0.5935  0.1218  0.9277
12322TIP3   OH258380   5.882   0.055   0.911 -0.4693 -0.0660  0.2772
12322TIP3    H158381   5.858   0.019   0.825  0.5404 -2.2333  0.8399
12322TIP3    H258382   5.798   0.067   0.956 -0.9262 -0.2043 -0.5163
12323TIP3   OH258383   2.551   2.717   1.761 -0.6883 -0.1378 -0.5069
12323TIP3    H158384   2.603   2.641   1.734  0.2125 -0.1299  1.0812
12323TIP3    H258385   2.461   2.692   1.743 -0.3105 -1.0720 -1.1951
12324TIP3   OH258386   0.223   4.670  16.532  0.1145  0.2087  0.4892
12324TIP3    H158387   0.271   4.668  16.614  1.7798  2.2550 -0.3291
12324TIP3    H258388   0.257   4.596  16.481  0.0187 -0.2828  1.1366
12325TIP3   OH258389   3.396   3.802   3.536  0.1485  0.1075  0.1398
12325TIP3    H158390   3.433   3.878   3.492  0.5539  0.2934  0.7856
12325TIP3    H258391   3.324   3.773   3.479  1.6975 -0.6973 -1.5336
12326TIP3   OH258392   4.015   5.157   2.011  0.0931  0.1458 -0.0078
12326TIP3    H158393   4.023   5.171   1.916 -1.0686  0.5436 -0.0579
12326TIP3    H258394   3.966   5.076   2.019  0.8806 -0.3121  0.2694
12327TIP3   OH258395   1.743   2.871  12.611  0.0183  0.1013  0.5986
12327TIP3    H158396   1.659   2.916  12.606  0.7582  1.5726  1.1319
12327TIP3    H258397   1.805   2.937  12.642  1.3486 -0.9998  0.3902
12328TIP3   OH258398   5.346   6.072   2.887 -0.6287 -0.0332  0.3124
12328TIP3    H158399   5.432   6.104   2.915  1.1427  0.3584 -4.6679
12328TIP3    H258400   5.292   6.150   2.882  0.1216  0.4305 -0.7489
12329TIP3   OH258401   6.030   0.026   3.950  0.1377  0.6690  0.4396
12329TIP3    H158402   5.990   0.073   3.876  0.3917 -0.0331 -0.1561
12329TIP3    H258403   6.022   0.087   4.024  0.2864  1.5654 -0.2637
12330TIP3   OH258404   4.164   4.612   3.637 -0.4204  0.1655  0.1818
12330TIP3    H158405   4.242   4.666   3.646 -0.2465 -0.1262  0.4294
12330TIP3    H258406   4.092   4.675   3.629 -0.2556  0.4362  0.7516
12331TIP3   OH258407   4.757   2.338   1.595 -0.3884 -0.0419 -0.2170
12331TIP3    H158408   4.785   2.429   1.601 -1.6858  0.4645 -1.3650
12331TIP3    H258409   4.810   2.292   1.661  0.8334  1.3884 -0.1548
12332TIP3   OH258410   6.347   3.000  16.783  0.3876 -0.5547 -0.0392
12332TIP3    H158411   6.332   3.010  16.689 -0.2907  0.0216  0.1211
12332TIP3    H258412   6.400   2.920  16.790 -0.6550 -1.3569 -0.8278
12333TIP3   OH258413   6.180   0.327  14.467  0.1790  0.1044  0.4989
12333TIP3    H158414   6.213   0.240  14.443  1.2612  0.3400  1.0913
12333TIP3    H258415   6.085   0.318  14.461  0.3117 -0.5557 -1.3603
12334TIP3   OH258416   6.327   4.108   1.473 -0.1374  0.1288 -0.2596
12334TIP3    H158417   6.285   4.053   1.539 -0.3559 -0.2810 -0.7419
12334TIP3    H258418   6.295   4.197   1.493  0.3199  0.1075  0.5943
12335TIP3   OH258419   6.207   2.971  10.827  0.1857  0.0076  0.5085
12335TIP3    H158420   6.163   3.006  10.904  0.0909  2.4231 -0.5443
12335TIP3    H258421   6.153   2.896  10.800 -0.6906  0.1390  1.8174
12336TIP3   OH258422   5.589   5.883  15.338  0.5545 -0.1785 -0.2975
12336TIP3    H158423   5.671   5.927  15.315  1.9622 -2.4177  0.1319
12336TIP3    H258424   5.612   5.825  15.409 -1.3999 -1.0056 -0.2743
12337TIP3   OH258425   1.648   1.798  13.441  0.2859  0.2124  0.0727
12337TIP3    H158426   1.675   1.782  13.531 -0.2712 -2.2279 -0.1376
12337TIP3    H258427   1.618   1.713  13.409 -2.3998  1.6015 -1.4716
12338TIP3   OH258428   3.003   5.876   2.992 -0.3820  0.0006 -0.6216
12338TIP3    H158429   3.010   5.910   2.903  0.0165 -1.6521 -1.2689
12338TIP3    H258430   2.957   5.944   3.041 -0.5853  0.9526 -2.0837
12339TIP3   OH258431   4.623   5.302   5.528 -0.0665  0.6803 -0.2305
12339TIP3    H158432   4.577   5.386   5.526  0.6685  1.0921 -1.1619
12339TIP3    H258433   4.609   5.266   5.440 -0.8003 -0.4264  0.3220
12340TIP3   OH258434   0.312   6.073  12.096  0.0726 -0.3786  0.5240
12340TIP3    H158435   0.354   5.994  12.128  1.2557 -0.3431 -0.8333
12340TIP3    H258436   0.247   6.042  12.033  1.9004 -0.2788 -1.5365
12341TIP3   OH258437   5.732   1.871  13.362  0.0490 -0.2071  0.1413
12341TIP3    H158438   5.746   1.778  13.381  1.1459 -0.3634 -1.2251
12341TIP3    H258439   5.718   1.911  13.447  3.0145 -1.0915  1.1767
12342TIP3   OH258440   2.147   3.802  14.374  0.1934  0.7897 -0.3632
12342TIP3    H158441   2.085   3.868  14.342 -3.8663 -1.9029  1.2463
12342TIP3    H258442   2.134   3.727  14.317  0.3644 -0.5817  1.3431
12343TIP3   OH258443   3.154   4.674  13.119 -0.5244 -0.5993  0.1109
12343TIP3    H158444   3.105   4.607  13.072  1.7081 -1.8776 -0.5076
12343TIP3    H258445   3.181   4.737  13.052 -0.9786 -0.0911  0.3917
12344TIP3   OH258446   3.468   2.683   2.244 -0.1740 -0.4337  0.1819
12344TIP3    H158447   3.398   2.629   2.282 -0.5020 -0.6422 -0.7001
12344TIP3    H258448   3.549   2.640   2.273 -0.4029 -0.2612  1.1099
12345TIP3   OH258449   4.918   6.317  13.320  0.1021  0.3907  0.0718
12345TIP3    H158450   5.007   6.352  13.313  0.0484  0.7017  0.8609
12345TIP3    H258451   4.861   6.391  13.298  0.0128  0.5431  0.7880
12346TIP3   OH258452   5.353   2.783   1.434  1.1648  0.2582  0.5265
12346TIP3    H158453   5.348   2.692   1.464 -2.9138 -0.0842 -0.7066
12346TIP3    H258454   5.300   2.832   1.496 -0.4869  0.9557 -1.3475
12347TIP3   OH258455   5.977   5.307  14.980  0.5951  0.2795  0.1552
12347TIP3    H158456   5.977   5.239  14.913  1.1321 -1.3543  1.7354
12347TIP3    H258457   5.887   5.339  14.982  0.5950  0.4618 -1.3984
12348TIP3   OH258458   2.357   3.530   0.263  0.6916 -0.4269 -0.8433
12348TIP3    H158459   2.275   3.559   0.302  1.1934  0.3554 -0.3346
12348TIP3    H258460   2.404   3.488   0.335  2.1978  2.2087 -0.1813
12349TIP3   OH258461   4.423   2.676  13.956 -0.2881 -0.5189 -0.2473
12349TIP3    H158462   4.357   2.641  13.897 -2.1246 -0.0488  1.4135
12349TIP3    H258463   4.458   2.753  13.911 -0.1410 -1.3129 -1.5520
12350TIP3   OH258464   5.442   2.860  11.805  0.1273 -0.1272  0.6421
12350TIP3    H158465   5.467   2.901  11.722  0.2028 -0.3485  0.5562
12350TIP3    H258466   5.480   2.773  11.801 -1.0482 -0.6507  0.3041
12351TIP3   OH258467   0.382   3.693   3.507 -0.1948  0.4976  0.2045
12351TIP3    H158468   0.465   3.663   3.469  0.1594 -0.3462  1.5902
12351TIP3    H258469   0.321   3.620   3.495 -0.6878  1.0254 -0.5977
12352TIP3   OH258470   4.851   6.190  15.794  0.1128 -0.0250 -0.2712
12352TIP3    H158471   4.787   6.169  15.862  1.2249 -0.6443  0.6382
12352TIP3    H258472   4.800   6.200  15.714 -1.5347  2.9729  1.0149
12353TIP3   OH258473   2.929   1.689   0.317 -0.2352  0.2930 -0.5003
12353TIP3    H158474   2.937   1.765   0.374 -1.3471  1.0609 -1.3330
12353TIP3    H258475   2.942   1.614   0.376  2.2834  1.0834  0.0899
12354TIP3   OH258476   1.734   2.246   4.950  0.2396 -0.2049 -0.3691
12354TIP3    H158477   1.773   2.275   5.032  1.4569 -0.1278 -0.9546
12354TIP3    H258478   1.696   2.160   4.971  1.1510 -0.5029  0.1144
12355TIP3   OH258479   3.252   4.187  12.645  0.0785  0.5772 -0.0095
12355TIP3    H158480   3.322   4.160  12.584  0.2829  0.1127  0.4244
12355TIP3    H258481   3.291   4.177  12.732 -0.1990  1.2803  0.2053
12356TIP3   OH258482   5.932   3.441   4.234 -0.1994 -1.0150 -0.7378
12356TIP3    H158483   5.950   3.369   4.294  2.3903  0.2026  0.0886
12356TIP3    H258484   6.010   3.446   4.179  0.2415  1.8335  0.0015
12357TIP3   OH258485   0.450   4.518   4.361  0.3844  0.0096 -0.2097
12357TIP3    H158486   0.386   4.531   4.291  0.0620  0.9369  0.2397
12357TIP3    H258487   0.469   4.607   4.393  0.9554 -0.3541  0.4915
12358TIP3   OH258488   4.968   2.158  15.593  0.0728 -0.0589  0.2636
12358TIP3    H158489   4.942   2.149  15.501  0.1617  1.2947  0.0954
12358TIP3    H258490   4.887   2.143  15.642  0.0440 -0.8750 -0.0117
12359TIP3   OH258491   5.341   1.456   3.951 -0.0903 -0.8014 -0.3813
12359TIP3    H158492   5.269   1.401   3.921 -0.1604  0.1364 -2.0752
12359TIP3    H258493   5.309   1.546   3.940  1.9598 -0.2804 -3.1142
12360TIP3   OH258494   2.666   3.581   1.629  0.0210 -0.0958 -0.5029
12360TIP3    H158495   2.689   3.664   1.586 -1.2834 -0.5030 -2.1257
12360TIP3    H258496   2.738   3.522   1.608  0.5122  0.3734 -0.1358
12361TIP3   OH258497   1.201   4.323   1.988 -0.0301  0.1043 -0.1041
12361TIP3    H158498   1.181   4.417   1.980 -1.2078 -0.1633 -0.4836
12361TIP3    H258499   1.251   4.316   2.069  0.7687  1.1715 -0.4821
12362TIP3   OH258500   0.351   2.921   4.225  0.5241 -0.4818 -0.2252
12362TIP3    H158501   0.378   2.830   4.215  1.1690 -0.1397 -2.0483
12362TIP3    H258502   0.266   2.917   4.268  0.9619 -1.8889  0.5367
12363TIP3   OH258503   2.546   1.624   4.193  0.2503  0.6584 -0.3612
12363TIP3    H158504   2.465   1.577   4.215  0.7104 -0.5291 -1.0865
12363TIP3    H258505   2.616   1.568   4.227  0.8096  1.0724 -0.8181
12364TIP3   OH258506   1.966   6.488   0.609 -0.5477 -0.5411 -0.1094
12364TIP3    H158507   1.879   6.492   0.650 -1.0087  0.2252 -1.1091
12364TIP3    H258508   2.005   6.407   0.642 -2.0906 -1.4840 -0.4903
12365TIP3   OH258509   0.761   3.411   1.218 -0.0376  0.3645 -0.1743
12365TIP3    H158510   0.837   3.356   1.198  0.1131  1.1579 -1.9748
12365TIP3    H258511   0.685   3.359   1.189 -0.4720 -1.1691  3.1561
12366TIP3   OH258512   1.422   5.388  13.292 -0.2172  0.5219 -0.4355
12366TIP3    H158513   1.485   5.389  13.364 -0.9606 -1.0439  0.2882
12366TIP3    H258514   1.354   5.451  13.318  0.1247  0.8541 -0.3488
12367TIP3   OH258515   2.401   3.030   3.542  0.3538  0.5235 -0.7058
12367TIP3    H158516   2.323   3.037   3.487  0.4990  0.3243 -0.9346
12367TIP3    H258517   2.367   3.042   3.631  0.1955  1.3565 -0.8648
12368TIP3   OH258518   2.304   6.064   0.069  0.4221  0.5368 -0.4021
12368TIP3    H158519   2.290   5.996   0.004  0.4824  0.2799 -0.1469
12368TIP3    H258520   2.380   6.034   0.120  1.0092  1.2116 -0.8511
12369TIP3   OH258521   6.019   5.989  16.924  0.2267  0.7615 -0.4627
12369TIP3    H158522   6.004   5.905  16.882 -0.6437  0.4979  0.3493
12369TIP3    H258523   5.932   6.022  16.946  0.6141 -0.2605  3.3285
12370TIP3   OH258524   5.202   4.001   0.020  0.0234  0.3955 -0.0530
12370TIP3    H158525   5.194   4.037  -0.069  0.8453  2.4515  0.6471
12370TIP3    H258526   5.116   4.016   0.059 -0.6504 -1.3754 -0.7420
12371TIP3   OH258527   0.398   6.707  15.101 -0.3133  0.1727  0.2676
12371TIP3    H158528   0.472   6.752  15.143 -1.5009  0.8312  1.7965
12371TIP3    H258529   0.374   6.764  15.029  0.3144  0.2323  0.0938
12372TIP3   OH258530   3.252   6.185   1.603  0.1706 -0.1731 -0.5205
12372TIP3    H158531   3.205   6.180   1.686  2.0646 -1.1203  0.5734
12372TIP3    H258532   3.246   6.277   1.577  1.0811  0.5809  1.6650
12373TIP3   OH258533   0.126   6.778   0.670 -0.1319 -0.1908 -0.5901
12373TIP3    H158534   0.189   6.758   0.601 -0.4897 -2.1502 -0.3932
12373TIP3    H258535   0.046   6.733   0.645 -1.0806  1.1705 -0.1604
12374TIP3   OH258536   3.681   0.053  10.538  0.5804  0.3592 -0.1765
12374TIP3    H158537   3.638   0.094  10.463  0.9877  0.6201 -0.2682
12374TIP3    H258538   3.610   0.042  10.602 -0.3473 -2.1566 -1.4836
12375TIP3   OH258539   4.942   6.646   4.176  0.1757 -0.9284 -0.1170
12375TIP3    H158540   4.974   6.601   4.254  2.6530 -1.2838 -1.2613
12375TIP3    H258541   4.985   6.731   4.177 -0.9809 -0.3082 -0.3367
12376TIP3   OH258542   4.238   4.540   3.234 -0.3489 -0.1566  0.3433
12376TIP3    H158543   4.142   4.545   3.240 -0.5167 -1.5758 -0.8190
12376TIP3    H258544   4.259   4.450   3.256  0.5516 -0.3658 -1.2309
12377TIP3   OH258545   4.739   3.722  11.818 -0.1219 -0.1871  0.0567
12377TIP3    H158546   4.784   3.767  11.890 -0.1048  1.1112 -0.7320
12377TIP3    H258547   4.648   3.752  11.824  0.0501  0.5700 -0.9308
12378TIP3   OH258548   4.380   3.510   0.474  0.3037  0.2201 -0.0500
12378TIP3    H158549   4.385   3.603   0.497 -3.1002  0.6002 -0.3448
12378TIP3    H258550   4.324   3.506   0.397 -0.0308 -2.1053  0.2160
12379TIP3   OH258551   1.436   4.777   0.811  0.0905 -0.2100  0.0898
12379TIP3    H158552   1.479   4.731   0.883  0.3819  1.7232  1.2142
12379TIP3    H258553   1.508   4.806   0.754 -0.0408 -0.5064 -0.2339
12380TIP3   OH258554   3.488   6.228   5.176  0.1858  0.1982 -0.1350
12380TIP3    H158555   3.569   6.194   5.213  0.6806  1.5446  0.0761
12380TIP3    H258556   3.435   6.252   5.252 -0.4514 -0.6971 -0.2711
12381TIP3   OH258557   6.627   5.068   0.702 -0.0843  0.4568 -0.1732
12381TIP3    H158558   6.595   4.989   0.744  0.6914  0.3350  0.2026
12381TIP3    H258559   6.683   5.037   0.631  1.0125  0.6358  0.5764
12382TIP3   OH258560   0.150   3.794   6.535 -0.2783  0.6845 -0.1011
12382TIP3    H158561   0.245   3.802   6.526 -0.1265 -0.6705  0.0739
12382TIP3    H258562   0.125   3.867   6.592  0.8869  0.1665  1.1502
12383TIP3   OH258563   1.688   3.862  14.398 -0.5415  0.0832 -0.1056
12383TIP3    H158564   1.727   3.806  14.465 -0.6614 -1.8120 -1.5594
12383TIP3    H258565   1.728   3.834  14.316 -1.5360  1.2879 -1.0400
12384TIP3   OH258566   1.180   6.427   2.324 -0.0233  0.4159  0.1643
12384TIP3    H158567   1.110   6.429   2.389  0.9413  0.5311  1.2153
12384TIP3    H258568   1.237   6.355   2.351 -0.7947 -1.0501 -1.8531
12385TIP3   OH258569   4.441   2.498  10.834  0.2753  0.0459 -0.1001
12385TIP3    H158570   4.472   2.437  10.901  2.1011 -1.6863 -2.3457
12385TIP3    H258571   4.348   2.509  10.852  0.8169  0.2211  3.0775
12386TIP3   OH258572   2.040   4.667   1.654 -0.2039 -0.4712  0.3085
12386TIP3    H158573   2.059   4.630   1.741  0.6762 -1.7916 -0.4137
12386TIP3    H258574   1.960   4.622   1.626  0.4448 -1.2790 -0.2572
12387TIP3   OH258575   2.016   6.746   2.088 -0.4124  0.3104 -0.3192
12387TIP3    H158576   2.051   6.685   2.153  0.3644  1.0757  0.0043
12387TIP3    H258577   2.084   6.814   2.080 -1.1313  0.9856 -0.8664
12388TIP3   OH258578   5.989   4.189  11.883  0.3844  0.2310 -0.3460
12388TIP3    H158579   5.996   4.244  11.961  1.8660 -0.5288  0.0922
12388TIP3    H258580   6.041   4.111  11.904 -1.9531 -1.5626 -0.7794
12389TIP3   OH258581   1.126   5.498   5.691  0.0353  0.2302 -0.3104
12389TIP3    H158582   1.084   5.414   5.710  0.9505  0.0953  1.3770
12389TIP3    H258583   1.116   5.510   5.597 -0.5365 -1.5421 -0.5104
12390TIP3   OH258584   1.509   6.636   0.793 -0.4046 -0.4505 -0.1726
12390TIP3    H158585   1.518   6.720   0.839  0.3265 -1.8785  2.4976
12390TIP3    H258586   1.445   6.587   0.845 -1.2652 -1.3681 -2.0212
12391TIP3   OH258587   1.270   0.628  13.444  0.3864  0.0383 -0.0003
12391TIP3    H158588   1.316   0.707  13.418  1.6721 -0.5309  0.4852
12391TIP3    H258589   1.331   0.582  13.501 -1.0602 -0.3787  1.2920
12392TIP3   OH258590   3.737   0.551  14.512 -0.1658 -0.1684 -0.3724
12392TIP3    H158591   3.681   0.523  14.584  1.1937 -2.2673 -0.0410
12392TIP3    H258592   3.709   0.498  14.438  1.7910 -1.9008  0.0031
12393TIP3   OH258593   2.896   1.651  12.327 -0.6544 -0.0940 -0.5449
12393TIP3    H158594   2.926   1.616  12.411  0.6309  0.3041 -0.8205
12393TIP3    H258595   2.929   1.590  12.262  0.2164  0.7455 -0.9088
12394TIP3   OH258596   1.688   1.950   3.744 -0.2507  0.3130  0.2044
12394TIP3    H158597   1.595   1.961   3.761 -0.4877  0.1743 -0.8993
12394TIP3    H258598   1.693   1.937   3.649  0.6963 -1.6743  0.4812
12395TIP3   OH258599   0.252   3.877  11.608  0.3308 -0.1053 -0.0668
12395TIP3    H158600   0.339   3.912  11.628  0.4036  0.6306 -1.5722
12395TIP3    H258601   0.252   3.790  11.650  0.8578  0.8445  2.0327
12396TIP3   OH258602   0.763   2.387  13.905  0.4984  0.4786 -0.2906
12396TIP3    H158603   0.815   2.306  13.900  2.1246  1.4225  0.3534
12396TIP3    H258604   0.681   2.360  13.945  1.2634 -0.7737  0.5290
12397TIP3   OH258605   1.777   1.280  12.679  0.3041 -0.2950  0.0767
12397TIP3    H158606   1.776   1.374  12.693 -1.8091 -0.1495 -0.6374
12397TIP3    H258607   1.854   1.249  12.727  0.8993  1.7380  0.5293
12398TIP3   OH258608   6.293   3.032   0.242 -0.1907 -0.0300  0.2932
12398TIP3    H158609   6.265   2.980   0.317  0.3068 -0.3710  0.2473
12398TIP3    H258610   6.227   3.014   0.175 -0.0300 -0.6001  0.2802
12399TIP3   OH258611   4.720   6.358   1.351 -0.0708  0.5025 -0.0838
12399TIP3    H158612   4.641   6.305   1.367  0.3526 -0.2302 -0.3602
12399TIP3    H258613   4.776   6.341   1.427 -0.7589  2.1712  0.8522
12400TIP3   OH258614   6.418   5.199   1.666  0.1980 -0.7367  0.6323
12400TIP3    H158615   6.506   5.214   1.632 -0.3993  0.2513 -0.5590
12400TIP3    H258616   6.431   5.174   1.757  1.6041  1.6851  1.1539
12401TIP3   OH258617   4.237   5.818   1.517 -0.1702 -0.0462  0.2796
12401TIP3    H158618   4.239   5.776   1.603  1.3432  0.3121  0.4434
12401TIP3    H258619   4.167   5.772   1.469 -0.6505 -0.6228  1.5000
12402TIP3   OH258620   2.301   6.528  16.305  0.3269  0.2389  0.0542
12402TIP3    H158621   2.276   6.474  16.380  1.3990  0.6586  0.7336
12402TIP3    H258622   2.373   6.582  16.337  0.8015  0.4284 -1.2823
12403TIP3   OH258623   6.184   4.081   2.185 -0.5609  0.3708  0.0264
12403TIP3    H158624   6.199   4.065   2.092  0.4269  1.6010 -0.0554
12403TIP3    H258625   6.143   4.168   2.188 -1.2191  0.0530  0.7110
12404TIP3   OH258626   2.474   3.311  12.190  0.0562  0.4220 -0.1500
12404TIP3    H158627   2.439   3.400  12.184  0.4524  0.5963  0.0472
12404TIP3    H258628   2.565   3.323  12.216 -0.4092 -0.1098  1.9033
12405TIP3   OH258629   1.561   1.063   2.899  0.2787 -0.2015 -0.1742
12405TIP3    H158630   1.625   1.012   2.949  0.2960 -1.1983 -1.1803
12405TIP3    H258631   1.538   1.135   2.957  3.2147  0.9276 -0.2115
12406TIP3   OH258632   5.181   2.156   2.853  0.0031  0.5773 -0.3103
12406TIP3    H158633   5.257   2.102   2.828  0.3096 -0.6435  2.7621
12406TIP3    H258634   5.219   2.227   2.906 -0.8746  0.6209  0.2798
12407TIP3   OH258635   3.570   6.693   0.605  0.2097 -0.4316 -0.2989
12407TIP3    H158636   3.527   6.770   0.642  1.3190  0.2065 -0.2790
12407TIP3    H258637   3.507   6.622   0.617 -0.4810  0.2895  0.4889
12408TIP3   OH258638   5.694   2.274   4.171 -0.5332 -0.3695 -0.3907
12408TIP3    H158639   5.658   2.357   4.204 -1.2454 -0.4171 -1.0359
12408TIP3    H258640   5.633   2.207   4.203  1.4060 -1.0096  2.3933
12409TIP3   OH258641   5.225   5.283  15.834  0.2869  0.3203 -0.2149
12409TIP3    H158642   5.219   5.365  15.882  1.6135  0.1219  0.3413
12409TIP3    H258643   5.136   5.248  15.834 -0.0929  1.2645  0.4211
12410TIP3   OH258644   1.085   4.352  10.797  0.7333 -0.5636 -0.4928
12410TIP3    H158645   1.040   4.350  10.713  0.0573 -3.1031 -0.1504
12410TIP3    H258646   1.042   4.284  10.849  2.2202 -0.1854  1.3378
12411TIP3   OH258647   2.292   0.451   5.389 -0.1825  0.1095  0.0639
12411TIP3    H158648   2.254   0.417   5.470 -0.2878 -1.3653 -0.5762
12411TIP3    H258649   2.218   0.457   5.328 -0.0411  0.8648 -0.0412
12412TIP3   OH258650   5.690   5.842  14.842  0.3325  0.2218 -0.2130
12412TIP3    H158651   5.679   5.930  14.806 -0.9235 -0.4067 -1.4883
12412TIP3    H258652   5.781   5.820  14.825  0.8783  1.5615  0.8506
12413TIP3   OH258653   5.375   2.537   5.463 -0.4823  0.0927  0.2360
12413TIP3    H158654   5.469   2.552   5.458 -0.4798 -0.1209 -0.4291
12413TIP3    H258655   5.367   2.447   5.495 -0.4434 -0.3386 -0.9452
12414TIP3   OH258656   1.663   0.466  11.102 -0.3635  0.1604 -0.1893
12414TIP3    H158657   1.695   0.385  11.141 -0.0038 -0.3505 -1.4833
12414TIP3    H258658   1.732   0.494  11.042 -0.8086  1.0057 -0.3331
12415TIP3   OH258659   6.689   0.358   4.585  0.6063  0.3842 -0.1387
12415TIP3    H158660   6.599   0.380   4.610  1.2931  1.7212  1.3262
12415TIP3    H258661   6.718   0.295   4.651  0.9566  0.4508 -0.2265
12416TIP3   OH258662   4.865   3.213  16.945  0.6277  0.7080  0.4328
12416TIP3    H158663   4.811   3.253  16.876  0.5807 -0.5400 -0.2833
12416TIP3    H258664   4.947   3.190  16.901  0.2680 -0.9159  0.5371
12417TIP3   OH258665   2.668   1.988  16.090  0.3310 -0.4353 -0.1463
12417TIP3    H158666   2.663   1.901  16.052  0.2346 -0.8135  0.7088
12417TIP3    H258667   2.743   2.029  16.047 -1.2766  0.0964 -2.6253
12418TIP3   OH258668   0.247   2.285   5.891  0.2032  0.0511 -0.0584
12418TIP3    H158669   0.203   2.211   5.932  1.7252 -0.3953  0.8750
12418TIP3    H258670   0.261   2.347   5.963 -1.2130  1.3645 -0.8616
12419TIP3   OH258671   4.673   1.372   1.933  0.1445 -0.2228 -0.0454
12419TIP3    H158672   4.619   1.425   1.991  0.6437  0.2033  0.0417
12419TIP3    H258673   4.692   1.429   1.859  2.1705  0.4162  0.8682
12420TIP3   OH258674   2.760   6.337   5.550  0.4812  0.0420  0.7898
12420TIP3    H158675   2.825   6.267   5.546  0.4330  0.0245 -2.0001
12420TIP3    H258676   2.808   6.415   5.522 -0.5406  0.0832 -1.0157
12421TIP3   OH258677   0.473   0.572  13.705 -0.1114 -0.2348  0.0004
12421TIP3    H158678   0.497   0.598  13.616  1.3759  0.3116  0.5168
12421TIP3    H258679   0.510   0.485  13.715  1.3013  0.3998  0.6274
12422TIP3   OH258680   1.697   3.404   2.796  0.1236  0.0932 -0.2509
12422TIP3    H158681   1.672   3.423   2.886  0.9408 -1.0120  0.2379
12422TIP3    H258682   1.620   3.363   2.758  0.0707 -0.2552  0.2214
12423TIP3   OH258683   1.462   6.183   2.015  0.4611 -0.0317  0.0407
12423TIP3    H158684   1.498   6.255   2.066  0.9753 -0.0677 -0.2658
12423TIP3    H258685   1.370   6.179   2.040  0.2960  1.0938 -0.3569
12424TIP3   OH258686   2.198   3.767   6.612 -0.6465  0.7421  0.3715
12424TIP3    H158687   2.143   3.793   6.537 -0.4016  1.6683  0.4952
12424TIP3    H258688   2.139   3.719   6.669 -0.9791  0.5113 -0.1549
12425TIP3   OH258689   5.198   5.481  12.972  0.3862 -0.2256 -0.5616
12425TIP3    H158690   5.287   5.461  12.944  0.5199  1.4557 -1.4992
12425TIP3    H258691   5.196   5.460  13.065  2.0221  0.4541 -0.3382
12426TIP3   OH258692   3.773   4.410  12.720  0.2698 -0.2680 -0.3369
12426TIP3    H158693   3.761   4.321  12.753  1.2205 -1.4213 -2.8206
12426TIP3    H258694   3.687   4.435  12.686  0.1883 -0.5914 -0.3746
12427TIP3   OH258695   4.069   1.675  13.415 -0.0649  0.0090  0.4975
12427TIP3    H158696   4.023   1.740  13.469 -0.5051 -2.0631  2.7686
12427TIP3    H258697   4.015   1.597  13.420  0.1599 -0.4658 -2.6467
12428TIP3   OH258698   3.236   5.163   1.309 -0.2171 -0.5436 -0.4422
12428TIP3    H158699   3.148   5.197   1.294 -0.2606  0.6206  1.9652
12428TIP3    H258700   3.269   5.213   1.384  2.5459 -0.8877 -1.3057
12429TIP3   OH258701   3.456   0.130   4.604 -0.5081  0.2915 -0.7807
12429TIP3    H158702   3.539   0.157   4.642  0.3481 -2.1276 -0.7273
12429TIP3    H258703   3.391   0.152   4.670  0.2057  1.3534 -0.4088
12430TIP3   OH258704   3.148   3.832   2.801  0.6070  0.7990  0.5280
12430TIP3    H158705   3.064   3.862   2.837  0.6897  1.2014  0.3861
12430TIP3    H258706   3.124   3.764   2.738  0.2658  2.0204 -0.7131
12431TIP3   OH258707   2.218   3.504  16.685 -0.1700 -0.2733 -0.5262
12431TIP3    H158708   2.275   3.478  16.613  0.0800  0.1964 -0.4996
12431TIP3    H258709   2.277   3.542  16.750 -0.6065  1.0628 -0.8795
12432TIP3   OH258710   1.715   0.158  14.769 -0.3458  0.1466  0.1382
12432TIP3    H158711   1.652   0.186  14.702 -1.1461  0.1160  0.8656
12432TIP3    H258712   1.734   0.067  14.748 -0.6581  0.1113  0.0034
12433TIP3   OH258713   0.850   3.983  16.241 -0.4713 -0.4278 -0.4673
12433TIP3    H158714   0.808   3.902  16.270  0.5187 -0.0148  2.3419
12433TIP3    H258715   0.778   4.046  16.234 -1.1864 -1.3648 -2.2531
12434TIP3   OH258716   5.881   1.460   4.014  0.0565 -0.2220 -0.0787
12434TIP3    H158717   5.934   1.390   4.052 -1.9184 -1.1665  1.0963
12434TIP3    H258718   5.823   1.416   3.952 -2.3768 -0.0337  1.8665
12435TIP3   OH258719   5.278   1.014  12.842  0.7446 -0.1893 -0.6023
12435TIP3    H158720   5.242   0.951  12.903  2.1286  0.7937  1.3283
12435TIP3    H258721   5.207   1.076  12.826  0.5251 -0.1506  0.4601
12436TIP3   OH258722   3.369   2.662  14.079  0.1375 -0.0814  0.6342
12436TIP3    H158723   3.403   2.620  14.000 -1.4700 -0.8260  0.2944
12436TIP3    H258724   3.340   2.748  14.050 -0.2494 -0.2723  0.4412
12437TIP3   OH258725   5.581   2.739   0.319 -0.1790 -0.1345 -0.0990
12437TIP3    H158726   5.624   2.808   0.268 -0.4568 -0.1341 -0.3317
12437TIP3    H258727   5.592   2.766   0.410  0.7485 -0.3768 -0.1260
12438TIP3   OH258728   3.437   3.301   4.062 -0.0293  0.2137  0.5227
12438TIP3    H158729   3.509   3.252   4.100  0.7072  1.1869  0.4219
12438TIP3    H258730   3.421   3.372   4.125 -0.7524  0.1349  0.4355
12439TIP3   OH258731   3.870   5.225   0.260 -0.1560  0.4622 -0.1433
12439TIP3    H158732   3.800   5.162   0.281 -1.3301  1.9631  0.7473
12439TIP3    H258733   3.896   5.205   0.171 -1.4784 -0.3998 -0.3556
12440TIP3   OH258734   6.454   4.979   3.628  0.2024 -0.1975  0.1939
12440TIP3    H158735   6.440   4.886   3.611 -0.6469  0.0130 -0.3240
12440TIP3    H258736   6.530   5.003   3.575 -0.0647 -0.4210 -0.2901
12441TIP3   OH258737   3.308   5.178  14.661  0.2819 -0.3047 -0.5418
12441TIP3    H158738   3.262   5.186  14.578  1.1571 -1.2584 -1.1396
12441TIP3    H258739   3.295   5.086  14.686 -2.3959  0.5442  1.8491
12442TIP3   OH258740   3.788   3.603  16.883  0.6015  0.0450 -0.0358
12442TIP3    H158741   3.699   3.609  16.850  0.1395  0.4421  1.2125
12442TIP3    H258742   3.815   3.694  16.897  0.3282 -0.0991  1.7343
12443TIP3   OH258743   1.217   1.012  14.491 -0.0548  0.2259  0.7530
12443TIP3    H158744   1.133   0.968  14.481  0.1786 -0.2774  0.9329
12443TIP3    H258745   1.208   1.093  14.441 -0.3139 -0.2787 -0.0474
12444TIP3   OH258746   5.382   0.352   5.241 -0.2979 -0.3434  0.2784
12444TIP3    H158747   5.386   0.445   5.219 -1.2483 -0.5965 -1.1275
12444TIP3    H258748   5.441   0.310   5.178  1.4549 -0.5754  1.9793
12445TIP3   OH258749   3.770   1.360  16.813  0.7432 -0.3556 -0.0953
12445TIP3    H158750   3.842   1.297  16.818  1.5316  0.6058  1.8378
12445TIP3    H258751   3.736   1.363  16.903 -0.1909  0.9507 -0.4721
12446TIP3   OH258752   1.258   4.699   2.517  0.5521 -0.3743  0.1679
12446TIP3    H158753   1.249   4.616   2.564 -0.9356  0.7927  2.0939
12446TIP3    H258754   1.273   4.764   2.585 -0.8524  1.3003 -1.0305
12447TIP3   OH258755   0.914   2.069   1.301  0.0880  0.2680 -0.3958
12447TIP3    H158756   0.890   2.119   1.223 -0.1231  1.3827  0.3484
12447TIP3    H258757   0.833   2.025   1.327  0.5600 -1.4830 -1.7360
12448TIP3   OH258758   6.493   4.393  14.790  0.4076  0.3293 -0.1434
12448TIP3    H158759   6.534   4.435  14.867 -0.0056 -0.2447  0.3976
12448TIP3    H258760   6.443   4.463  14.749  0.4514  0.5934  0.2425
12449TIP3   OH258761   1.399   5.726  16.333 -0.1010  0.5350  0.3881
12449TIP3    H158762   1.428   5.669  16.262 -5.1351 -2.5945  0.3559
12449TIP3    H258763   1.358   5.800  16.289 -0.3344  0.2538  0.1254
12450TIP3   OH258764   2.761   1.849  11.786  0.0645 -0.4686  0.2436
12450TIP3    H158765   2.775   1.923  11.728  2.1003 -0.5033  0.6422
12450TIP3    H258766   2.669   1.855  11.811  0.4761  2.7376  1.3732
12451TIP3   OH258767   0.191   4.898  11.706  0.8045 -0.1464  0.4299
12451TIP3    H158768   0.138   4.919  11.782  1.1840  1.6128  0.2505
12451TIP3    H258769   0.275   4.871  11.742  0.7083 -0.1632  0.6448
12452TIP3   OH258770   6.202   6.026   2.584  0.1582  0.0533  0.2225
12452TIP3    H158771   6.186   6.118   2.604  1.0023  0.0331  1.0109
12452TIP3    H258772   6.268   6.028   2.515  0.8595  0.0250  0.8873
12453TIP3   OH258773   2.650   6.079   3.828  0.1951 -0.1915  0.4212
12453TIP3    H158774   2.685   5.990   3.834  1.7575  0.4800  2.0875
12453TIP3    H258775   2.723   6.132   3.796 -0.7642  0.4915 -0.7050
12454TIP3   OH258776   3.508   2.489   6.576 -0.0692 -0.2411 -0.2960
12454TIP3    H158777   3.512   2.401   6.613 -3.7985 -0.2070  0.6038
12454TIP3    H258778   3.457   2.539   6.640  0.9027  2.2854 -1.3690
12455TIP3   OH258779   1.376   2.270  12.757  0.6823 -0.1794 -0.3567
12455TIP3    H158780   1.432   2.226  12.822  0.4427  1.8525  1.3551
12455TIP3    H258781   1.354   2.354  12.798 -1.6110  0.1267 -2.0384
12456TIP3   OH258782   3.891   6.605  10.540  0.4877  0.3257 -0.5346
12456TIP3    H158783   3.813   6.636  10.495  0.2136 -1.9024 -1.7610
12456TIP3    H258784   3.929   6.683  10.580 -2.7871  1.3764  0.8714
12457TIP3   OH258785   5.537   5.977   1.448 -0.6395 -0.2016 -0.1435
12457TIP3    H158786   5.464   5.922   1.418 -0.2094 -0.7499 -0.2003
12457TIP3    H258787   5.567   5.935   1.528 -0.6730  0.2852  0.1279
12458TIP3   OH258788   2.548   3.803   5.289 -0.3393  0.2009  0.2963
12458TIP3    H158789   2.512   3.780   5.203  1.4952  2.2874 -1.1416
12458TIP3    H258790   2.534   3.724   5.342 -3.0988 -0.5574 -1.3364
12459TIP3   OH258791   1.206   1.414   5.300 -0.2218 -0.4538  0.3953
12459TIP3    H158792   1.157   1.489   5.267 -0.0809 -0.7421 -0.4892
12459TIP3    H258793   1.266   1.452   5.365 -1.3966 -0.0699  1.2777
12460TIP3   OH258794   3.219   2.965  12.203  0.4591 -0.5631  0.2127
12460TIP3    H158795   3.283   2.909  12.158 -1.9744 -2.2868 -1.3208
12460TIP3    H258796   3.156   2.989  12.135 -0.5451  1.1011  1.6512
12461TIP3   OH258797   0.638   0.010   4.324  0.1444 -0.4966  0.2790
12461TIP3    H158798   0.615   0.096   4.361 -0.1736 -0.4566 -0.0096
12461TIP3    H258799   0.571  -0.049   4.359 -0.1629 -0.4567 -0.2394
12462TIP3   OH258800   5.087   4.684  16.877  0.4085  0.0054 -0.2146
12462TIP3    H158801   5.162   4.649  16.829  0.5153  0.1367 -0.1429
12462TIP3    H258802   5.052   4.609  16.925  0.8670  0.0812  0.2437
12463TIP3   OH258803   2.169   4.669  13.741  0.2208 -0.3193  0.8169
12463TIP3    H158804   2.186   4.649  13.833 -0.5893  0.8222  1.2398
12463TIP3    H258805   2.105   4.740  13.744  0.8805  0.3676 -0.6255
12464TIP3   OH258806   0.630   1.248  14.502  0.2734  0.2404 -0.4327
12464TIP3    H158807   0.574   1.170  14.504 -1.9295  1.6904  2.0521
12464TIP3    H258808   0.708   1.223  14.550 -0.0466 -0.6933 -0.3816
12465TIP3   OH258809   4.447   4.044   1.001  0.1254  0.2102 -0.0784
12465TIP3    H158810   4.504   4.068   0.929 -0.9242  2.2875 -0.2919
12465TIP3    H258811   4.370   4.100   0.991 -1.3594 -1.5123  0.9770
12466TIP3   OH258812   0.669   4.844  14.713 -0.3739  0.4383 -0.1633
12466TIP3    H158813   0.747   4.839  14.769 -2.7050  0.5998  3.4410
12466TIP3    H258814   0.661   4.938  14.693  0.1438  0.4703 -0.2399
12467TIP3   OH258815   4.156   2.538   1.598  0.2524 -0.6564 -0.1080
12467TIP3    H158816   4.103   2.564   1.524 -0.5674 -1.0754  0.3151
12467TIP3    H258817   4.134   2.445   1.612 -1.7704  0.0547  2.3492
12468TIP3   OH258818   4.786   5.530  11.391  0.2816  0.2490 -0.6456
12468TIP3    H158819   4.730   5.515  11.468  1.5975  1.0698  0.5399
12468TIP3    H258820   4.873   5.544  11.429  1.1795 -0.4083 -2.3885
12469TIP3   OH258821   6.297   1.113  16.763  0.5784 -0.5913 -0.0462
12469TIP3    H158822   6.390   1.129  16.749  0.5273  0.3162  0.5319
12469TIP3    H258823   6.253   1.177  16.708  0.3455  0.5273  1.3647
12470TIP3   OH258824   3.734   3.217   4.672 -0.0182 -0.5496 -0.1930
12470TIP3    H158825   3.761   3.270   4.747 -1.9341 -0.6746  0.6642
12470TIP3    H258826   3.666   3.160   4.707 -0.6033 -0.9632 -1.9182
12471TIP3   OH258827   5.810   1.087  16.246  0.2293 -0.3112 -0.0734
12471TIP3    H158828   5.887   1.134  16.280 -1.0662  1.2287  0.8424
12471TIP3    H258829   5.815   1.097  16.151  0.9987 -0.0049 -0.0102
12472TIP3   OH258830   4.307   2.178   5.230 -0.0408  0.2897  0.0110
12472TIP3    H158831   4.303   2.269   5.262 -0.1044  0.2656  0.0718
12472TIP3    H258832   4.223   2.140   5.256  1.2047 -0.7634  2.8868
12473TIP3   OH258833   0.228   0.253   2.894  0.3272 -0.4373  0.4863
12473TIP3    H158834   0.134   0.271   2.888  0.4472  0.8971  1.9623
12473TIP3    H258835   0.263   0.276   2.808 -0.7492 -1.4753 -0.2675
12474TIP3   OH258836   0.514   1.062  16.451 -0.0793 -0.3642 -0.0290
12474TIP3    H158837   0.467   0.982  16.475 -0.3075 -0.2366 -0.0466
12474TIP3    H258838   0.607   1.039  16.457 -0.1005 -0.1195  1.7846
12475TIP3   OH258839   5.726   0.769  16.020 -0.3931  0.1675 -0.0307
12475TIP3    H158840   5.687   0.709  16.084 -0.7356 -1.1548 -1.4010
12475TIP3    H258841   5.659   0.835  16.005 -1.6003 -1.2635 -1.2748
12476TIP3   OH258842   0.779   1.578  14.226 -0.2130  0.2485  0.4902
12476TIP3    H158843   0.753   1.488  14.209  0.3386  0.1946 -0.1239
12476TIP3    H258844   0.821   1.607  14.145  0.9564  0.5568  1.1664
12477TIP3   OH258845   5.932   4.794  12.300  0.0800  0.2712 -0.0105
12477TIP3    H158846   5.968   4.857  12.239 -1.2752 -0.0897 -1.2398
12477TIP3    H258847   5.840   4.820  12.310 -0.3844 -1.2052 -0.1891
12478TIP3   OH258848   5.028   4.998   0.138 -0.2793 -0.0257 -0.0261
12478TIP3    H158849   4.948   4.992   0.190 -0.4297  0.0284 -0.2492
12478TIP3    H258850   5.006   4.954   0.056 -0.5343  1.2030 -0.6411
12479TIP3   OH258851   1.068   5.144  13.203  0.7350 -0.7258 -0.0882
12479TIP3    H158852   0.983   5.170  13.239  1.2403 -1.5114  1.7450
12479TIP3    H258853   1.055   5.146  13.108 -1.1168 -0.1363  0.1413
12480TIP3   OH258854   1.651   1.314  16.718  0.2317 -0.3499  0.5565
12480TIP3    H158855   1.710   1.239  16.718  0.2793 -0.3122  0.8872
12480TIP3    H258856   1.708   1.390  16.723  0.2149 -0.2618 -0.4370
12481TIP3   OH258857   0.804   2.398  14.283  0.3864 -0.1564 -0.0457
12481TIP3    H158858   0.733   2.445  14.239  1.1156  1.4102  0.3917
12481TIP3    H258859   0.832   2.457  14.353  1.8169 -0.9435  0.0885
12482TIP3   OH258860   6.745   2.769   5.270  0.3188  0.3043  0.2560
12482TIP3    H158861   6.775   2.705   5.204  0.9569  1.3172 -0.4773
12482TIP3    H258862   6.826   2.805   5.306 -0.0356  0.8193  0.5429
12483TIP3   OH258863   0.943   5.580   2.963 -0.4742 -0.1910  0.5027
12483TIP3    H158864   0.969   5.589   3.055 -0.8881  1.6275  0.4796
12483TIP3    H258865   0.870   5.641   2.953  1.3770  1.8328 -1.6792
12484TIP3   OH258866   3.067   3.006  16.707  0.4443  0.8251 -0.5950
12484TIP3    H158867   3.006   3.074  16.679  0.1465  0.4493 -0.8661
12484TIP3    H258868   3.130   3.052  16.762 -0.9642  0.9627  0.9927
12485TIP3   OH258869   1.499   0.911   3.930 -0.5081  0.6855 -0.2366
12485TIP3    H158870   1.415   0.869   3.913 -0.0216  0.3848 -2.0385
12485TIP3    H258871   1.522   0.881   4.018 -2.1152  0.5233  0.1786
12486TIP3   OH258872   3.790   6.111  12.836 -0.2290 -0.3888  0.0268
12486TIP3    H158873   3.843   6.188  12.858 -0.3523 -0.0668 -0.7408
12486TIP3    H258874   3.851   6.037  12.842  0.7876  0.1400 -2.3745
12487TIP3   OH258875   5.018   3.978  15.688 -0.1159 -0.4793  0.5106
12487TIP3    H158876   5.055   3.972  15.600  0.2603  0.0031  0.6345
12487TIP3    H258877   4.934   4.022  15.676 -0.3093 -0.8980  0.3255
12488TIP3   OH258878   0.044   3.175  13.348  0.0114  0.0177  0.1080
12488TIP3    H158879   0.039   3.125  13.266 -1.9034 -0.7248  0.6036
12488TIP3    H258880  -0.006   3.255  13.330  2.0048  1.2212 -0.2887
12489TIP3   OH258881   0.880   0.050   2.125  0.6964 -0.6068 -0.3753
12489TIP3    H158882   0.806   0.021   2.073  3.3477 -3.1455 -3.0929
12489TIP3    H258883   0.869   0.006   2.209 -1.0989 -0.4420 -0.4881
12490TIP3   OH258884   0.810   0.074   4.607 -0.7569 -0.2501  0.0089
12490TIP3    H158885   0.714   0.077   4.607 -0.7445  0.2978 -0.1509
12490TIP3    H258886   0.831  -0.010   4.649 -1.3427 -1.9556 -2.8585
12491TIP3   OH258887   1.763   6.530  12.882  0.0476  0.2649 -0.5752
12491TIP3    H158888   1.733   6.487  12.963 -1.1280  1.2514 -0.4637
12491TIP3    H258889   1.753   6.463  12.814 -0.2455 -0.1411 -0.1388
12492TIP3   OH258890   3.138   1.256   3.702  0.3130  0.1541  0.8989
12492TIP3    H158891   3.102   1.299   3.779  0.6158 -0.8049  1.5956
12492TIP3    H258892   3.233   1.270   3.709  0.4627 -1.0071  1.3946
12493TIP3   OH258893   3.981   5.434  12.399  0.2266 -0.0566  0.5203
12493TIP3    H158894   4.025   5.394  12.323 -0.7151 -1.6277  0.7745
12493TIP3    H258895   3.973   5.526  12.375  0.2694 -0.4528 -1.1582
12494TIP3   OH258896   6.420   1.297  12.837 -0.6913 -0.4138  0.5175
12494TIP3    H158897   6.378   1.276  12.754 -0.8646 -1.7595  0.9229
12494TIP3    H258898   6.415   1.393  12.843 -0.5302 -0.2741 -1.0816
12495TIP3   OH258899   6.594   6.521   5.555 -0.0912 -1.0625 -0.1214
12495TIP3    H158900   6.541   6.586   5.602 -1.0055 -1.2347 -0.8658
12495TIP3    H258901   6.633   6.467   5.624 -0.9040 -0.9282  0.4640
12496TIP3   OH258902   1.896   1.691   2.547 -0.3466  0.3053 -0.2841
12496TIP3    H158903   1.821   1.717   2.601 -0.5654  1.1949 -0.9785
12496TIP3    H258904   1.883   1.598   2.529 -1.7252  0.6212 -1.0430
12497TIP3   OH258905   4.145   2.507   5.931 -0.3664  0.6381 -0.0191
12497TIP3    H158906   4.210   2.576   5.924  0.0947  0.0634 -2.0702
12497TIP3    H258907   4.160   2.467   6.017  1.1602  1.3001  0.0374
12498TIP3   OH258908   3.001   1.319  12.803  0.1486 -0.3447 -0.0462
12498TIP3    H158909   2.966   1.371  12.730  1.4199  1.4422  0.5231
12498TIP3    H258910   3.082   1.365  12.827 -0.4821 -0.5452  2.8165
12499TIP3   OH258911   5.097   4.733   4.501 -0.1657  0.3126  0.6286
12499TIP3    H158912   5.057   4.647   4.490 -0.0662  0.5260 -2.1656
12499TIP3    H258913   5.175   4.717   4.555  0.7120 -1.6954 -1.0726
12500TIP3   OH258914   4.194   4.602  16.277 -0.1013  0.0264  0.0390
12500TIP3    H158915   4.237   4.594  16.191 -1.5734  2.4047 -1.0217
12500TIP3    H258916   4.115   4.549  16.269 -0.4788  0.6165 -0.3033
12501TIP3   OH258917   1.858   1.402  13.269 -0.4444 -0.2412 -0.2249
12501TIP3    H158918   1.944   1.383  13.232  0.7865  0.1401  2.2435
12501TIP3    H258919   1.847   1.337  13.338 -1.6917  0.3716  0.1772
12502TIP3   OH258920   5.752   4.764  12.974 -0.2144  0.4005 -0.0232
12502TIP3    H158921   5.720   4.783  12.886  1.0235 -0.1978 -0.6184
12502TIP3    H258922   5.760   4.849  13.016  0.3093  0.7934 -0.8999
12503TIP3   OH258923   6.699   4.199   4.730  0.1273  0.2035 -0.0314
12503TIP3    H158924   6.683   4.151   4.811  0.2809  0.0861 -0.0683
12503TIP3    H258925   6.696   4.131   4.662  0.6797  0.1878 -0.0481
12504TIP3   OH258926   0.533   4.672   2.927  0.1132  0.1831  0.0416
12504TIP3    H158927   0.593   4.598   2.929 -1.3021 -1.1039 -1.8943
12504TIP3    H258928   0.449   4.637   2.956 -0.6463  0.9297 -1.1581
12505TIP3   OH258929   5.615   5.922   0.164  0.1017 -0.4254  0.2907
12505TIP3    H158930   5.677   5.988   0.133  1.7671 -1.3284  1.5183
12505TIP3    H258931   5.539   5.932   0.108  1.8291 -0.0930 -2.1620
12506TIP3   OH258932   0.842   0.323  12.206  0.0167  0.5080 -0.5685
12506TIP3    H158933   0.929   0.286  12.217 -0.0281  0.6126  0.1912
12506TIP3    H258934   0.819   0.358  12.292  0.5649  3.4169 -1.4696
12507TIP3   OH258935   0.109   5.794  11.092 -0.0360  0.2249  0.2180
12507TIP3    H158936   0.088   5.711  11.134 -2.3614  0.2233 -0.7779
12507TIP3    H258937   0.086   5.781  11.000 -2.7963  2.6436  0.4242
12508TIP3   OH258938   1.650   4.893  15.929  0.3768  0.1032 -0.0155
12508TIP3    H158939   1.605   4.902  16.013  2.5934 -1.4499  1.4558
12508TIP3    H258940   1.620   4.809  15.895 -0.6768  0.8226 -0.9624
12509TIP3   OH258941   6.441   0.488   2.776  0.0754 -0.4006 -0.2110
12509TIP3    H158942   6.463   0.395   2.786 -0.3164 -0.6166 -1.2349
12509TIP3    H258943   6.382   0.507   2.849 -1.5821 -1.5355 -1.1863
12510TIP3   OH258944   5.884   5.045   5.309  0.0583  0.2541 -0.2981
12510TIP3    H158945   5.971   5.082   5.321  0.1134  0.0468 -0.0688
12510TIP3    H258946   5.899   4.951   5.299 -0.0837  0.2879 -0.8636
12511TIP3   OH258947   4.037   5.122  12.303 -0.6324  0.1061  0.4486
12511TIP3    H158948   4.025   5.055  12.236  1.1183  0.9840 -0.8277
12511TIP3    H258949   3.975   5.191  12.280 -1.4281 -0.4386  0.9248
12512TIP3   OH258950   5.544   6.342  14.791  0.4165  0.2380  0.2821
12512TIP3    H158951   5.539   6.377  14.702 -0.8203  0.9324  0.5931
12512TIP3    H258952   5.517   6.415  14.847  0.0383 -0.5338  1.1293
12513TIP3   OH258953   0.183   0.415   1.971 -0.5206 -0.4185  0.5334
12513TIP3    H158954   0.138   0.351   1.917  1.8065  1.4242 -4.1453
12513TIP3    H258955   0.130   0.495   1.964 -0.8996 -0.4708  2.2917
12514TIP3   OH258956   4.448   6.290  15.064  0.1948  0.5911  0.0050
12514TIP3    H158957   4.466   6.364  15.123  0.4707 -1.6008  2.8694
12514TIP3    H258958   4.353   6.281  15.065  0.2343  0.1398  0.7430
12515TIP3   OH258959   1.083   1.303   2.315  0.1837  0.6806  0.4313
12515TIP3    H158960   1.125   1.249   2.248 -0.7319  0.2064  0.2113
12515TIP3    H258961   1.103   1.260   2.398  0.5903  0.7727  0.3803
12516TIP3   OH258962   5.727   2.601   5.796  0.5500  0.2639  0.0663
12516TIP3    H158963   5.637   2.617   5.771  0.8260  0.6308 -0.7237
12516TIP3    H258964   5.736   2.506   5.795  0.3193  0.2461 -0.4066
12517TIP3   OH258965   6.124   2.350  14.646  0.4007 -0.0608  0.1884
12517TIP3    H158966   6.188   2.338  14.717 -0.8323  1.1176  1.5675
12517TIP3    H258967   6.154   2.291  14.577  2.0909 -0.6895  1.3790
12518TIP3   OH258968   4.690   4.945   2.684  0.1463 -0.2436  0.2674
12518TIP3    H158969   4.651   4.863   2.711  0.7905 -0.8301 -0.5216
12518TIP3    H258970   4.773   4.920   2.643  0.0506  0.7333 -0.5792
12519TIP3   OH258971   2.385   2.740   2.275  0.0375 -0.2155 -0.5200
12519TIP3    H158972   2.373   2.835   2.279 -1.6199 -0.3524 -1.2910
12519TIP3    H258973   2.364   2.710   2.363  0.1536  0.0876 -0.3865
12520TIP3   OH258974   5.407   2.134  16.570  0.4542  0.1214 -0.3623
12520TIP3    H158975   5.428   2.227  16.562 -1.1269  0.6774  1.2545
12520TIP3    H258976   5.311   2.131  16.570  0.3952 -1.1548  2.5069
12521TIP3   OH258977   4.618   4.171   3.811  0.1653  0.5046 -0.7407
12521TIP3    H158978   4.563   4.244   3.782  0.9502  1.3538 -0.1693
12521TIP3    H258979   4.706   4.210   3.819  0.3650 -0.1959  0.7308
12522TIP3   OH258980   1.263   1.965   4.405  0.3610  0.1107  0.0522
12522TIP3    H158981   1.337   1.985   4.462 -0.0086  1.9594 -0.0364
12522TIP3    H258982   1.263   1.870   4.398  3.7158  0.0810 -1.2742
12523TIP3   OH258983   1.735   3.778  13.002  0.1108 -0.1836 -0.2897
12523TIP3    H158984   1.649   3.795  13.042 -0.2292  1.3957 -1.5588
12523TIP3    H258985   1.771   3.866  12.987  1.8732 -0.8306  0.0326
12524TIP3   OH258986   6.459   3.018   4.399 -0.7162  0.4702  0.2300
12524TIP3    H158987   6.520   3.007   4.326 -2.1938  0.2333 -1.0258
12524TIP3    H258988   6.444   2.929   4.432 -0.5225  0.5094  0.4267
12525TIP3   OH258989   0.056   6.153   4.725  0.3761  0.0690 -0.3146
12525TIP3    H158990  -0.031   6.176   4.693  0.1681 -0.2367  0.0239
12525TIP3    H258991   0.108   6.139   4.645 -0.4866 -2.0088 -0.5864
12526TIP3   OH258992   6.597   0.351   6.375  0.0692 -0.1433  0.3292
12526TIP3    H158993   6.574   0.285   6.310  1.3137 -1.9479  1.6215
12526TIP3    H258994   6.521   0.354   6.434  0.1450 -0.7390  0.4706
12527TIP3   OH258995   2.823   2.006   3.925  0.4311 -0.1337  0.2947
12527TIP3    H158996   2.910   2.013   3.886 -0.3998  0.0865 -1.6094
12527TIP3    H258997   2.787   1.925   3.890 -0.6491  0.4672 -0.0238
12528TIP3   OH258998   1.161   3.728   4.921 -0.6028  0.4483  0.0981
12528TIP3    H158999   1.172   3.635   4.943 -0.9361  0.2105 -0.7171
12528TIP3    H259000   1.078   3.752   4.960 -1.2004  0.0230 -0.8790
12529TIP3   OH259001   4.416   0.558   3.022 -0.2030  0.0918  0.5464
12529TIP3    H159002   4.325   0.533   3.003 -0.1883  1.0047 -0.8742
12529TIP3    H259003   4.409   0.636   3.078 -0.2977  0.0460  0.5975
12530TIP3   OH259004   2.605   0.244  12.734  0.6384 -0.1495 -0.3306
12530TIP3    H159005   2.617   0.200  12.818  2.6201  0.2732 -0.3377
12530TIP3    H259006   2.595   0.172  12.671  0.0036 -0.4807  0.1265
12531TIP3   OH259007   1.080   1.674  12.381 -0.3670 -0.4331 -0.2791
12531TIP3    H159008   1.081   1.734  12.306 -3.4508  0.5480  0.3118
12531TIP3    H259009   1.053   1.729  12.455 -1.0925 -2.0807  0.7370
12532TIP3   OH259010   3.286   2.449   2.087  0.0490  0.3750 -0.0648
12532TIP3    H159011   3.368   2.409   2.059  0.4015  0.8507  0.2649
12532TIP3    H259012   3.258   2.397   2.162 -0.6181 -0.5696 -0.9394
12533TIP3   OH259013   5.267   3.884  16.141  0.2345  0.1570 -0.6801
12533TIP3    H159014   5.361   3.865  16.144 -0.1612 -1.9490  0.1416
12533TIP3    H259015   5.253   3.946  16.213  1.1040  1.1938 -1.3751
12534TIP3   OH259016   3.515   0.802   2.459 -0.0650 -0.4517  0.0079
12534TIP3    H159017   3.445   0.759   2.411 -2.5696  1.1696  1.9486
12534TIP3    H259018   3.524   0.887   2.417  0.3253 -0.4168  0.1596
12535TIP3   OH259019   2.863   6.047   5.866  0.0979 -0.6779 -0.2203
12535TIP3    H159020   2.934   6.090   5.913  0.5354 -1.8003  0.1723
12535TIP3    H259021   2.895   6.041   5.776  1.2490 -2.6566  0.2670
12536TIP3   OH259022   3.160   4.704   5.506 -0.2982  0.1957  0.1671
12536TIP3    H159023   3.178   4.716   5.599 -0.1935  0.6052  0.0967
12536TIP3    H259024   3.067   4.724   5.496 -0.8170 -1.7871  0.5077
12537TIP3   OH259025   0.265   5.388   4.870 -0.1936  0.5119  0.8314
12537TIP3    H159026   0.350   5.406   4.830 -1.6122  3.0417 -1.3546
12537TIP3    H259027   0.273   5.424   4.958  1.1214  0.2842  0.8361
12538TIP3   OH259028   5.457   6.450  16.312 -0.3991  0.1871  0.2698
12538TIP3    H159029   5.381   6.480  16.364  0.8936  1.5225  1.4949
12538TIP3    H259030   5.457   6.507  16.235 -0.3162  0.5838  0.5578
12539TIP3   OH259031   4.084   4.793  14.266 -0.4691 -0.1754 -0.2459
12539TIP3    H159032   4.020   4.858  14.294 -0.3193 -0.7871  1.6720
12539TIP3    H259033   4.168   4.829  14.293 -0.2285 -0.4458 -0.6260
12540TIP3   OH259034   1.150   6.389   0.766  0.2418  0.4056  0.0897
12540TIP3    H159035   1.238   6.416   0.737 -0.7613 -0.2278 -4.3895
12540TIP3    H259036   1.158   6.296   0.784  0.6399  0.5296  0.5798
12541TIP3   OH259037   5.406   5.179   5.749 -0.9328  0.4475 -0.0198
12541TIP3    H159038   5.454   5.135   5.819 -1.6975 -1.0703 -0.3929
12541TIP3    H259039   5.418   5.272   5.765  1.1274  0.1101  0.5623
12542TIP3   OH259040   1.644   6.079  11.511  0.1400 -0.0036  0.2236
12542TIP3    H159041   1.570   6.129  11.476  0.7757 -0.3654 -1.8119
12542TIP3    H259042   1.609   5.993  11.531 -0.3467  0.3563  0.9246
12543TIP3   OH259043   4.759   6.763   1.350 -0.0695  0.1846  0.2115
12543TIP3    H159044   4.807   6.740   1.271 -0.7797  0.4344 -0.2990
12543TIP3    H259045   4.775   6.690   1.410  0.1752 -0.1733 -0.2851
12544TIP3   OH259046   0.149   2.540   0.988  0.6276 -0.0705 -0.1323
12544TIP3    H159047   0.077   2.602   0.974  0.9722  0.3300 -0.1471
12544TIP3    H259048   0.176   2.555   1.079 -0.2161 -1.1918  0.3292
12545TIP3   OH259049   2.268   3.721   2.877  0.7864 -0.1189  0.5701
12545TIP3    H159050   2.236   3.773   2.951 -1.2489 -0.5833  0.0737
12545TIP3    H259051   2.214   3.749   2.803  1.4954 -1.0198 -0.3078
12546TIP3   OH259052   2.941   2.734   6.432 -0.6977  0.2387  0.2003
12546TIP3    H159053   2.873   2.741   6.499  1.1153  0.1542  2.1475
12546TIP3    H259054   3.009   2.796   6.460  0.4350 -0.3448 -1.1568
12547TIP3   OH259055   2.583   0.764  14.355 -0.2181 -0.4761  0.0756
12547TIP3    H159056   2.565   0.853  14.387 -1.6104 -0.6473 -0.1729
12547TIP3    H259057   2.552   0.707  14.425 -1.2775 -0.8046 -0.6484
12548TIP3   OH259058   4.222   5.430   2.386  0.0718  0.3346  0.4634
12548TIP3    H159059   4.157   5.416   2.455  0.4926 -0.4934  0.6992
12548TIP3    H259060   4.183   5.498   2.331 -0.4584  0.6987  1.2706
12549TIP3   OH259061   0.324   4.939  17.146 -0.0309 -0.5396 -0.4797
12549TIP3    H159062   0.343   4.937  17.239 -0.2401 -0.4738 -0.4340
12549TIP3    H259063   0.338   5.030  17.120  1.2587 -0.8122 -0.7805
12550TIP3   OH259064   4.312   4.884  14.395  0.4600 -0.1392 -0.6074
12550TIP3    H159065   4.393   4.871  14.443  0.2338 -1.2635 -0.5100
12550TIP3    H259066   4.250   4.822  14.433  0.1029 -0.6437 -1.9408
12551TIP3   OH259067   0.342   4.598  15.310 -0.0180  0.0099 -0.3284
12551TIP3    H159068   0.372   4.689  15.308 -1.8475  0.6430 -0.1976
12551TIP3    H259069   0.293   4.590  15.391 -1.1644 -0.6567 -1.0520
12552TIP3   OH259070   2.203   2.592   0.653 -0.2022  0.2465  0.3040
12552TIP3    H159071   2.139   2.625   0.590  1.5812 -0.5026 -2.0360
12552TIP3    H259072   2.286   2.631   0.625  0.9603 -1.5432  1.0866
12553TIP3   OH259073   2.892   2.951   1.176 -0.2013  0.1767  0.3507
12553TIP3    H159074   2.896   2.925   1.268 -0.1527 -0.7054  0.1033
12553TIP3    H259075   2.835   3.029   1.176 -2.0170 -1.0808  0.8631
12554TIP3   OH259076   6.203   2.538  16.598 -0.1920 -0.0754 -0.2225
12554TIP3    H159077   6.146   2.560  16.524 -1.1958  1.1674  0.8627
12554TIP3    H259078   6.178   2.449  16.621 -0.2239 -0.2919 -1.0550
12555TIP3   OH259079   1.369   0.401  11.954  0.6254 -0.3358  0.6758
12555TIP3    H159080   1.300   0.337  11.934  1.6856 -0.4865 -3.3651
12555TIP3    H259081   1.410   0.419  11.869  1.2138  4.8564  1.7497
12556TIP3   OH259082   0.956   0.893   6.224 -0.2794 -0.8142 -0.2106
12556TIP3    H159083   1.035   0.935   6.259 -0.5645 -0.3071 -0.1594
12556TIP3    H259084   0.884   0.936   6.271 -0.5952 -1.1048 -0.4270
12557TIP3   OH259085   2.831   3.683   2.502 -0.1063  0.2210 -0.0553
12557TIP3    H159086   2.853   3.643   2.418  2.4445  0.1612  0.5900
12557TIP3    H259087   2.901   3.657   2.561 -1.5340  0.7407  1.9790
12558TIP3   OH259088   0.648   3.375   6.245  0.0618  0.1836  0.4980
12558TIP3    H159089   0.564   3.419   6.229 -0.5989 -1.1476  0.1994
12558TIP3    H259090   0.647   3.300   6.186  1.4063  0.0564  0.6094
12559TIP3   OH259091   5.131   2.605   2.167  0.5352 -0.3764  0.4161
12559TIP3    H159092   5.078   2.526   2.161 -0.7449  0.5492 -1.7879
12559TIP3    H259093   5.087   2.659   2.233 -0.0050 -0.5289  0.1883
12560TIP3   OH259094   2.290   4.459  12.713 -0.3865  0.1587  0.1616
12560TIP3    H159095   2.269   4.381  12.663  0.4079 -1.8184  2.6927
12560TIP3    H259096   2.205   4.499  12.733 -0.9010 -0.8363  0.0098
12561TIP3   OH259097   1.585   3.208   1.250 -0.0273  0.6056 -0.1211
12561TIP3    H159098   1.497   3.171   1.256 -0.3486  1.5035  1.2544
12561TIP3    H259099   1.572   3.302   1.261  1.1645  0.6765  0.9021
12562TIP3   OH259100   0.780   5.713   3.138  0.2035 -0.1801 -0.0287
12562TIP3    H159101   0.740   5.720   3.225  0.4632  2.2796 -0.0466
12562TIP3    H259102   0.874   5.724   3.154  0.1120  2.1848 -0.7319
12563TIP3   OH259103   1.350   0.771   3.399 -0.2129  0.1863 -0.2735
12563TIP3    H159104   1.367   0.814   3.315  1.3100 -2.0227 -1.2038
12563TIP3    H259105   1.261   0.736   3.391 -1.5325  3.0890  0.5566
12564TIP3   OH259106   5.799   4.505  17.046 -0.3236  0.3982  0.5039
12564TIP3    H159107   5.718   4.481  17.001  0.6921 -0.2430 -1.0295
12564TIP3    H259108   5.807   4.599  17.032 -2.3308  1.1203  3.2893
12565TIP3   OH259109   1.114   0.964   1.460  0.4754  0.7427 -0.3063
12565TIP3    H159110   1.084   1.033   1.400 -0.8364 -1.6189 -2.6065
12565TIP3    H259111   1.188   0.924   1.414  1.4512  0.8093  1.1622
12566TIP3   OH259112   5.990   2.670   4.611  0.2849 -0.3732 -0.1026
12566TIP3    H159113   6.006   2.729   4.537  0.7423 -0.2891  0.0580
12566TIP3    H259114   5.969   2.586   4.570 -0.2471 -0.1333 -0.3309
12567TIP3   OH259115   2.235   1.233   4.663 -0.4806  0.0071  0.6936
12567TIP3    H159116   2.185   1.292   4.720 -1.0823 -1.1501  1.3933
12567TIP3    H259117   2.270   1.167   4.721 -1.0172 -1.1481 -0.2458
12568TIP3   OH259118   6.654   4.939   6.115 -0.1378  0.7453 -0.4981
12568TIP3    H159119   6.600   4.997   6.169 -0.5028 -0.4160  0.4213
12568TIP3    H259120   6.609   4.855   6.118  2.0374 -0.4772  0.8772
12569TIP3   OH259121   0.853   0.454  11.925  0.1274 -0.1251  0.2038
12569TIP3    H159122   0.867   0.451  11.830 -0.0954 -0.9190  0.1858
12569TIP3    H259123   0.874   0.544  11.950 -0.5527  0.3000 -0.7143
12570TIP3   OH259124   3.789   2.401  13.067 -0.3424  0.1671  0.8739
12570TIP3    H159125   3.740   2.473  13.108  0.6095  1.4160 -0.0841
12570TIP3    H259126   3.789   2.423  12.974  0.9995 -0.4364  0.7198
12571TIP3   OH259127   5.722   0.019  12.511  0.3149  0.3547  0.0854
12571TIP3    H159128   5.724  -0.024  12.597  0.9634 -1.6749 -0.8760
12571TIP3    H259129   5.728   0.112  12.531 -1.8750  0.1295  2.3254
12572TIP3   OH259130   2.356   4.061  15.780 -0.1697  0.0147  0.1849
12572TIP3    H159131   2.406   4.016  15.848 -0.5204 -1.2573 -0.3729
12572TIP3    H259132   2.408   4.050  15.700 -1.8393 -2.3612 -0.6581
12573TIP3   OH259133   1.004   3.999   5.734  0.8050  0.4251  0.7030
12573TIP3    H159134   1.058   3.952   5.797  0.6474  0.9422  1.2413
12573TIP3    H259135   1.023   4.092   5.752  0.4149  0.5838  0.2965
12574TIP3   OH259136   5.225   5.437   6.396 -0.2407  0.4730  0.0990
12574TIP3    H159137   5.262   5.353   6.421  0.5144  0.5414 -0.7419
12574TIP3    H259138   5.170   5.417   6.319  0.5534  0.8563 -0.5778
12575TIP3   OH259139   0.691   3.411  11.673  0.1211  0.0314  0.1195
12575TIP3    H159140   0.759   3.438  11.734  0.7832 -0.8355 -0.2069
12575TIP3    H259141   0.679   3.485  11.614  1.0213  0.0779 -0.0137
12576TIP3   OH259142   6.512   0.570  13.427 -0.2226 -0.2005 -0.3242
12576TIP3    H159143   6.598   0.540  13.398  0.6190  2.7709 -1.2472
12576TIP3    H259144   6.519   0.572  13.522  1.3954  1.5199 -0.4110
12577TIP3   OH259145   3.591   3.192   3.034  0.0993 -0.4285  0.0645
12577TIP3    H159146   3.669   3.226   3.079 -0.1270  0.6798 -0.3703
12577TIP3    H259147   3.529   3.173   3.104  0.4802 -0.6048  0.3581
12578TIP3   OH259148   0.716   6.436   5.931 -0.0001  0.6261 -0.5237
12578TIP3    H159149   0.764   6.496   5.987  1.5233  0.7901 -1.9151
12578TIP3    H259150   0.662   6.384   5.991  1.4835  0.8343  1.0610
12579TIP3   OH259151   4.405   3.792  13.375 -0.3225  0.1767 -0.0217
12579TIP3    H159152   4.443   3.742  13.303 -1.8674 -2.1357  0.6730
12579TIP3    H259153   4.374   3.873  13.334  1.6583  0.3761 -1.3013
12580TIP3   OH259154   2.123   3.003   3.188 -0.1848 -0.6419 -0.2000
12580TIP3    H159155   2.191   2.945   3.221  2.4038  1.4633 -1.4634
12580TIP3    H259156   2.157   3.036   3.105 -3.0634  0.0699 -1.2221
12581TIP3   OH259157   1.869   5.445  11.162 -0.2459  0.1743 -0.4569
12581TIP3    H159158   1.927   5.370  11.150 -2.9413 -1.9163 -1.6333
12581TIP3    H259159   1.872   5.491  11.078  0.3043  0.5402 -0.2387
12582TIP3   OH259160   5.052   1.610   1.083  0.0158  0.0888 -0.1280
12582TIP3    H159161   5.037   1.521   1.051  0.9224  0.2869 -1.1517
12582TIP3    H259162   5.108   1.651   1.017 -0.2480  1.3737  0.4067
12583TIP3   OH259163   1.161   3.881   4.668  0.6182  0.3373  0.0127
12583TIP3    H159164   1.212   3.959   4.691 -0.0357  0.8572 -0.2666
12583TIP3    H259165   1.166   3.826   4.746  0.2896  1.0869  0.5745
12584TIP3   OH259166   1.906   2.631   3.381 -0.2554  0.2580 -0.6866
12584TIP3    H159167   1.863   2.579   3.449 -1.7820  1.6271 -0.5450
12584TIP3    H259168   1.889   2.583   3.300 -2.4354  0.9311 -0.6807
12585TIP3   OH259169   2.954   4.646  16.101 -0.3582  0.3508  0.8016
12585TIP3    H159170   2.897   4.707  16.148  0.3427  0.8037  1.0663
12585TIP3    H259171   3.041   4.684  16.106 -0.0643 -0.2004  0.1588
12586TIP3   OH259172   1.578   5.220   4.969 -0.6675  0.6845 -0.0070
12586TIP3    H159173   1.505   5.167   5.002 -1.8193  1.9174 -0.5013
12586TIP3    H259174   1.623   5.251   5.048  0.4782 -1.5412  0.3107
12587TIP3   OH259175   3.281   3.574   4.531 -0.4035  0.2674  0.0948
12587TIP3    H159176   3.285   3.576   4.436 -0.4147  1.3430  0.0986
12587TIP3    H259177   3.319   3.490   4.556  0.0191  0.1747 -0.8399
12588TIP3   OH259178   5.132   2.760  14.512  0.3363  0.2773  0.8132
12588TIP3    H159179   5.068   2.831  14.505 -0.8540 -0.7701  0.6730
12588TIP3    H259180   5.151   2.754  14.605  2.2974  2.3260  0.6083
12589TIP3   OH259181   1.418   3.957  14.410  0.0503  0.8043  0.1012
12589TIP3    H159182   1.501   3.911  14.397  0.3280  1.6612 -1.3735
12589TIP3    H259183   1.430   4.007  14.490  1.1804  1.3703 -0.4038
12590TIP3   OH259184   4.348   0.351   3.575 -0.0223 -0.2723 -0.1464
12590TIP3    H159185   4.370   0.419   3.639 -1.5534 -1.1048  1.3610
12590TIP3    H259186   4.430   0.303   3.561  1.5513  2.7763 -2.5439
12591TIP3   OH259187   1.655   4.719   1.301 -0.4509  0.1153  0.0289
12591TIP3    H159188   1.743   4.756   1.295 -0.0563 -0.7870  0.0820
12591TIP3    H259189   1.604   4.784   1.349  0.5069  0.0936  1.1092
12592TIP3   OH259190   1.315   0.278   4.547  0.0458  0.3973  0.8043
12592TIP3    H159191   1.233   0.237   4.573 -0.6189  0.3116 -1.2265
12592TIP3    H259192   1.383   0.225   4.589 -0.9055 -0.1312  1.7041
12593TIP3   OH259193   2.660   4.330  14.384 -0.1260 -0.4674 -0.1364
12593TIP3    H159194   2.749   4.366  14.383 -1.0590  2.2154  1.5648
12593TIP3    H259195   2.604   4.404  14.360 -1.9550 -2.0276 -0.9223
12594TIP3   OH259196   4.958   3.456  14.717 -0.2291 -0.2395  0.1432
12594TIP3    H159197   4.889   3.494  14.663  0.1207  1.1221  0.6335
12594TIP3    H259198   4.934   3.364  14.725 -2.8098  0.4868  1.5339
12595TIP3   OH259199   2.089   0.201  14.761 -0.2656  0.4892  0.3804
12595TIP3    H159200   2.173   0.157  14.745 -0.7483 -0.5151  0.5555
12595TIP3    H259201   2.087   0.214  14.856 -0.2112  0.7108  0.3513
12596TIP3   OH259202   2.975   3.258   0.952  0.0815 -0.0204 -0.5167
12596TIP3    H159203   3.009   3.303   1.029  0.5180  0.4612 -0.9871
12596TIP3    H259204   3.028   3.291   0.879  0.0882 -0.9322 -0.9392
12597TIP3   OH259205   4.969   5.004   6.000 -0.2811  0.3489  0.5366
12597TIP3    H159206   4.883   5.000   6.043  0.6672 -0.2331  2.4866
12597TIP3    H259207   4.984   5.097   5.984 -0.6313  0.6006  1.5879
12598TIP3   OH259208   3.869   6.733   1.900  0.1988  0.3387  0.5756
12598TIP3    H159209   3.894   6.724   1.808  2.9686 -1.4253  1.3875
12598TIP3    H259210   3.773   6.737   1.898  0.1502  0.0175 -2.3367
12599TIP3   OH259211   0.675   6.129   1.007 -0.7315 -0.2942  0.0540
12599TIP3    H159212   0.739   6.058   1.013 -0.0758 -0.0872 -2.6879
12599TIP3    H259213   0.590   6.088   1.023 -0.1897 -1.2675  0.4868
12600TIP3   OH259214   3.890   6.232   3.153  0.1643 -0.6653  0.3234
12600TIP3    H159215   3.962   6.235   3.216 -0.3410 -2.6788  1.0775
12600TIP3    H259216   3.926   6.185   3.078  0.7458  1.6741 -0.9631
12601TIP3   OH259217   3.347   2.564   1.081 -0.5756  0.2897  0.1210
12601TIP3    H159218   3.370   2.471   1.078 -1.3889  0.0892  0.0666
12601TIP3    H259219   3.258   2.568   1.046 -1.4903  0.7857  2.3589
12602TIP3   OH259220   5.578   4.265  14.420  0.6370 -0.3240 -0.7707
12602TIP3    H159221   5.664   4.275  14.461 -0.2604 -0.3010  1.2040
12602TIP3    H259222   5.551   4.354  14.398 -0.4893  0.1627  2.1776
12603TIP3   OH259223   0.082   1.939   5.959 -0.8582  0.2580 -0.1299
12603TIP3    H159224   0.074   1.963   6.052 -1.2867  0.0373 -0.1075
12603TIP3    H259225   0.175   1.921   5.948 -0.9740 -0.9224  0.5743
12604TIP3   OH259226   1.876   1.636  13.558 -0.0752  0.2192 -0.2936
12604TIP3    H159227   1.933   1.616  13.484  0.9008 -0.2953  0.5692
12604TIP3    H259228   1.843   1.551  13.586 -3.2004  0.6480 -2.1999
12605TIP3   OH259229   2.869   6.169   5.226 -0.4013 -0.1964 -0.1954
12605TIP3    H159230   2.779   6.135   5.228 -0.2023 -0.7910  2.0309
12605TIP3    H259231   2.924   6.091   5.239  0.4105  0.2611 -0.8075
12606TIP3   OH259232   0.314   1.753  13.770  0.0061  0.8934 -0.5429
12606TIP3    H159233   0.372   1.702  13.714 -0.3770  2.2124 -2.2007
12606TIP3    H259234   0.373   1.808  13.822  0.2994  2.3631 -2.3505
12607TIP3   OH259235   0.989   5.175  10.597  0.3753 -0.6040  0.1319
12607TIP3    H159236   0.973   5.109  10.664  0.4146 -1.0939 -0.3366
12607TIP3    H259237   1.012   5.125  10.519 -0.7980 -0.0808 -0.5702
12608TIP3   OH259238   0.762   4.370  14.326  0.4842  0.0159 -0.4524
12608TIP3    H159239   0.721   4.455  14.307 -0.2070 -0.2813 -0.3451
12608TIP3    H259240   0.831   4.362  14.261 -1.1657 -0.5259 -2.2416
12609TIP3   OH259241   1.775   6.465   2.575  0.5225  0.0190  0.5041
12609TIP3    H159242   1.814   6.473   2.488 -2.0283 -3.0555 -1.1463
12609TIP3    H259243   1.849   6.455   2.634  2.3027 -0.4933 -1.6668
12610TIP3   OH259244   0.551   1.673   3.051  0.4050  0.0673 -0.3872
12610TIP3    H159245   0.528   1.690   2.959 -0.7471 -0.1261 -0.1517
12610TIP3    H259246   0.505   1.740   3.100 -1.6468 -1.7134  0.2879
12611TIP3   OH259247   5.193   4.099  16.915  0.3069  0.2994  0.2019
12611TIP3    H159248   5.132   4.160  16.874  0.1223  1.0744  1.5847
12611TIP3    H259249   5.255   4.077  16.845 -0.3867  1.0446 -0.6712
12612TIP3   OH259250   2.600   3.171   3.403  0.4758 -0.7990  0.1983
12612TIP3    H159251   2.520   3.126   3.430  1.4295 -1.3807  2.2597
12612TIP3    H259252   2.660   3.102   3.377  0.7173 -0.4459 -0.2102
12613TIP3   OH259253   3.387   1.911   2.668 -0.1119 -0.4269 -0.1424
12613TIP3    H159254   3.430   1.927   2.752 -1.3067  0.0933  0.4004
12613TIP3    H259255   3.323   1.842   2.685 -1.2506  0.5479 -0.2774
12614TIP3   OH259256   3.753   6.198  13.838 -0.0627 -0.1081 -0.1608
12614TIP3    H159257   3.847   6.203  13.856 -0.2900  0.6403  0.9185
12614TIP3    H259258   3.717   6.275  13.882 -1.3086 -0.8932  0.2109
12615TIP3   OH259259   3.612   3.899   2.287  0.0777 -0.9366 -0.0657
12615TIP3    H159260   3.679   3.940   2.233  1.6494 -1.6328  1.2700
12615TIP3    H259261   3.611   3.949   2.368  1.3382 -2.8188  1.2035
12616TIP3   OH259262   1.691   6.355   3.622 -0.8323  0.2902  0.3034
12616TIP3    H159263   1.645   6.322   3.545 -1.1492  0.2706  0.4999
12616TIP3    H259264   1.700   6.279   3.680 -0.0215  0.1555  0.0148
12617TIP3   OH259265   6.706   5.873   5.317  0.2130  0.1906 -1.4802
12617TIP3    H159266   6.722   5.967   5.312  0.1837  0.4000  1.0453
12617TIP3    H259267   6.786   5.834   5.280  2.3926  1.2710  1.6543
12618TIP3   OH259268   0.088   3.318  11.543  0.2745  0.3871 -0.3684
12618TIP3    H159269   0.031   3.394  11.556  1.8775  1.7010 -0.6988
12618TIP3    H259270   0.072   3.263  11.620  0.2005  1.8159  0.6863
12619TIP3   OH259271   5.021   0.529  15.643 -0.0934 -0.7152 -0.1586
12619TIP3    H159272   5.033   0.435  15.656  0.2914 -0.7650 -0.8425
12619TIP3    H259273   4.930   0.545  15.670  0.7563 -0.6897  3.0577
12620TIP3   OH259274   6.201   1.549  14.853  0.4717 -0.0951  0.4245
12620TIP3    H159275   6.269   1.496  14.895 -0.2319 -1.0741  0.3837
12620TIP3    H259276   6.229   1.555  14.762  0.0171 -1.3786  0.1715
12621TIP3   OH259277   3.947   4.212  14.616  0.1676 -0.2578  0.2077
12621TIP3    H159278   4.021   4.271  14.603 -0.0509 -0.0067  0.1090
12621TIP3    H259279   3.960   4.176  14.704 -0.0299  0.4096  0.5157
12622TIP3   OH259280   6.697   2.003  14.194 -0.5376 -0.3062 -0.8363
12622TIP3    H159281   6.771   2.032  14.140  0.5149 -1.4964 -0.0899
12622TIP3    H259282   6.737   1.952  14.264 -1.9456  0.5886  0.6776
12623TIP3   OH259283   3.885   4.374   5.024  0.1167  0.0024  0.2465
12623TIP3    H159284   3.799   4.415   5.034  0.1202 -0.1134  0.8174
12623TIP3    H259285   3.927   4.423   4.954  0.6759  1.9631  1.8588
12624TIP3   OH259286   5.302   5.422   4.899 -0.5656 -0.2405 -0.3681
12624TIP3    H159287   5.229   5.361   4.910 -0.4050 -0.0208  2.4993
12624TIP3    H259288   5.380   5.367   4.894 -0.5822 -0.3660  0.5662
12625TIP3   OH259289   0.749   2.924   2.883  0.1750  0.2636 -0.6834
12625TIP3    H159290   0.665   2.970   2.891  0.0137 -0.3135  1.7110
12625TIP3    H259291   0.804   2.961   2.952  0.6847 -1.7116  0.0581
12626TIP3   OH259292   3.367   5.335   5.322  0.1068  0.2019  0.2519
12626TIP3    H159293   3.366   5.258   5.378  1.0988  1.1789  1.6970
12626TIP3    H259294   3.284   5.379   5.340 -0.0431 -0.0438  0.1544
12627TIP3   OH259295   1.477   2.191   4.502 -0.3810  0.6950 -0.6677
12627TIP3    H159296   1.466   2.132   4.577 -0.0091  1.7387  0.2252
12627TIP3    H259297   1.517   2.136   4.434 -1.5631 -0.4943 -0.4298
12628TIP3   OH259298   1.997   3.296   5.588 -0.1453 -0.3736 -0.5751
12628TIP3    H159299   2.037   3.232   5.528 -1.9240 -1.8600 -0.2635
12628TIP3    H259300   1.938   3.244   5.643  2.2833  0.6836  3.4219
12629TIP3   OH259301   2.502   0.446  10.333 -1.0069  0.2875 -0.6129
12629TIP3    H159302   2.576   0.405  10.377  0.1884  0.9729 -1.9214
12629TIP3    H259303   2.431   0.442  10.397 -1.2562 -4.4700 -0.8312
12630TIP3   OH259304   2.624   4.849   0.173 -0.3796  0.4902 -0.0783
12630TIP3    H159305   2.605   4.759   0.147 -3.5137  1.2158 -0.6936
12630TIP3    H259306   2.671   4.840   0.256  0.0808 -1.6800 -0.5024
12631TIP3   OH259307   1.612   3.596  14.221  0.2466  0.3682  0.0728
12631TIP3    H159308   1.549   3.614  14.290 -0.8253 -0.3323 -0.6988
12631TIP3    H259309   1.676   3.666  14.228 -0.2629  0.7265  1.2863
12632TIP3   OH259310   1.101   5.005  12.549  0.0841  0.3570 -0.1712
12632TIP3    H159311   1.165   4.942  12.582 -0.0901 -0.4172 -1.2407
12632TIP3    H259312   1.035   5.011  12.618  0.9920  0.7247  0.6962
12633TIP3   OH259313   3.506   0.291   4.863  0.4519  0.3360 -0.6640
12633TIP3    H159314   3.445   0.361   4.841 -0.5644 -0.4320 -0.3770
12633TIP3    H259315   3.593   0.331   4.856 -0.1143  1.6747 -0.3029
12634TIP3   OH259316   3.037   1.790   2.106  0.4983 -0.4287 -0.1745
12634TIP3    H159317   3.118   1.816   2.150  0.4264 -1.0094  0.3313
12634TIP3    H259318   3.027   1.851   2.034  0.5688  0.6385  0.6897
12635TIP3   OH259319   1.584   5.606  13.122  0.2743 -0.7854 -0.6273
12635TIP3    H159320   1.560   5.630  13.211  0.9792 -0.6114 -0.4756
12635TIP3    H259321   1.502   5.612  13.072  0.3652  1.8789 -0.5846
12636TIP3   OH259322   3.452   3.043   0.255 -0.0892  0.0327  0.3031
12636TIP3    H159323   3.539   3.056   0.215 -0.4505  0.8436 -0.2532
12636TIP3    H259324   3.464   2.969   0.315  0.9266 -0.0248  0.0529
12637TIP3   OH259325   2.971   5.024   2.699 -0.3786 -0.3717 -0.2122
12637TIP3    H159326   3.037   5.062   2.758  0.7004 -0.6254 -1.2241
12637TIP3    H259327   2.982   4.930   2.708 -0.9965 -0.4286  0.0229
12638TIP3   OH259328   5.745   6.770  15.601 -0.3328  0.1845  0.0026
12638TIP3    H159329   5.760   6.676  15.591  2.7444  0.6837 -1.2493
12638TIP3    H259330   5.786   6.792  15.684 -0.5439  0.4976  0.0248
12639TIP3   OH259331   3.297   0.537  16.313 -0.9420 -0.2835 -0.8553
12639TIP3    H159332   3.272   0.626  16.337 -1.5503 -0.7588  0.4156
12639TIP3    H259333   3.388   0.543  16.287 -0.3396  0.4193  1.1959
12640TIP3   OH259334   3.062   1.187   3.134  0.4656 -0.3177  0.4806
12640TIP3    H159335   3.024   1.169   3.048  1.4105 -0.4101  0.0740
12640TIP3    H259336   3.085   1.280   3.131  0.7179 -0.3769  0.5431
12641TIP3   OH259337   2.326   6.427   2.419  0.1583  0.2432  0.2588
12641TIP3    H159338   2.403   6.380   2.388 -0.9912 -1.0622 -0.6846
12641TIP3    H259339   2.272   6.361   2.462 -0.6861  1.0428  0.4802
12642TIP3   OH259340   5.948   3.490   3.240  0.2797 -0.7642 -0.3209
12642TIP3    H159341   6.036   3.468   3.208 -0.1881 -0.9660 -1.5105
12642TIP3    H259342   5.946   3.586   3.238  0.1582 -0.7764 -1.2159
12643TIP3   OH259343   5.679   1.720  14.551  0.0121 -0.0237  0.1466
12643TIP3    H159344   5.743   1.786  14.525 -1.1214  0.8842 -0.4663
12643TIP3    H259345   5.676   1.726  14.647  1.4363 -0.6793  0.2451
12644TIP3   OH259346   4.588   3.593  17.036 -0.4536 -0.2977 -0.8947
12644TIP3    H159347   4.656   3.561  16.977  0.3482  1.2216 -0.8608
12644TIP3    H259348   4.506   3.567  16.995  0.1223 -1.9197 -1.0859
12645TIP3   OH259349   6.075   0.470  12.787 -0.4558  0.1191  0.3157
12645TIP3    H159350   6.100   0.378  12.787 -0.4699  0.0427 -2.3531
12645TIP3    H259351   6.043   0.486  12.698 -3.0712  2.0235  1.4544
12646TIP3   OH259352   4.897   3.221  13.903 -1.1980 -0.1208 -0.0228
12646TIP3    H159353   4.849   3.260  13.830 -2.6360 -1.1793  0.3194
12646TIP3    H259354   4.882   3.281  13.976 -1.8857 -0.3667  0.0426
12647TIP3   OH259355   4.664   1.061   2.245 -0.1967  0.4192 -0.5376
12647TIP3    H159356   4.758   1.075   2.246 -0.2100  0.5007 -0.2708
12647TIP3    H259357   4.627   1.143   2.212 -0.1468  0.2153 -1.1056
12648TIP3   OH259358   2.183   1.133  12.142 -0.6691  0.2005  0.5512
12648TIP3    H159359   2.209   1.216  12.181 -0.3244  0.4736 -0.2329
12648TIP3    H259360   2.265   1.093  12.114 -0.7365 -0.8907  1.8251
12649TIP3   OH259361   4.387   0.685  15.125  0.1656  0.6448 -0.1018
12649TIP3    H159362   4.426   0.631  15.055 -0.2871  0.5638 -0.2969
12649TIP3    H259363   4.459   0.740  15.156 -0.0599  2.1483 -2.0205
12650TIP3   OH259364   5.706   6.156  10.963 -0.5295 -0.2515  0.2448
12650TIP3    H159365   5.801   6.157  10.955 -0.6057  2.0482 -1.6113
12650TIP3    H259366   5.674   6.148  10.873 -2.1397 -2.1500  0.9179
12651TIP3   OH259367   4.088   2.147  16.945 -0.9708 -0.0103 -0.3544
12651TIP3    H159368   4.084   2.071  16.888  0.1044  0.9688 -1.7961
12651TIP3    H259369   4.145   2.209  16.900 -0.6854  1.1197  1.4255
12652TIP3   OH259370   2.637   2.897   5.613  0.2777 -0.2698 -0.6889
12652TIP3    H159371   2.673   2.811   5.636  1.4550  0.5986  0.9282
12652TIP3    H259372   2.683   2.922   5.534  0.3577 -0.8683 -0.8385
12653TIP3   OH259373   1.056   1.179  10.979 -0.2376  0.7065 -0.1328
12653TIP3    H159374   1.086   1.174  10.888  0.3010  0.8122  0.0338
12653TIP3    H259375   1.013   1.264  10.985 -1.3658  0.1782 -0.6058
12654TIP3   OH259376   4.393   6.730  13.931 -0.2791 -0.4941  0.0583
12654TIP3    H159377   4.314   6.724  13.985 -0.0035 -0.9859  0.4036
12654TIP3    H259378   4.464   6.746  13.994 -0.3915  2.4679 -0.4088
12655TIP3   OH259379   1.305   2.081   0.937 -0.2751  0.0064  0.3318
12655TIP3    H159380   1.217   2.057   0.964 -0.2586  0.7469  1.1011
12655TIP3    H259381   1.361   2.011   0.972 -0.5602 -0.5579 -0.3137
12656TIP3   OH259382   4.999   2.462  16.970 -0.6892  0.5560 -0.2501
12656TIP3    H159383   4.941   2.390  16.995  0.8527 -0.0485  1.8721
12656TIP3    H259384   5.050   2.481  17.049  2.0835  0.9819 -1.9836
12657TIP3   OH259385   3.939   4.241   3.824  0.3775  0.3119 -0.5325
12657TIP3    H159386   3.866   4.296   3.796  0.8738  2.5554  2.1143
12657TIP3    H259387   3.899   4.174   3.879  0.1339  0.6266 -0.3195
12658TIP3   OH259388   0.093   1.571  14.300 -0.9528 -0.2179 -0.5789
12658TIP3    H159389   0.141   1.489  14.309 -0.2296  0.3700  1.3004
12658TIP3    H259390   0.029   1.554  14.230 -0.0973 -2.0025 -0.9750
12659TIP3   OH259391   4.589   1.456   1.012 -0.9145  0.1390  0.0374
12659TIP3    H159392   4.644   1.533   0.993 -0.2459 -0.1572  0.7286
12659TIP3    H259393   4.532   1.485   1.083 -1.5349  0.3879 -0.5561
12660TIP3   OH259394   2.188   4.011  13.526  0.1953  0.0176  0.3817
12660TIP3    H159395   2.099   3.990  13.499  0.4443  0.3000 -0.6960
12660TIP3    H259396   2.221   3.930  13.565  0.2638 -0.8409 -1.3633
12661TIP3   OH259397   2.931   1.101   4.409  0.0238  0.3913  0.1636
12661TIP3    H159398   2.974   1.027   4.366  0.7095  0.5136  0.6021
12661TIP3    H259399   2.850   1.064   4.445 -0.1411  0.0982 -0.4950
12662TIP3   OH259400   3.954   4.324   5.307 -0.2302  0.0728 -0.7954
12662TIP3    H159401   3.941   4.362   5.220 -0.8985 -0.9482 -1.1680
12662TIP3    H259402   4.008   4.246   5.291  0.3014  0.3152 -0.1910
12663TIP3   OH259403   5.929   3.722   4.766 -0.4986 -0.2262 -0.4244
12663TIP3    H159404   6.004   3.668   4.739 -0.3484 -0.7529  0.9416
12663TIP3    H259405   5.899   3.682   4.848 -1.4389  0.7835 -0.2491
12664TIP3   OH259406   5.245   2.453  15.740  0.6010  0.0217 -0.4132
12664TIP3    H159407   5.164   2.419  15.778  0.7729  0.8572  0.7666
12664TIP3    H259408   5.311   2.388  15.762  0.3810 -0.3272 -0.7760
12665TIP3   OH259409   5.742   4.498   0.510  0.0441 -0.1404  0.2247
12665TIP3    H159410   5.652   4.532   0.510 -0.2085 -0.7959  0.2461
12665TIP3    H259411   5.755   4.464   0.598  0.3661  0.0757  0.2636
12666TIP3   OH259412   1.511   3.931   5.661  0.0031 -0.3214 -0.1722
12666TIP3    H159413   1.549   3.892   5.740  0.8417  1.0975  0.1630
12666TIP3    H259414   1.461   4.007   5.694 -0.1990 -0.1165 -0.9445
12667TIP3   OH259415   0.350   3.026  12.528 -0.4222  0.0803  0.9617
12667TIP3    H159416   0.403   2.951  12.503 -0.9930  0.3904 -1.4358
12667TIP3    H259417   0.408   3.080  12.582  1.0811 -0.4916 -0.0297
12668TIP3   OH259418   4.285   3.784  16.520 -0.0255 -0.1501  0.1887
12668TIP3    H159419   4.361   3.765  16.465 -0.3550  0.5295 -0.5102
12668TIP3    H259420   4.323   3.802  16.606  0.4961 -1.1594  0.1895
12669TIP3   OH259421   1.917   3.132  14.342 -0.0977 -0.2786 -0.5047
12669TIP3    H159422   1.844   3.193  14.358  0.3614  0.8599 -2.4524
12669TIP3    H259423   1.879   3.062  14.289  0.2352  0.4268 -1.7059
12670TIP3   OH259424   3.157   5.825  11.798 -0.1875 -0.0041 -0.8424
12670TIP3    H159425   3.161   5.808  11.892  0.4255 -0.5133 -0.9593
12670TIP3    H259426   3.079   5.779  11.768 -0.4359  0.2361 -0.5723
12671TIP3   OH259427   3.446   1.312  11.425 -0.0804  0.1391 -0.1768
12671TIP3    H159428   3.540   1.293  11.431  0.1878  0.7269 -1.7966
12671TIP3    H259429   3.440   1.406  11.443 -0.1583  0.3724 -1.2989
12672TIP3   OH259430   0.163   0.847   6.065  0.3852  0.1652  0.6470
12672TIP3    H159431   0.134   0.871   5.978  2.6853  1.3223  0.1219
12672TIP3    H259432   0.140   0.922   6.120  0.8116  0.3463  0.5831
12673TIP3   OH259433   6.490   1.324   4.490 -0.1029  0.3477  0.0155
12673TIP3    H159434   6.448   1.291   4.411 -2.2493 -0.3659  1.3328
12673TIP3    H259435   6.424   1.309   4.559  2.0601 -0.0598  2.1179
12674TIP3   OH259436   1.977   5.528  16.826  0.2583  0.0034  0.1357
12674TIP3    H159437   2.008   5.612  16.862 -3.6217  1.4811  0.5852
12674TIP3    H259438   2.033   5.512  16.751  2.3132  2.0381  1.0849
12675TIP3   OH259439   4.666   0.618  11.362 -0.5425  0.1678  0.3001
12675TIP3    H159440   4.606   0.569  11.304 -0.4718 -1.1871  1.3367
12675TIP3    H259441   4.705   0.551  11.418  2.3812  0.9335 -0.6653
12676TIP3   OH259442   6.490   1.054  12.447  0.1067 -0.4109 -0.2740
12676TIP3    H159443   6.478   1.106  12.367 -2.4718 -2.2621 -1.2457
12676TIP3    H259444   6.426   1.090  12.509  0.7110 -0.2663  0.2785
12677TIP3   OH259445   4.530   4.378  15.423  0.0380 -0.2000  0.4368
12677TIP3    H159446   4.558   4.292  15.392  0.3038  0.0495 -0.0259
12677TIP3    H259447   4.601   4.437  15.397 -0.7829  0.4029 -0.5282
12678TIP3   OH259448   5.414   4.605   1.322  0.4954 -0.3816  0.3586
12678TIP3    H159449   5.380   4.583   1.236 -1.1095 -1.8632  1.3038
12678TIP3    H259450   5.458   4.689   1.310  0.1714 -0.4692 -1.8410
12679TIP3   OH259451   4.622   6.207  14.647  0.7116 -0.1982  0.3208
12679TIP3    H159452   4.535   6.184  14.680 -0.0280 -0.0679 -1.4056
12679TIP3    H259453   4.671   6.235  14.724 -1.1106  0.7714  1.1833
12680TIP3   OH259454   4.227   3.867   5.587 -0.2037  0.6547 -0.2715
12680TIP3    H159455   4.236   3.775   5.565 -0.0592  0.9614 -1.5880
12680TIP3    H259456   4.306   3.908   5.553  0.1311  1.1490  1.0540
12681TIP3   OH259457   3.047   1.701   0.659  0.4336 -0.2574  0.2922
12681TIP3    H159458   3.006   1.717   0.574 -1.0785  0.4256  1.1097
12681TIP3    H259459   3.032   1.608   0.676  2.4526 -0.8820 -1.0135
12682TIP3   OH259460   2.272   6.387   1.760  0.1665 -0.1758  0.0154
12682TIP3    H159461   2.260   6.321   1.692 -0.0636  0.3329 -0.4488
12682TIP3    H259462   2.279   6.337   1.842 -1.2003 -0.7132 -0.1708
12683TIP3   OH259463   3.771   3.636   3.056  0.2444 -0.6563  0.4301
12683TIP3    H159464   3.786   3.561   3.114  0.4784 -0.0314  1.2031
12683TIP3    H259465   3.756   3.598   2.970  0.8771 -1.5691  0.7089
12684TIP3   OH259466   4.246   6.608   5.512 -0.5869  0.1099 -0.4505
12684TIP3    H159467   4.272   6.621   5.421 -2.8555  0.3916 -1.1152
12684TIP3    H259468   4.321   6.638   5.563  0.7332 -0.0540 -2.1992
12685TIP3   OH259469   2.187   4.114   2.797 -0.3577  0.2017  0.1828
12685TIP3    H159470   2.136   4.101   2.877  0.9671 -0.7541  0.9035
12685TIP3    H259471   2.270   4.070   2.814  0.0558  0.2142 -1.6297
12686TIP3   OH259472   1.688   0.555  11.381  0.5066 -0.3328  1.1785
12686TIP3    H159473   1.759   0.577  11.441 -0.8924  3.3374  1.7946
12686TIP3    H259474   1.692   0.624  11.314 -1.6753 -0.7376  0.5588
12687TIP3   OH259475   4.222   3.616  15.808 -0.0539  0.2747 -0.2650
12687TIP3    H159476   4.137   3.661  15.809  0.4179  1.2370  1.7592
12687TIP3    H259477   4.286   3.685  15.827  0.8123 -0.9973  1.8298
12688TIP3   OH259478   5.579   6.139  14.054 -0.4522 -0.1249 -1.3452
12688TIP3    H159479   5.525   6.115  13.978 -2.1011  0.9806 -0.5805
12688TIP3    H259480   5.532   6.104  14.129 -0.7098  1.7792 -0.5606
12689TIP3   OH259481   3.718   1.314  10.656  0.3572 -0.0790  0.3856
12689TIP3    H159482   3.683   1.227  10.676  2.1322 -0.8995  0.1290
12689TIP3    H259483   3.769   1.301  10.576 -0.9738  1.6661 -0.8128
12690TIP3   OH259484   2.764   4.769   3.777  0.4659 -0.3445 -0.2784
12690TIP3    H159485   2.722   4.684   3.792 -1.0534  0.3059 -0.7315
12690TIP3    H259486   2.746   4.789   3.685  0.1209  0.8269  0.0338
12691TIP3   OH259487   2.845   6.641   4.379  0.2612 -1.1746 -0.1108
12691TIP3    H159488   2.757   6.675   4.363  0.0827 -1.3636  0.4723
12691TIP3    H259489   2.835   6.580   4.452  1.1884  0.2463  1.2732
12692TIP3   OH259490   4.318   0.624  14.163 -0.0181 -0.9266  0.2256
12692TIP3    H159491   4.222   0.621  14.164 -0.0272 -1.8171 -0.8698
12692TIP3    H259492   4.339   0.707  14.119 -0.2824 -0.9296  0.0935
12693TIP3   OH259493   0.559   0.849   1.314  0.4777  0.1268  0.0666
12693TIP3    H159494   0.547   0.792   1.390  1.2526  2.8639  2.4121
12693TIP3    H259495   0.652   0.872   1.316  0.2092  1.4140 -0.8257
12694TIP3   OH259496   0.260   1.520   0.481 -0.3292  0.1312 -1.0545
12694TIP3    H159497   0.284   1.454   0.416  0.6095  1.0715 -1.6864
12694TIP3    H259498   0.190   1.570   0.440 -0.2471  0.2493 -1.0537
12695TIP3   OH259499   5.451   2.721   5.808 -0.4405  0.5249 -0.8593
12695TIP3    H159500   5.480   2.761   5.727 -1.1653  1.5830 -0.6114
12695TIP3    H259501   5.391   2.651   5.780  0.3757 -0.0267 -1.2695
12696TIP3   OH259502   5.942   2.617   6.072  0.4604  0.0138 -1.0721
12696TIP3    H159503   5.960   2.673   6.148 -2.1346  0.0962 -0.4277
12696TIP3    H259504   5.912   2.535   6.110  0.5320 -0.4553 -2.0183
12697TIP3   OH259505   3.104   3.324  14.940  0.6126 -0.4263 -0.0627
12697TIP3    H159506   3.076   3.415  14.932 -2.8842 -1.4766 -1.3931
12697TIP3    H259507   3.043   3.285  15.003  0.3661 -2.4038 -1.4171
12698TIP3   OH259508   5.386   4.403   5.995 -0.8099  0.3439  0.0923
12698TIP3    H159509   5.353   4.389   6.084  0.9246 -1.0598  0.5821
12698TIP3    H259510   5.476   4.370   5.997 -0.3650  1.2537 -1.9243
12699TIP3   OH259511   3.887   0.529   4.044 -0.2064 -0.0666  0.3144
12699TIP3    H159512   3.905   0.602   3.985  0.9536 -0.3373  0.3144
12699TIP3    H259513   3.906   0.564   4.131  0.6391 -0.4518  0.2883
12700TIP3   OH259514   1.131   1.930  16.679  0.3247 -0.1014 -0.5073
12700TIP3    H159515   1.174   1.896  16.601  1.7881  0.6750 -0.0815
12700TIP3    H259516   1.184   2.006  16.704 -0.5664  0.1195  0.7943
12701TIP3   OH259517   2.133   0.740  11.431  0.2623 -0.2181  0.0220
12701TIP3    H159518   2.075   0.718  11.504  0.5789  0.9224  0.6288
12701TIP3    H259519   2.121   0.667  11.369 -3.2973  0.7987 -0.7768
12702TIP3   OH259520   1.739   4.062   5.932 -0.1216 -0.1268 -0.1314
12702TIP3    H159521   1.820   4.096   5.972  0.0295  0.0052 -0.5421
12702TIP3    H259522   1.770   4.005   5.862 -0.3264  2.4698 -2.5128
12703TIP3   OH259523   3.552   1.848  16.940  0.0885  0.3844  0.2654
12703TIP3    H159524   3.570   1.858  16.847  0.0995  1.3219  0.3580
12703TIP3    H259525   3.627   1.801  16.975 -0.5944 -1.2960 -0.4449
12704TIP3   OH259526   0.529   3.397   0.412  0.4505  0.4316  0.9036
12704TIP3    H159527   0.439   3.366   0.406  0.6550 -0.2389  1.2475
12704TIP3    H259528   0.562   3.394   0.322  0.6389 -0.8720  1.0024
12705TIP3   OH259529   3.792   1.991  12.380  0.6581 -0.5730 -0.4506
12705TIP3    H159530   3.826   1.986  12.291  0.3565 -0.6684 -0.5608
12705TIP3    H259531   3.744   2.074  12.383 -1.4873 -1.7273 -1.1465
12706TIP3   OH259532   6.789   3.887   5.107 -0.2274  0.0978 -0.3660
12706TIP3    H159533   6.869   3.836   5.120  0.0696  0.7762  0.5696
12706TIP3    H259534   6.742   3.879   5.191 -1.5631 -0.9916 -1.1732
12707TIP3   OH259535   5.457   3.874  10.827  0.2012  0.1318 -0.0724
12707TIP3    H159536   5.367   3.851  10.804  0.4017 -1.6758  0.7860
12707TIP3    H259537   5.507   3.858  10.746  0.1042 -1.1833  0.1065
12708TIP3   OH259538   1.839   3.041   3.069 -0.4940 -0.4490 -0.1778
12708TIP3    H159539   1.909   3.003   3.123  0.3501 -0.5426 -1.3190
12708TIP3    H259540   1.777   3.076   3.133  0.9546  0.3258  0.8742
12709TIP3   OH259541   1.513   3.279  12.543 -0.1314 -0.4364  0.7759
12709TIP3    H159542   1.563   3.351  12.505 -1.1657 -0.0265  0.1245
12709TIP3    H259543   1.460   3.320  12.612 -0.5296 -0.6091  0.5812
12710TIP3   OH259544   4.219   0.113  16.208 -0.0009 -0.5398  0.4751
12710TIP3    H159545   4.263   0.138  16.289 -2.8713  0.4064  1.8586
12710TIP3    H259546   4.217   0.194  16.156 -0.6101 -0.4122  0.6894
12711TIP3   OH259547   4.728   3.469  11.984  0.2401  0.4521 -0.4362
12711TIP3    H159548   4.708   3.548  11.934 -0.9563  1.1984  1.1502
12711TIP3    H259549   4.823   3.474  11.998  0.2089  1.5168 -0.5091
12712TIP3   OH259550   1.815   6.455  14.079 -0.4717  0.2352 -0.8758
12712TIP3    H159551   1.725   6.483  14.061 -0.0779  2.9033  0.7043
12712TIP3    H259552   1.806   6.373  14.127 -2.0621  0.4413 -0.7782
12713TIP3   OH259553   2.618   0.934  11.172 -0.3906 -0.3087  0.2525
12713TIP3    H159554   2.709   0.952  11.193  0.2397 -2.4383 -0.4142
12713TIP3    H259555   2.586   1.015  11.134  1.0587  0.6463  0.9739
12714TIP3   OH259556   1.315   0.548  11.497 -0.4744  0.5188 -0.2872
12714TIP3    H159557   1.371   0.621  11.470 -1.1398  0.4296 -1.9918
12714TIP3    H259558   1.316   0.488  11.423 -1.2224 -0.4503  0.4698
12715TIP3   OH259559   4.517   2.828  14.200  0.2468  1.1225  0.1354
12715TIP3    H159560   4.487   2.806  14.112  0.4525  0.0970  0.3048
12715TIP3    H259561   4.438   2.861  14.244 -0.3560 -0.2727  0.1651
12716TIP3   OH259562   5.698   0.157   1.621 -0.0342 -0.2261  0.8356
12716TIP3    H159563   5.647   0.168   1.702 -1.1032  0.0564  0.1524
12716TIP3    H259564   5.778   0.207   1.636  0.7950 -1.9495  2.5369
12717TIP3   OH259565   5.874   5.979  12.267  0.3040  0.7114  0.1677
12717TIP3    H159566   5.966   5.956  12.284  0.1293 -0.0825  0.0805
12717TIP3    H259567   5.834   5.897  12.239 -0.5452  0.9454  0.6532
12718TIP3   OH259568   2.635   1.263  11.393 -0.1248  0.0331 -0.0522
12718TIP3    H159569   2.583   1.222  11.462  1.1485  0.3627  1.1505
12718TIP3    H259570   2.660   1.191  11.335 -2.0516 -0.0990 -0.8007
12719TIP3   OH259571   2.654   6.406  15.925  0.0818  0.2216  0.6588
12719TIP3    H159572   2.745   6.414  15.895  0.1175 -0.9451  0.4128
12719TIP3    H259573   2.611   6.352  15.859 -0.4151 -0.4686  1.5246
12720TIP3   OH259574   5.222   2.354  15.262  0.0372  0.0356 -0.0219
12720TIP3    H159575   5.302   2.341  15.313 -0.1410  0.4075  0.3533
12720TIP3    H259576   5.154   2.368  15.328 -0.3465 -0.3152 -0.3397
12721TIP3   OH259577   3.491   5.826   5.042 -0.0867  0.0626 -0.0851
12721TIP3    H159578   3.586   5.827   5.029 -0.0498  1.5581  0.1821
12721TIP3    H259579   3.457   5.782   4.964  0.7116  1.1254 -1.0547
12722TIP3   OH259580   4.051   1.840  12.181  0.3540  0.0106  0.3116
12722TIP3    H159581   4.072   1.863  12.090 -0.8240  0.0927  0.0528
12722TIP3    H259582   3.956   1.844  12.186  0.4734  2.5624  2.2279
12723TIP3   OH259583   1.724   2.817   3.454 -0.1045  0.4680 -0.1647
12723TIP3    H159584   1.783   2.753   3.414 -0.7678 -0.4653  0.3303
12723TIP3    H259585   1.636   2.791   3.424 -0.3212  1.5633 -0.5215
12724TIP3   OH259586   0.085   3.760  15.530 -0.0733 -0.1892  0.0231
12724TIP3    H159587   0.159   3.701  15.546 -0.6734 -0.8547  0.4128
12724TIP3    H259588   0.125   3.847  15.523  0.5710 -0.2400  2.2787
12725TIP3   OH259589   6.173   2.631   3.257  0.7429 -0.4750 -0.2156
12725TIP3    H159590   6.084   2.661   3.272  1.4677  1.7997 -0.2207
12725TIP3    H259591   6.202   2.597   3.341  0.0272 -0.9232 -0.1332
12726TIP3   OH259592   3.461   2.105  13.523 -0.1099  0.0227 -0.1674
12726TIP3    H159593   3.527   2.167  13.492  0.7361 -0.6097  0.3544
12726TIP3    H259594   3.507   2.023  13.533 -0.9179 -0.3707  0.4652
12727TIP3   OH259595   2.984   3.931   0.577  0.7947  0.5372  0.6014
12727TIP3    H159596   3.055   3.918   0.641  2.5844  2.2265 -0.9020
12727TIP3    H259597   3.026   3.918   0.492 -0.4253  2.5358 -0.3846
12728TIP3   OH259598   2.099   0.333   4.040  0.4900 -0.0459  0.2373
12728TIP3    H159599   2.175   0.285   4.073  0.8286  0.4557  0.1976
12728TIP3    H259600   2.100   0.318   3.946  0.2926 -0.3930  0.2919
12729TIP3   OH259601   2.732   0.204   5.369 -0.1823 -0.6695  0.4645
12729TIP3    H159602   2.679   0.283   5.362 -0.0857 -0.4331  2.0860
12729TIP3    H259603   2.764   0.188   5.280 -1.3491  0.3051 -0.1422
12730TIP3   OH259604   1.964   1.089  11.988 -0.2701  0.1965  0.4403
12730TIP3    H159605   1.945   1.183  11.982 -0.3989  0.1319 -0.2109
12730TIP3    H259606   2.053   1.086  12.025  0.4310  0.6317 -1.1247
12731TIP3   OH259607   1.741   0.922   5.592 -0.9059  0.1648 -0.0988
12731TIP3    H159608   1.705   0.848   5.639  1.6016 -1.1891 -0.1520
12731TIP3    H259609   1.724   0.998   5.649 -0.8419 -0.9091  1.3925
12732TIP3   OH259610   2.158   2.254   1.521 -0.4920  0.1039  0.6727
12732TIP3    H159611   2.085   2.299   1.478  0.6391  3.3483  1.8531
12732TIP3    H259612   2.222   2.240   1.452 -0.6526  0.8940  0.3506
12733TIP3   OH259613   5.379   1.171   4.058  0.0206 -0.2212  0.0051
12733TIP3    H159614   5.328   1.110   4.005 -1.1066  0.5265  0.2132
12733TIP3    H259615   5.350   1.258   4.031 -0.7044  0.1868  1.9106
12734TIP3   OH259616   1.392   6.328  12.863 -0.0425 -0.1478 -0.4938
12734TIP3    H159617   1.445   6.283  12.797  0.9807 -1.3654  1.0918
12734TIP3    H259618   1.307   6.286  12.857  0.3263 -0.9324 -0.3937
12735TIP3   OH259619   0.507   2.704   2.925  0.2864 -0.6075  0.4131
12735TIP3    H159620   0.523   2.745   3.010  1.4877  1.2360 -0.6351
12735TIP3    H259621   0.417   2.729   2.904  0.1394 -0.6802  0.9322
12736TIP3   OH259622   5.963   0.176   5.178 -0.7634 -0.3034  0.1728
12736TIP3    H159623   5.915   0.128   5.246 -1.5160 -2.5072 -1.7602
12736TIP3    H259624   6.055   0.169   5.204 -1.0805 -0.4964  1.2991
12737TIP3   OH259625   4.189   1.069  16.083 -0.3849  0.4267 -0.0624
12737TIP3    H159626   4.203   0.975  16.095  1.8242  0.8187  1.1392
12737TIP3    H259627   4.200   1.083  15.989 -0.4130 -0.4733 -0.2089
12738TIP3   OH259628   6.231   1.779  16.778 -0.3455 -0.6983  0.3276
12738TIP3    H159629   6.250   1.781  16.872 -0.2600  0.4686  0.3001
12738TIP3    H259630   6.137   1.797  16.773 -0.2868 -0.4323  0.1762
12739TIP3   OH259631   4.397   3.406   6.031  0.4673 -0.5436  0.7540
12739TIP3    H159632   4.398   3.441   5.942 -0.4065 -1.7379  0.2445
12739TIP3    H259633   4.490   3.399   6.055  0.7571 -1.1325 -0.4584
12740TIP3   OH259634   3.620   1.661   2.707 -0.1948  0.2782  0.0334
12740TIP3    H159635   3.621   1.679   2.613  1.1559 -0.5187 -0.1307
12740TIP3    H259636   3.549   1.597   2.718 -0.4317  0.4571 -0.4228
12741TIP3   OH259637   1.733   0.537   1.363 -0.2232  0.0028  0.2480
12741TIP3    H159638   1.728   0.478   1.288 -0.6934  0.3879 -0.0307
12741TIP3    H259639   1.762   0.621   1.326  2.9898 -0.6381  0.9889
12742TIP3   OH259640   6.690   3.589   3.709 -0.0541 -0.1288  0.2765
12742TIP3    H159641   6.599   3.613   3.729 -0.1341 -1.7949  2.1960
12742TIP3    H259642   6.743   3.647   3.763  0.1476  1.5535 -1.5997
12743TIP3   OH259643   0.237   6.474  10.846 -0.3066 -0.3661 -0.1773
12743TIP3    H159644   0.311   6.528  10.821 -0.6846 -0.4910 -1.6402
12743TIP3    H259645   0.227   6.412  10.774 -1.6459 -0.5399  0.1351
12744TIP3   OH259646   3.214   0.046   0.216 -0.0536  0.2586 -0.0491
12744TIP3    H159647   3.145   0.101   0.180  0.6653  0.9001 -0.4839
12744TIP3    H259648   3.295   0.082   0.181  0.5846  0.0830  1.1602
12745TIP3   OH259649   6.163   4.563   0.910 -0.4520 -0.4466 -0.8158
12745TIP3    H159650   6.139   4.471   0.922 -1.0413 -0.1520  0.4649
12745TIP3    H259651   6.081   4.610   0.925 -0.0835  0.3028 -1.1567
12746TIP3   OH259652   2.073   5.030   1.825 -0.1935  0.5423  0.4025
12746TIP3    H159653   2.152   5.012   1.877 -0.0796 -0.7767 -0.1760
12746TIP3    H259654   2.001   4.993   1.878 -0.3238  0.9819  0.5358
12747TIP3   OH259655   3.322   1.702  16.790  1.1627  0.4680 -0.3793
12747TIP3    H159656   3.375   1.726  16.866  0.5380 -0.5890  0.4176
12747TIP3    H259657   3.316   1.782  16.738 -0.3985  1.9062  1.8645
12748TIP3   OH259658   0.526   1.814   0.810  0.4636 -0.0530  0.6128
12748TIP3    H159659   0.539   1.744   0.747  2.5360  0.7480  0.0657
12748TIP3    H259660   0.594   1.801   0.876  0.5868  1.1681  0.7498
12749TIP3   OH259661   4.946   2.811  13.663 -0.5776  0.2291 -0.1172
12749TIP3    H159662   4.957   2.903  13.641  0.0045 -0.0267 -0.9423
12749TIP3    H259663   4.964   2.764  13.582  0.4032 -0.6790  0.5796
12750TIP3   OH259664   4.684   0.137   1.593  0.0898  0.6388  0.1666
12750TIP3    H159665   4.646   0.072   1.652 -1.2090 -1.2582 -2.5682
12750TIP3    H259666   4.626   0.213   1.601 -0.7762 -0.0322  0.4601
12751TIP3   OH259667   6.543   1.927   2.390  0.2308  0.4250 -0.5627
12751TIP3    H159668   6.579   1.863   2.451 -0.4034 -0.3542 -0.9932
12751TIP3    H259669   6.486   1.877   2.332 -2.4900  1.7227  0.7874
12752TIP3   OH259670   3.842   5.644   1.267 -0.1224  0.1512 -0.5518
12752TIP3    H159671   3.749   5.662   1.284 -0.6626 -1.4765 -1.5550
12752TIP3    H259672   3.853   5.659   1.174  0.9867  1.6725 -0.2021
12753TIP3   OH259673   6.464   4.910   2.296  0.4642 -0.0066 -0.0965
12753TIP3    H159674   6.477   4.822   2.262  0.2562 -0.2756  0.5164
12753TIP3    H259675   6.538   4.924   2.356  0.5494  0.2772 -0.2608
12754TIP3   OH259676   5.468   4.011  13.788 -0.3429  0.3523 -0.8288
12754TIP3    H159677   5.380   3.975  13.779  0.3093 -0.9827 -2.5446
12754TIP3    H259678   5.469   4.088  13.731 -0.5495  0.7044 -0.3635
12755TIP3   OH259679   5.645   2.720   3.977 -0.4710  0.0491 -0.5426
12755TIP3    H159680   5.640   2.691   4.068 -0.1092  1.3760 -0.0772
12755TIP3    H259681   5.604   2.649   3.927  0.7297 -1.4266  0.4749
12756TIP3   OH259682   3.454   4.551   3.159  0.1684  0.6314  0.1058
12756TIP3    H159683   3.451   4.631   3.105  0.7404  1.0485  0.6714
12756TIP3    H259684   3.538   4.511   3.137 -0.8073 -0.7208 -1.4058
12757TIP3   OH259685   3.070   6.006  12.225 -0.2443 -0.0608  0.1923
12757TIP3    H159686   2.984   6.009  12.266 -0.4023  1.0652 -0.1917
12757TIP3    H259687   3.053   6.013  12.131  0.2530 -0.0724  0.0977
12758TIP3   OH259688   1.397   1.415   0.539 -0.2994  0.3454  0.3409
12758TIP3    H159689   1.303   1.420   0.557  0.3572  2.2342  4.4334
12758TIP3    H259690   1.415   1.493   0.485 -0.8644  1.0083  1.0803
12759TIP3   OH259691   2.966   5.402  16.635  0.0223  0.0391  0.0112
12759TIP3    H159692   3.014   5.322  16.654  1.0350  0.7766  0.6712
12759TIP3    H259693   3.030   5.458  16.591 -0.7697  0.3678 -0.7507
12760TIP3   OH259694   5.738   2.247  14.534 -0.3270  0.3231 -0.0699
12760TIP3    H159695   5.740   2.310  14.606  0.0177  0.3025 -0.0603
12760TIP3    H259696   5.806   2.183  14.556 -1.3350 -0.6015  0.4036
12761TIP3   OH259697   3.082   2.276   2.720 -0.4634 -0.9035  0.3604
12761TIP3    H159698   3.048   2.204   2.667 -1.4387 -0.3475  0.1985
12761TIP3    H259699   3.108   2.342   2.656  0.3834 -1.0852  0.5095
12762TIP3   OH259700   2.077   4.723  16.561  0.0120  0.2831 -0.2701
12762TIP3    H159701   2.098   4.658  16.494  1.6067  2.3255 -1.8922
12762TIP3    H259702   2.155   4.726  16.617 -0.2838  0.4278  0.1423
12763TIP3   OH259703   4.426   1.549   5.657  0.1959 -0.2993  0.2501
12763TIP3    H159704   4.389   1.462   5.639 -0.9237  0.2024  0.0525
12763TIP3    H259705   4.454   1.544   5.748  0.1755 -0.8761  0.2329
12764TIP3   OH259706   0.939   3.879   4.507 -0.2309 -0.2353  0.1506
12764TIP3    H159707   0.962   3.798   4.462 -0.7476 -0.9560  1.1538
12764TIP3    H259708   1.016   3.899   4.561 -0.0906 -0.0280 -0.1213
12765TIP3   OH259709   0.025   2.978  11.372 -0.0267  0.5561 -0.1449
12765TIP3    H159710   0.101   2.978  11.314 -0.6342  0.4018 -0.9596
12765TIP3    H259711  -0.042   3.027  11.324 -0.1722  1.4423  0.9386
12766TIP3   OH259712   5.552   4.108   4.730 -0.3059 -0.3908 -0.4010
12766TIP3    H159713   5.483   4.138   4.671 -0.5486 -0.2267 -0.0344
12766TIP3    H259714   5.630   4.105   4.675 -0.2973  0.7957 -0.4833
12767TIP3   OH259715   4.351   0.675   1.139  0.0986  0.6968  0.0457
12767TIP3    H159716   4.400   0.757   1.152  0.2435  0.7330 -0.6742
12767TIP3    H259717   4.411   0.619   1.090  0.4882 -0.3408  1.6741
12768TIP3   OH259718   6.375   0.115  16.361  0.2787 -0.1881  0.0258
12768TIP3    H159719   6.288   0.086  16.335  0.1725 -0.3665  0.5597
12768TIP3    H259720   6.377   0.101  16.456  0.2239  1.5261  0.3121
12769TIP3   OH259721   5.186   4.375  11.368 -0.0822 -0.4377  0.2449
12769TIP3    H159722   5.169   4.468  11.354  1.7635  0.2384  1.9256
12769TIP3    H259723   5.229   4.346  11.287  0.3524  0.4766  0.1328
12770TIP3   OH259724   6.646   3.035   5.214 -0.7599 -0.3216 -0.1287
12770TIP3    H159725   6.706   2.961   5.219 -0.4500 -0.1614 -1.3764
12770TIP3    H259726   6.564   3.001   5.251  0.0667 -0.5294  1.6024
12771TIP3   OH259727   5.746   2.826   4.401 -0.2005  0.2249 -0.8860
12771TIP3    H159728   5.733   2.733   4.421 -1.5771  0.6329  0.2942
12771TIP3    H259729   5.841   2.839   4.407  0.1577 -1.3683 -2.4343
12772TIP3   OH259730   1.221   3.864   3.431 -0.1240  0.0212 -0.0063
12772TIP3    H159731   1.163   3.939   3.444 -2.0315 -1.3546 -0.1114
12772TIP3    H259732   1.260   3.879   3.345  0.7026  1.6057  0.6077
12773TIP3   OH259733   0.697   6.795   1.901 -0.3311 -0.1884  0.0708
12773TIP3    H159734   0.618   6.744   1.885 -0.0818 -0.1756 -1.3390
12773TIP3    H259735   0.732   6.812   1.814  1.4005 -0.4528  0.6884
12774TIP3   OH259736   0.350   3.466  16.415 -0.3571  0.9048 -0.4937
12774TIP3    H159737   0.438   3.491  16.388  0.6606  0.1407  1.8456
12774TIP3    H259738   0.303   3.549  16.424  0.2689  1.3598 -1.2757
12775TIP3   OH259739   4.656   0.643  10.744 -0.0768  0.0345  0.5308
12775TIP3    H159740   4.598   0.583  10.792 -0.8788  0.4655  0.1133
12775TIP3    H259741   4.599   0.689  10.683  0.7198  0.4278  0.0601
12776TIP3   OH259742   4.677   1.642  15.818 -0.3806  0.6599 -0.2155
12776TIP3    H159743   4.626   1.702  15.872 -0.1664 -0.0617  0.8329
12776TIP3    H259744   4.619   1.566  15.806 -0.0516  0.3939 -0.1396
12777TIP3   OH259745   1.876   3.136  15.439  0.2531 -0.5465  0.0373
12777TIP3    H159746   1.852   3.056  15.392 -2.2533 -0.4013  0.9372
12777TIP3    H259747   1.905   3.197  15.370 -1.5663 -0.9487 -1.1487
12778TIP3   OH259748   3.124   0.399  15.303  0.2238 -0.0100 -0.2689
12778TIP3    H159749   3.078   0.440  15.230 -1.3150  0.8178  1.1159
12778TIP3    H259750   3.188   0.465  15.332 -1.4475  1.0558  1.2025
12779TIP3   OH259751   5.182   3.265  12.261  0.3778  0.2186 -0.7963
12779TIP3    H159752   5.152   3.347  12.300 -0.5782 -0.1180 -0.7929
12779TIP3    H259753   5.275   3.279  12.243  0.9740  0.2541  1.9531
12780TIP3   OH259754   4.203   6.175  13.326  0.0748 -0.2058 -0.3937
12780TIP3    H159755   4.295   6.153  13.338 -0.1427 -0.3535  1.1837
12780TIP3    H259756   4.170   6.108  13.266  1.0105 -0.0423 -1.1269
12781TIP3   OH259757   4.128   5.082   1.759  0.0421 -0.4389 -0.4993
12781TIP3    H159758   4.104   4.991   1.773 -0.7799 -0.4078 -1.6051
12781TIP3    H259759   4.219   5.079   1.732  0.3393 -0.8364  0.5108
12782TIP3   OH259760   5.814   5.673   1.777  0.1273 -0.3689  0.3342
12782TIP3    H159761   5.907   5.655   1.791  0.5283  1.2419 -0.0945
12782TIP3    H259762   5.807   5.768   1.777 -1.1359 -0.3824 -2.0879
12783TIP3   OH259763   1.240   6.717   1.147 -0.0508 -0.2368 -0.1151
12783TIP3    H159764   1.300   6.692   1.076 -0.9401 -0.3464 -0.8490
12783TIP3    H259765   1.198   6.635   1.172  0.2724 -0.2041  0.5781
12784TIP3   OH259766   0.912   3.755  16.513  0.8059 -0.4022  0.2512
12784TIP3    H159767   0.885   3.671  16.475  0.1152 -0.8357  1.6260
12784TIP3    H259768   1.007   3.748  16.523  0.5398 -2.0012  2.4691
12785TIP3   OH259769   5.440   6.080  11.435 -0.4933 -0.1431  0.5679
12785TIP3    H159770   5.426   6.165  11.478 -0.4015 -0.8023  1.9679
12785TIP3    H259771   5.483   6.102  11.352  2.6825  1.0121  2.3397
12786TIP3   OH259772   1.789   5.075  13.433  0.3081  0.2780 -0.2969
12786TIP3    H159773   1.804   5.169  13.445  0.9030  0.2707 -0.9318
12786TIP3    H259774   1.876   5.037  13.426  0.0622 -0.2210 -0.7692
12787TIP3   OH259775   2.813   4.883  13.746  0.0890 -0.0779 -0.0261
12787TIP3    H159776   2.837   4.925  13.663 -0.9564 -0.4087 -0.5108
12787TIP3    H259777   2.726   4.846  13.730  0.6493 -1.7572  0.6293
12788TIP3   OH259778   6.121   1.153  11.897  0.0052  0.4154  0.6199
12788TIP3    H159779   6.206   1.134  11.856  1.0315  0.2067  2.7510
12788TIP3    H259780   6.057   1.123  11.832  1.5455 -0.2863 -0.6581
12789TIP3   OH259781   2.593   4.975   1.655 -0.7842 -0.0412  0.0898
12789TIP3    H159782   2.587   4.887   1.619 -0.7060  0.6786 -1.8224
12789TIP3    H259783   2.512   5.018   1.625 -0.2523  0.8774 -0.0703
12790TIP3   OH259784   3.730   6.411   4.705 -0.6034 -0.7812  0.4347
12790TIP3    H159785   3.792   6.361   4.757 -0.2474 -1.0548 -0.2431
12790TIP3    H259786   3.654   6.354   4.696 -0.3616 -1.0346  0.0096
12791TIP3   OH259787   2.172   1.245   3.059  0.0716  0.4934  0.3902
12791TIP3    H159788   2.203   1.239   3.149 -1.2873 -1.5028  0.8077
12791TIP3    H259789   2.076   1.248   3.066 -0.0827 -0.1339 -0.9703
12792TIP3   OH259790   4.470   6.267   5.620 -0.3488  0.9378  0.6721
12792TIP3    H159791   4.447   6.293   5.709 -0.8391  1.0156  0.5245
12792TIP3    H259792   4.388   6.240   5.580  0.0397 -0.1827  0.5914
12793TIP3   OH259793   1.370   6.224  11.917 -0.1325  0.5945 -0.5842
12793TIP3    H159794   1.427   6.162  11.963 -0.7101  0.4839 -0.0157
12793TIP3    H259795   1.302   6.170  11.878 -0.8821  0.8974  0.2700
12794TIP3   OH259796   6.022   0.520   4.492  0.2097  0.2134 -0.7474
12794TIP3    H159797   6.105   0.476   4.512  0.1644 -0.4066 -1.8232
12794TIP3    H259798   6.029   0.606   4.534 -0.1672 -1.1779  2.4157
12795TIP3   OH259799   5.780   2.479  16.477 -0.1888  0.3439 -0.1652
12795TIP3    H159800   5.729   2.445  16.549 -0.5142  1.5330  0.1861
12795TIP3    H259801   5.812   2.401  16.431 -0.3087 -0.4205  1.0123
12796TIP3   OH259802   1.431   3.679  15.010  0.5887  0.3924  0.0901
12796TIP3    H159803   1.476   3.692  14.926  2.1606 -3.1061  0.2054
12796TIP3    H259804   1.496   3.703  15.076  0.5713 -0.1077  0.2900
12797TIP3   OH259805   3.788   3.877   4.429 -0.8544 -0.2160 -0.2509
12797TIP3    H159806   3.836   3.869   4.511 -0.5218  0.6947 -0.3419
12797TIP3    H259807   3.802   3.968   4.402 -0.1603 -0.7562 -1.8149
12798TIP3   OH259808   1.911   5.905   3.248 -0.3197 -0.0950 -0.2701
12798TIP3    H159809   1.898   5.819   3.287 -3.0946 -0.2916 -1.4107
12798TIP3    H259810   1.961   5.888   3.168  2.5630 -0.0686  1.3939
12799TIP3   OH259811   3.295   4.794  15.185 -0.1241 -0.2527  0.5931
12799TIP3    H159812   3.343   4.877  15.183  0.2987 -0.4931  0.6302
12799TIP3    H259813   3.315   4.757  15.270 -0.0527 -0.5434  0.4495
12800TIP3   OH259814   1.785   0.071   5.498  0.1911 -0.1405  0.1418
12800TIP3    H159815   1.731   0.059   5.420 -0.1704 -0.7441  0.4833
12800TIP3    H259816   1.809  -0.017   5.525  0.7272  0.0874  0.4327
12801TIP3   OH259817   0.588   6.213  16.260 -0.2550 -0.1531  0.1040
12801TIP3    H159818   0.535   6.251  16.330  0.1019  0.2574  0.1590
12801TIP3    H259819   0.530   6.211  16.184 -0.6005 -0.4689  0.3749
12802TIP3   OH259820   4.040   2.201  11.507  0.0398 -0.9705  0.2112
12802TIP3    H159821   3.960   2.156  11.533 -0.7324 -0.5723 -1.3689
12802TIP3    H259822   4.059   2.167  11.420  0.6461  0.1831 -0.1209
12803TIP3   OH259823   0.586   3.605  13.874  0.0321 -0.3716 -0.3659
12803TIP3    H159824   0.533   3.680  13.901 -2.1068 -1.5266 -1.1387
12803TIP3    H259825   0.536   3.528  13.902  2.3538 -1.5872  0.7944
12804TIP3   OH259826   3.047   1.008   3.852 -0.5470  0.1873 -0.3051
12804TIP3    H159827   3.096   1.058   3.787  0.5241  0.1190  0.4237
12804TIP3    H259828   2.973   1.064   3.874 -0.0373  0.9159 -0.4096
12805TIP3   OH259829   1.610   1.404  16.344  0.2867  0.3984  0.0424
12805TIP3    H159830   1.648   1.432  16.428 -1.1187  1.1663  0.4370
12805TIP3    H259831   1.548   1.335  16.368 -0.6244  1.0915 -0.2708
12806TIP3   OH259832   5.387   1.428   2.567 -0.0989 -0.0634  0.3151
12806TIP3    H159833   5.293   1.429   2.551 -0.4967  2.5286  2.1687
12806TIP3    H259834   5.395   1.409   2.661  0.9519  2.6686  0.8694
12807TIP3   OH259835   1.301   5.090  12.386  0.0309 -0.1377 -0.4298
12807TIP3    H159836   1.259   5.017  12.433 -0.3787  0.1861 -0.2877
12807TIP3    H259837   1.362   5.127  12.450 -1.2087  0.9013  0.2002
12808TIP3   OH259838   6.537   1.957  12.396 -0.7169  0.2729  0.3382
12808TIP3    H159839   6.533   1.968  12.301 -1.7299  1.8446  0.5251
12808TIP3    H259840   6.571   2.040  12.429 -0.1837 -0.3246  1.3574
12809TIP3   OH259841   2.381   2.946   4.089  0.1125  0.0539 -0.7649
12809TIP3    H159842   2.461   2.978   4.129  0.5083  1.8740 -2.8361
12809TIP3    H259843   2.350   2.877   4.148  1.4935  1.4322  1.6997
12810TIP3   OH259844   1.852   5.095   0.126  0.5735  0.6870 -0.2746
12810TIP3    H159845   1.790   5.075   0.196 -0.2244  0.2585 -1.0749
12810TIP3    H259846   1.811   5.165   0.076  0.3549 -0.0974 -1.2464
12811TIP3   OH259847   4.915   6.360   1.584  0.0346 -0.0314  0.0680
12811TIP3    H159848   4.913   6.341   1.678 -2.2700 -0.9928 -0.1059
12811TIP3    H259849   4.844   6.423   1.570 -1.8118 -2.2633 -1.3959
12812TIP3   OH259850   2.858   5.703   3.467 -0.0395  0.3305 -0.4097
12812TIP3    H159851   2.793   5.773   3.462  0.2169  0.5456 -0.7808
12812TIP3    H259852   2.808   5.623   3.449 -0.1898  0.4995 -0.7566
12813TIP3   OH259853   4.734   2.228   0.227  0.0372  0.2585 -0.0155
12813TIP3    H159854   4.654   2.236   0.280  0.4568  2.5255  0.3822
12813TIP3    H259855   4.793   2.294   0.263  1.4621 -0.1927 -1.4172
12814TIP3   OH259856   6.457   0.127   4.731  0.0722 -0.3819 -0.1334
12814TIP3    H159857   6.445   0.171   4.816 -0.1861 -0.7892  0.0445
12814TIP3    H259858   6.516   0.053   4.750  0.6044 -0.0509 -0.4545
12815TIP3   OH259859   5.447   4.143   5.178 -0.4341  0.0187  0.4974
12815TIP3    H159860   5.372   4.201   5.183 -0.6533  0.3032 -3.1279
12815TIP3    H259861   5.426   4.083   5.106  2.8624  0.2693 -0.8263
12816TIP3   OH259862   2.885   5.816  12.445 -0.6764  0.5372  0.0672
12816TIP3    H159863   2.924   5.895  12.483 -0.9951  0.0667  1.4540
12816TIP3    H259864   2.793   5.837  12.434 -0.7172  0.4517  0.2265
12817TIP3   OH259865   5.849   6.316  16.671 -0.2028  0.3427  0.1765
12817TIP3    H159866   5.871   6.385  16.609  1.1216 -0.7872 -0.6754
12817TIP3    H259867   5.854   6.235  16.621  2.0502 -0.7284  1.9287
12818TIP3   OH259868   1.404   3.770  12.595  0.1920  0.1758 -0.4622
12818TIP3    H159869   1.394   3.865  12.597  0.1624  0.1533  0.8902
12818TIP3    H259870   1.317   3.737  12.618 -0.1912 -0.2352 -2.2777
12819TIP3   OH259871   5.261   2.787  16.978  0.1997 -0.1930  0.3101
12819TIP3    H159872   5.213   2.719  16.930  0.8653 -0.6724  0.3053
12819TIP3    H259873   5.353   2.773  16.954  0.2119  1.6912 -0.9043
12820TIP3   OH259874   6.015   2.061  16.564  0.5189 -0.3617 -0.4647
12820TIP3    H159875   6.034   2.025  16.650 -0.4258 -1.0505 -0.5251
12820TIP3    H259876   5.990   1.984  16.511 -0.5106  0.2439 -0.8863
12821TIP3   OH259877   0.455   5.822  11.890  0.5519  0.6199 -0.4561
12821TIP3    H159878   0.462   5.830  11.985 -0.6921 -1.1811 -0.1502
12821TIP3    H259879   0.544   5.832  11.858  1.4930 -1.6530  1.1949
12822TIP3   OH259880   4.057   4.176   5.102 -0.1100 -0.4028  0.1046
12822TIP3    H159881   4.015   4.244   5.050 -0.8443  1.0411  2.4731
12822TIP3    H259882   4.147   4.207   5.114 -0.5658  0.4453  1.5627
12823TIP3   OH259883   3.259   3.423   2.639  0.4173  0.5356  0.0133
12823TIP3    H159884   3.326   3.401   2.703  0.4610  0.1969 -0.1459
12823TIP3    H259885   3.279   3.369   2.563 -0.7773 -0.5466  0.4228
12824TIP3   OH259886   1.609   2.532   2.576  0.2834 -0.2109 -0.6541
12824TIP3    H159887   1.655   2.451   2.596 -0.7048 -1.0504 -1.6357
12824TIP3    H259888   1.631   2.591   2.648  0.3151 -1.6396  0.5581
12825TIP3   OH259889   4.033   2.483  14.335 -0.6110  0.0602  0.3080
12825TIP3    H159890   4.111   2.510  14.286  0.0132 -1.1574  0.6022
12825TIP3    H259891   4.003   2.404  14.290  0.9151 -2.0492  2.7487
12826TIP3   OH259892   1.140   5.666  14.896  0.3632 -0.2676 -0.4039
12826TIP3    H159893   1.156   5.640  14.987  0.2362  0.1699 -0.2570
12826TIP3    H259894   1.226   5.694  14.864  0.3752 -0.2629 -0.3673
12827TIP3   OH259895   0.655   1.103  12.449 -0.5334 -0.0918 -1.0366
12827TIP3    H159896   0.700   1.034  12.400 -2.9694 -1.6228 -1.2920
12827TIP3    H259897   0.601   1.148  12.383  0.6940  1.8907 -0.7963
12828TIP3   OH259898   1.014   2.970   1.978 -0.0677  0.0001  0.0316
12828TIP3    H159899   0.954   2.916   1.927  2.1187 -0.1190 -2.5940
12828TIP3    H259900   0.972   3.056   1.981 -0.0311  0.1766 -2.5693
12829TIP3   OH259901   5.389   3.098   5.598 -0.3660  0.3289  0.0934
12829TIP3    H159902   5.321   3.056   5.545  0.8248 -1.2947 -0.2038
12829TIP3    H259903   5.347   3.111   5.683 -1.4492  0.5558 -0.4471
12830TIP3   OH259904   3.417   4.512   5.198  0.2003  0.1157 -0.0592
12830TIP3    H159905   3.441   4.420   5.212  0.8815  0.2260 -0.4329
12830TIP3    H259906   3.497   4.561   5.219 -0.0804  0.6049 -0.1109
12831TIP3   OH259907   2.294   3.183  16.728 -0.3150 -0.4040  0.0896
12831TIP3    H159908   2.365   3.246  16.721 -0.5019 -0.1095  0.8167
12831TIP3    H259909   2.302   3.146  16.816 -0.5863 -0.9452 -0.1068
12832TIP3   OH259910   4.831   4.835  12.199 -0.4560  0.5998  0.5670
12832TIP3    H159911   4.872   4.751  12.220 -0.5620  0.5921  0.7493
12832TIP3    H259912   4.846   4.888  12.277  2.6360  1.9444 -0.7772
12833TIP3   OH259913   2.783   2.506   0.371  0.3709  0.1114 -0.0158
12833TIP3    H159914   2.768   2.588   0.418 -0.2033  0.1786 -0.3083
12833TIP3    H259915   2.792   2.532   0.279  2.8205  0.1399  0.1511
12834TIP3   OH259916   0.954   1.888  14.436  0.1878  0.5155  0.1829
12834TIP3    H159917   0.858   1.884  14.437  0.2029 -0.0053  1.7960
12834TIP3    H259918   0.976   1.914  14.346 -1.4262 -0.2339 -0.4599
12835TIP3   OH259919   1.570   5.564   1.823  0.2907  0.0031  0.2057
12835TIP3    H159920   1.596   5.589   1.912 -0.1888 -1.8807  0.9157
12835TIP3    H259921   1.560   5.469   1.826 -0.9978  0.0241 -1.5472
12836TIP3   OH259922   0.731   4.122  17.161 -0.0272  0.0318  0.0072
12836TIP3    H159923   0.658   4.064  17.139 -1.1430  0.9830  1.1022
12836TIP3    H259924   0.797   4.063  17.198  0.3647 -1.0312 -2.2207
12837TIP3   OH259925   4.114   4.323   3.369  0.4265 -0.4563  0.0787
12837TIP3    H159926   4.189   4.263   3.364 -0.7900 -2.0859  0.4859
12837TIP3    H259927   4.040   4.267   3.392 -1.2537  0.8495 -1.8336
12838TIP3   OH259928   2.382   2.973  15.968 -0.4151 -0.2603 -0.4150
12838TIP3    H159929   2.467   2.929  15.977 -0.2184  0.3762  1.1766
12838TIP3    H259930   2.318   2.906  15.992 -0.3151 -0.5584 -0.9837
12839TIP3   OH259931   5.271   2.080  14.176  0.0694  0.3482  0.0450
12839TIP3    H159932   5.204   2.017  14.203  1.2559  0.0550  2.5883
12839TIP3    H259933   5.258   2.155  14.235  1.0934  0.8712 -0.3663
12840TIP3   OH259934   5.690   4.236  12.812 -0.0171  0.4835 -0.6007
12840TIP3    H159935   5.708   4.306  12.875  0.4265  0.4576 -0.6982
12840TIP3    H259936   5.764   4.176  12.821 -1.4609 -1.1681  1.1048
12841TIP3   OH259937   5.727   1.971   2.022  0.4132 -0.5682 -0.8636
12841TIP3    H159938   5.789   1.898   2.021  0.5795 -0.4267 -0.9263
12841TIP3    H259939   5.700   1.979   2.114 -0.7587 -1.6744 -1.0757
12842TIP3   OH259940   6.172   0.949  13.832  0.4439 -0.7132 -0.2187
12842TIP3    H159941   6.230   0.920  13.902  0.0171  1.5451  1.1507
12842TIP3    H259942   6.084   0.925  13.863  0.4367 -3.0202 -1.7354
12843TIP3   OH259943   6.311   3.148   0.502  0.1686 -0.3974  0.0332
12843TIP3    H159944   6.393   3.155   0.452 -0.1566  0.9669 -0.3539
12843TIP3    H259945   6.332   3.186   0.587  0.0684 -0.5282  0.1172
12844TIP3   OH259946   4.751   2.047   3.243 -0.7201  0.1861  0.2671
12844TIP3    H159947   4.815   2.008   3.303 -0.9380  0.7283  0.8519
12844TIP3    H259948   4.691   2.096   3.299 -0.7276  0.9805 -0.4233
12845TIP3   OH259949   3.170   1.566   5.867  0.1962  0.1164 -0.0465
12845TIP3    H159950   3.212   1.563   5.781  0.5463 -0.3404  0.1374
12845TIP3    H259951   3.191   1.482   5.907  2.4047  1.3499  1.6066
12846TIP3   OH259952   1.795   1.102  15.029 -0.0531 -0.5289  0.4828
12846TIP3    H159953   1.855   1.029  15.043  0.2121 -0.5326 -0.5845
12846TIP3    H259954   1.777   1.136  15.117  1.7712 -0.3180  0.8142
12847TIP3   OH259955   3.067   5.418   0.408  0.0076  0.3902  0.4089
12847TIP3    H159956   3.061   5.323   0.395 -1.7353  0.6523 -1.1541
12847TIP3    H259957   3.001   5.454   0.349  0.2483  2.5607  1.3801
12848TIP3   OH259958   1.728   1.081  15.678  0.2152 -0.1907  0.0956
12848TIP3    H159959   1.723   1.177  15.679  1.5400 -0.1084 -0.2056
12848TIP3    H259960   1.810   1.061  15.633  2.2531 -1.3488  3.8512
12849TIP3   OH259961   3.958   2.077  10.885 -0.2777  0.4668  0.0222
12849TIP3    H159962   4.032   2.100  10.941  1.0011 -0.2595 -1.2943
12849TIP3    H259963   3.899   2.028  10.942  2.0624 -2.2865  0.3164
12850TIP3   OH259964   5.655   3.187   4.209 -0.0279 -0.4340  0.3989
12850TIP3    H159965   5.617   3.173   4.296 -1.4200  1.1414  0.1027
12850TIP3    H259966   5.603   3.132   4.150  0.3591 -0.8520  0.4467
12851TIP3   OH259967   2.783   3.166   1.727  0.2473 -0.0505 -0.1886
12851TIP3    H159968   2.698   3.197   1.759 -0.7443 -1.4039 -1.3619
12851TIP3    H259969   2.817   3.239   1.676  0.1860  0.8013  0.9505
12852TIP3   OH259970   3.310   0.020  10.634 -0.2989 -0.0006 -0.0365
12852TIP3    H159971   3.272  -0.068  10.642 -1.8743  0.7530  1.2628
12852TIP3    H259972   3.402   0.008  10.657  0.0035 -1.6347 -1.8372
12853TIP3   OH259973   2.686   4.319   5.760  0.3767  0.1326 -0.2436
12853TIP3    H159974   2.742   4.293   5.686  1.2333 -0.5557  0.6181
12853TIP3    H259975   2.606   4.267   5.749  0.9763 -0.8534 -0.0466
12854TIP3   OH259976   4.553   1.744  12.053  0.3209  0.1914  0.7178
12854TIP3    H159977   4.508   1.796  11.986  1.1800  0.6712  0.5016
12854TIP3    H259978   4.483   1.710  12.108 -0.5337 -1.0751 -1.0229
12855TIP3   OH259979   4.138   0.932  15.465  0.2781  0.2498 -0.1984
12855TIP3    H159980   4.176   1.018  15.449 -0.0933  0.8859  1.9883
12855TIP3    H259981   4.079   0.918  15.392  1.0580  1.4055 -1.0985
12856TIP3   OH259982   4.822   3.454   3.128  0.3654 -1.0574 -1.0314
12856TIP3    H159983   4.755   3.449   3.060  0.4882 -0.2774 -1.2238
12856TIP3    H259984   4.775   3.437   3.210 -0.0156 -0.7931 -1.1931
12857TIP3   OH259985   2.084   4.925  12.654  0.3992 -0.0927  0.0655
12857TIP3    H159986   2.173   4.957  12.668  0.8983 -1.0463 -0.7213
12857TIP3    H259987   2.092   4.830  12.663 -0.5589 -0.1804  0.0665
12858TIP3   OH259988   4.691   5.188  14.847 -0.9635 -0.3082 -0.4883
12858TIP3    H159989   4.603   5.150  14.855 -0.0032 -2.3634  2.0812
12858TIP3    H259990   4.746   5.131  14.902  1.0973  3.6066  1.9393
12859TIP3   OH259991   0.096   2.145  16.444  0.4275  0.4221  0.1689
12859TIP3    H159992   0.184   2.139  16.480  0.4473 -0.4511 -0.0029
12859TIP3    H259993   0.108   2.180  16.356  0.6876 -0.4031 -0.1350
12860TIP3   OH259994   1.608   0.454  10.560  0.5546  0.1447  0.8884
12860TIP3    H159995   1.641   0.538  10.527 -1.8267  0.1860 -1.7561
12860TIP3    H259996   1.580   0.473  10.649  0.5795  2.0421  0.5409
12861TIP3   OH259997   6.352   0.451   1.754 -0.5873  0.7095 -0.0369
12861TIP3    H159998   6.282   0.515   1.767 -1.4177 -0.2507  0.2995
12861TIP3    H259999   6.405   0.457   1.833  0.3043  2.1256 -0.7010
12862TIP3   OH260000   2.929   6.177   3.785 -0.7070  0.4215 -0.0957
12862TIP3    H160001   2.937   6.272   3.774 -2.5023  0.5591 -0.3883
12862TIP3    H260002   2.935   6.163   3.879  0.4989  0.7052 -0.1122
12863TIP3   OH260003   5.344   2.008   0.194 -0.7712 -0.2508 -0.1337
12863TIP3    H160004   5.391   1.952   0.256  0.7361  1.7658  0.6684
12863TIP3    H260005   5.344   1.958   0.112 -0.2583 -1.7616  0.7494
12864TIP3   OH260006   6.613   6.690   4.068 -0.2755 -0.4446  0.2607
12864TIP3    H160007   6.612   6.783   4.045  0.1264 -0.5319 -0.1176
12864TIP3    H260008   6.581   6.646   3.990  2.4368 -0.8551 -0.7070
12865TIP3   OH260009   3.521   4.214  11.655  0.5153  0.2102  0.0557
12865TIP3    H160010   3.596   4.268  11.677  0.1373  0.4617  0.7711
12865TIP3    H260011   3.460   4.274  11.611  0.3893  0.2032  0.2193
12866TIP3   OH260012   6.738   5.932   2.173 -0.1148  0.4113 -0.0184
12866TIP3    H160013   6.798   5.858   2.177 -1.2863 -0.5343  1.0132
12866TIP3    H260014   6.787   6.000   2.127  1.2186 -0.7820 -0.4489
12867TIP3   OH260015   6.251   1.445   1.591  0.3994  0.1209  0.0335
12867TIP3    H160016   6.331   1.421   1.544  1.0788  0.2903  1.0500
12867TIP3    H260017   6.279   1.516   1.650 -0.7848  1.0337 -0.4714
12868TIP3   OH260018   6.142   0.934   6.745 -1.0460 -0.0629 -0.2226
12868TIP3    H160019   6.172   0.854   6.788 -1.2395  0.1253  0.2747
12868TIP3    H260020   6.213   0.957   6.685  0.5354  1.1620  1.9477
12869TIP3   OH260021   1.271   4.596   3.599  0.0566  0.0855 -0.1286
12869TIP3    H160022   1.220   4.537   3.654 -2.0139  0.7598 -1.1975
12869TIP3    H260023   1.304   4.663   3.659 -0.2497 -0.4095  0.6090
12870TIP3   OH260024   0.070   0.722   3.175  0.5728 -0.1951  0.0734
12870TIP3    H160025  -0.010   0.734   3.226 -0.0870  0.0141 -0.9711
12870TIP3    H260026   0.052   0.647   3.119  1.2936 -0.4404  0.1540
12871TIP3   OH260027   4.127   6.420   5.090  0.3053  0.0695 -0.3239
12871TIP3    H160028   4.039   6.384   5.093  0.0208  0.6773 -0.9809
12871TIP3    H260029   4.179   6.352   5.046  0.4246 -0.7548  1.0313
12872TIP3   OH260030   1.817   1.242   2.536 -0.1008  0.4993  0.4495
12872TIP3    H160031   1.835   1.150   2.513 -0.5894  0.8408 -1.5098
12872TIP3    H260032   1.897   1.289   2.511 -0.7394  0.9180 -0.9302
12873TIP3   OH260033   0.489   1.082   0.688 -0.4947 -0.0185  0.5705
12873TIP3    H160034   0.514   1.147   0.754  2.8534 -1.5296  0.9891
12873TIP3    H260035   0.507   1.125   0.604  0.2178  0.1520  0.8023
12874TIP3   OH260036   2.749   2.231  15.609  0.0701 -0.5627  0.1938
12874TIP3    H160037   2.755   2.282  15.528  1.0520 -1.5535 -0.3941
12874TIP3    H260038   2.658   2.238  15.636 -0.2364 -0.0858 -0.9300
12875TIP3   OH260039   5.528   4.852   1.252  0.3812  0.3442 -0.1902
12875TIP3    H160040   5.503   4.885   1.165  1.3357 -0.1185 -0.6542
12875TIP3    H260041   5.518   4.928   1.310  0.9839  1.0222 -0.9491
12876TIP3   OH260042   1.239   6.694  11.305  0.5550  1.1774  0.0364
12876TIP3    H160043   1.244   6.784  11.273 -1.6135  0.8370 -1.4834
12876TIP3    H260044   1.295   6.644  11.246 -0.3554  1.1686 -0.8631
12877TIP3   OH260045   2.505   0.537   4.507 -0.3384 -0.4010  0.1633
12877TIP3    H160046   2.563   0.477   4.460 -0.5960 -0.5817  0.0696
12877TIP3    H260047   2.563   0.592   4.559 -0.0510 -0.2071 -0.3614
12878TIP3   OH260048   5.790   5.734  12.257 -0.2612  0.7471  0.6669
12878TIP3    H160049   5.820   5.643  12.263 -0.4924  0.7058  1.3301
12878TIP3    H260050   5.739   5.738  12.176 -2.7112 -0.4669  2.0278
12879TIP3   OH260051   2.926   3.024  11.431 -0.9208 -0.4027  0.3264
12879TIP3    H160052   2.979   3.067  11.364  0.9881 -1.1939  1.2745
12879TIP3    H260053   2.929   3.084  11.506 -1.3915 -0.4592  0.3966
12880TIP3   OH260054   3.992   5.809   3.880  0.3287 -0.4672  0.4162
12880TIP3    H160055   4.072   5.756   3.887  0.6284 -0.2667 -1.2267
12880TIP3    H260056   4.004   5.861   3.801 -1.5616 -0.6656 -0.0584
12881TIP3   OH260057   5.118   3.364  11.284  0.1698  0.9403  0.4416
12881TIP3    H160058   5.211   3.384  11.272 -0.2658  2.8401 -0.0484
12881TIP3    H260059   5.074   3.412  11.214 -1.1536 -0.4691  0.2598
12882TIP3   OH260060   2.636   0.047   0.446  0.2458 -0.1146  0.6421
12882TIP3    H160061   2.595   0.096   0.519 -2.5286 -0.2397 -0.6977
12882TIP3    H260062   2.653  -0.040   0.482 -1.9762 -0.4782  0.9828
12883TIP3   OH260063   1.544   3.452   3.339  0.1087  0.6882 -0.0519
12883TIP3    H160064   1.578   3.513   3.274 -0.7503  1.4120  0.1551
12883TIP3    H260065   1.539   3.503   3.420 -0.8823  0.4392  0.0583
12884TIP3   OH260066   0.936   6.078   1.883 -0.6680  0.1158  0.3739
12884TIP3    H160067   0.909   6.161   1.844  1.4133  0.4866 -0.3891
12884TIP3    H260068   0.930   6.015   1.811 -2.2888 -0.4502  0.9635
12885TIP3   OH260069   2.942   3.568   2.236 -1.0988  0.6464 -0.1701
12885TIP3    H160070   2.899   3.619   2.168 -2.5446 -0.9016 -0.4942
12885TIP3    H260071   2.886   3.491   2.248  1.4339 -1.3794 -0.4125
12886TIP3   OH260072   6.513   0.083   5.194 -0.5777  0.1884 -0.2583
12886TIP3    H160073   6.578   0.149   5.171 -0.5295  0.6861  1.1673
12886TIP3    H260074   6.546   0.045   5.276 -1.2001 -0.7882 -0.4441
12887TIP3   OH260075   5.986   2.021  13.081 -0.0672 -0.0941  0.9419
12887TIP3    H160076   6.014   1.934  13.109  1.5843 -1.0085 -2.8765
12887TIP3    H260077   6.067   2.068  13.062 -0.9729  1.1946  0.0480
12888TIP3   OH260078   6.298   2.980   3.212  0.0456  0.0180 -0.0513
12888TIP3    H160079   6.306   2.900   3.264 -0.9822  1.0167  1.7720
12888TIP3    H260080   6.205   3.003   3.219 -0.1548  0.1734 -2.4570
12889TIP3   OH260081   6.516   6.461  14.139  0.0818 -0.3050 -0.3836
12889TIP3    H160082   6.557   6.503  14.215  2.2851  0.1549 -1.7276
12889TIP3    H260083   6.466   6.388  14.176 -0.7042  1.1810  1.6770
12890TIP3   OH260084   5.580   3.418  13.181  0.4069  0.3617  0.1168
12890TIP3    H160085   5.571   3.323  13.173 -1.6849  0.5854 -0.7518
12890TIP3    H260086   5.597   3.447  13.091  0.0269  0.8943  0.2174
12891TIP3   OH260087   6.444   2.614  15.767  0.5309  0.4355 -0.5608
12891TIP3    H160088   6.386   2.558  15.819  0.8712 -0.2227 -0.8706
12891TIP3    H260089   6.395   2.630  15.686  1.0639 -0.7625 -1.1528
12892TIP3   OH260090   5.796   3.085   1.289  0.0178  0.2103  0.6375
12892TIP3    H160091   5.772   2.992   1.291  0.4770  0.0350 -0.6451
12892TIP3    H260092   5.735   3.127   1.348 -2.5760 -0.3901 -1.4429
12893TIP3   OH260093   4.974   1.226   4.375  0.0597  0.1951  0.2282
12893TIP3    H160094   4.991   1.183   4.291  0.6083  1.1458 -0.1701
12893TIP3    H260095   4.893   1.187   4.407 -0.4505  0.2099 -1.0117
12894TIP3   OH260096   1.283   0.016  12.302 -0.3242 -0.2841  0.6803
12894TIP3    H160097   1.254  -0.066  12.264  0.9741 -0.4871  0.0583
12894TIP3    H260098   1.367  -0.005  12.343 -1.2902  0.0934  3.0622
12895TIP3   OH260099   2.803   4.646   2.423  0.0375 -0.0615  0.1653
12895TIP3    H160100   2.786   4.619   2.513 -0.3204  0.2180  0.1864
12895TIP3    H260101   2.718   4.675   2.391 -0.0165 -0.9505 -0.5368
12896TIP3   OH260102   1.225   0.341   5.133  0.3445 -0.4943  0.5197
12896TIP3    H160103   1.210   0.435   5.125  0.4215 -0.5119  0.1521
12896TIP3    H260104   1.141   0.306   5.164  0.5552 -0.2086  1.4418
12897TIP3   OH260105   3.752   0.075  16.403 -0.5106 -0.3585 -0.1765
12897TIP3    H160106   3.737  -0.020  16.400 -0.2617 -0.3862 -0.8166
12897TIP3    H260107   3.784   0.091  16.492  0.8758 -1.1075 -0.4966
12898TIP3   OH260108   3.518   6.212  15.800 -0.2125  0.3599 -0.2874
12898TIP3    H160109   3.424   6.231  15.797  0.0174  1.5316 -0.6508
12898TIP3    H260110   3.523   6.120  15.825 -1.4312  0.5415  0.7220
12899TIP3   OH260111   6.225   3.231  15.873  0.6393 -0.2203 -0.3153
12899TIP3    H160112   6.184   3.147  15.892 -0.8208  0.4928 -0.1213
12899TIP3    H260113   6.315   3.222  15.903  0.6779 -1.8956 -0.8418
12900TIP3   OH260114   3.521   5.376   2.362 -0.3889 -0.2107 -0.1730
12900TIP3    H160115   3.546   5.454   2.314 -0.0448 -0.0364  0.2822
12900TIP3    H260116   3.531   5.304   2.299  1.9044 -0.2458  0.1540
12901TIP3   OH260117   6.396   1.727   2.208  0.0127 -0.1430  0.1085
12901TIP3    H160118   6.409   1.675   2.129  0.0565  0.5274 -0.3327
12901TIP3    H260119   6.306   1.758   2.201 -0.4103 -1.1193  0.9584
12902TIP3   OH260120   3.173   0.430  16.524 -0.7579  0.2753 -0.0825
12902TIP3    H160121   3.212   0.466  16.444 -0.4649  0.8170  0.2949
12902TIP3    H260122   3.214   0.479  16.595 -1.3891  0.1495  0.3805
12903TIP3   OH260123   5.388   5.592  12.812 -0.7192  0.2886 -0.4193
12903TIP3    H160124   5.294   5.605  12.804 -0.5151  1.0252 -2.0771
12903TIP3    H260125   5.426   5.666  12.765  0.7712  1.7282  2.7659
12904TIP3   OH260126   3.109   3.591  13.816 -0.0387  0.0108  0.2252
12904TIP3    H160127   3.036   3.639  13.777  0.1215  0.9425  1.0147
12904TIP3    H260128   3.119   3.631  13.903  0.3931 -1.1710  0.7378
12905TIP3   OH260129   2.522   0.265   1.102  0.0004  0.4438 -0.1794
12905TIP3    H160130   2.455   0.219   1.052 -1.2273  0.3027  1.4783
12905TIP3    H260131   2.526   0.352   1.063 -0.4035  0.1260 -0.9499
12906TIP3   OH260132   0.176   4.794  16.989 -0.1742  0.3306 -1.0901
12906TIP3    H160133   0.225   4.861  17.036  0.0063  1.0764 -2.2842
12906TIP3    H260134   0.157   4.727  17.054  1.3519  0.6161 -0.3225
12907TIP3   OH260135   3.500   1.038  12.558  0.0248  0.4252  0.7007
12907TIP3    H160136   3.574   1.024  12.617 -0.7141  0.6319  1.6932
12907TIP3    H260137   3.472   0.949  12.534  1.0333  0.3466 -0.2724
12908TIP3   OH260138   5.205   4.331  12.643 -0.7568  0.3263  0.4076
12908TIP3    H160139   5.152   4.288  12.709  1.3502 -3.5940 -0.1924
12908TIP3    H260140   5.180   4.424  12.649 -1.5652  0.0528  5.7349
12909TIP3   OH260141   5.020   5.911  11.111  0.3193  0.2184  0.0466
12909TIP3    H160142   5.040   6.005  11.114  0.4316  0.1798  0.7808
12909TIP3    H260143   5.001   5.888  11.202  1.5047 -0.7310  0.0853
12910TIP3   OH260144   1.178   4.804  17.085 -0.2531 -0.1410 -0.7056
12910TIP3    H160145   1.263   4.760  17.092  0.4213  1.0102 -1.3522
12910TIP3    H260146   1.196   4.894  17.113 -1.1470  0.2383 -1.3312
12911TIP3   OH260147   3.550   1.461   3.011 -0.4684  0.3534 -0.4604
12911TIP3    H160148   3.573   1.552   2.993  1.4072 -0.0809 -0.3736
12911TIP3    H260149   3.460   1.466   3.046 -0.7052  2.0632 -1.2274
12912TIP3   OH260150   1.687   0.808  12.941  0.2643 -0.3421 -0.3951
12912TIP3    H160151   1.670   0.800  12.847  0.0643 -1.1955 -0.2994
12912TIP3    H260152   1.759   0.747  12.957  0.6493  0.1919 -0.0839
12913TIP3   OH260153   4.787   2.255   2.888 -0.0501  0.8350  0.0031
12913TIP3    H160154   4.712   2.282   2.835 -0.6357  0.6794  0.7479
12913TIP3    H260155   4.751   2.240   2.975  0.5424 -0.8134 -0.0062
12914TIP3   OH260156   3.368   2.652  11.429 -0.1875 -0.1666  0.2996
12914TIP3    H160157   3.279   2.627  11.402 -0.6578 -0.0072  1.6463
12914TIP3    H260158   3.425   2.595  11.377 -0.9933  0.5700 -1.5090
12915TIP3   OH260159   2.925   5.540  11.939  0.4600  0.0973  0.1025
12915TIP3    H160160   2.907   5.577  12.025 -1.1025 -3.5404  1.5732
12915TIP3    H260161   2.879   5.597  11.877  2.1143  3.1398  1.4881
12916TIP3   OH260162   3.056   4.409  12.759  0.0642  0.2191 -0.0529
12916TIP3    H160163   3.049   4.315  12.747 -2.0202  0.1371  1.3069
12916TIP3    H260164   3.148   4.423  12.782 -0.1294 -1.8872  2.4834
12917TIP3   OH260165   3.061   6.672  16.970 -0.3084 -0.2963 -0.1697
12917TIP3    H160166   3.061   6.669  17.066  2.8942 -1.8720 -0.0785
12917TIP3    H260167   2.989   6.615  16.945  0.2882 -1.8297  1.3750
12918TIP3   OH260168   5.256   5.890  11.533  0.3000  0.4783  0.3967
12918TIP3    H160169   5.276   5.980  11.507  0.7367  0.3966  0.4370
12918TIP3    H260170   5.205   5.899  11.613  0.4928  0.6876  0.4971
12919TIP3   OH260171   1.177   0.084   4.686  0.9515 -0.1372 -0.0125
12919TIP3    H160172   1.118   0.017   4.651 -0.0135  0.4889  0.3764
12919TIP3    H260173   1.263   0.061   4.652  0.2410 -0.2237 -1.8580
12920TIP3   OH260174   0.628   2.427  14.562 -0.4361  0.3459 -0.2475
12920TIP3    H160175   0.689   2.462  14.627 -0.2993 -1.4573  0.6560
12920TIP3    H260176   0.678   2.422  14.481  0.1711  0.2276  0.1334
12921TIP3   OH260177   3.231   6.628  16.754  1.0844  0.0332  0.1930
12921TIP3    H160178   3.230   6.710  16.704 -0.6021 -0.8631 -1.3753
12921TIP3    H260179   3.188   6.651  16.837  0.1119  0.6344 -0.4531
12922TIP3   OH260180   3.113   3.722  12.528 -0.4009  0.1208 -0.1877
12922TIP3    H160181   3.138   3.643  12.481  2.6354 -0.5238  2.1969
12922TIP3    H260182   3.044   3.693  12.588  0.5442 -0.7163  0.5247
12923TIP3   OH260183   6.011   1.105  14.108 -0.3592  0.4383 -0.8068
12923TIP3    H160184   5.981   1.099  14.199  0.6683 -0.4504 -0.5122
12923TIP3    H260185   5.962   1.036  14.062 -0.3115  0.3800 -0.7698
12924TIP3   OH260186   4.608   4.965   5.399  0.0997  0.5772 -0.5053
12924TIP3    H160187   4.606   5.053   5.360  0.5550  0.2796 -1.2218
12924TIP3    H260188   4.677   4.919   5.350  0.6574  0.1718  0.6376
12925TIP3   OH260189   1.397   5.661   4.542 -0.2765  0.0698 -0.3225
12925TIP3    H160190   1.357   5.576   4.524  0.1038 -0.6236  1.8216
12925TIP3    H260191   1.324   5.723   4.538 -0.8838 -0.6210 -0.1944
12926TIP3   OH260192   2.972   4.518   1.200 -0.1899 -0.8894  0.8230
12926TIP3    H160193   2.895   4.567   1.172  1.0063  0.9261  0.5167
12926TIP3    H260194   2.996   4.556   1.284  1.1326 -0.4631  0.2868
12927TIP3   OH260195   5.886   5.596  14.337  0.1727 -0.1840 -0.0738
12927TIP3    H160196   5.915   5.621  14.249  0.7789 -1.8903 -0.4135
12927TIP3    H260197   5.943   5.645  14.396  0.8730 -0.2469 -0.6818
12928TIP3   OH260198   1.141   3.158  16.926  0.4142 -0.0191  0.2838
12928TIP3    H160199   1.090   3.237  16.942  0.8385 -0.0448  1.9963
12928TIP3    H260200   1.090   3.108  16.862 -1.9408 -0.2502  2.1962
12929TIP3   OH260201   2.500   1.298  12.349 -0.1855 -0.2473  0.2581
12929TIP3    H160202   2.469   1.365  12.411 -0.9607 -0.6585  0.3154
12929TIP3    H260203   2.592   1.320  12.336  0.3226 -0.8048  2.4412
12930TIP3   OH260204   1.607   2.111  11.850  0.1425  0.0214 -0.7302
12930TIP3    H160205   1.564   2.118  11.766 -1.1091  0.4450 -0.0808
12930TIP3    H260206   1.551   2.160  11.910  0.3259 -1.3258  0.5998
12931TIP3   OH260207   3.576   5.670   1.067  0.2155 -0.5095 -0.1702
12931TIP3    H160208   3.542   5.674   0.978 -0.6330 -0.9166  0.1228
12931TIP3    H260209   3.536   5.744   1.112 -1.1891 -1.6084  0.4642
12932TIP3   OH260210   4.387   2.132  11.648 -0.0019 -0.8479  0.0213
12932TIP3    H160211   4.419   2.119  11.558 -3.0245  0.5387 -1.4089
12932TIP3    H260212   4.448   2.196  11.685  0.9431 -0.9482 -1.2430
12933TIP3   OH260213   2.094   4.643   5.503 -0.2382 -0.1104 -0.3053
12933TIP3    H160214   2.163   4.577   5.503 -1.3041 -1.2525 -0.0675
12933TIP3    H260215   2.030   4.611   5.567 -0.1617  1.8384  0.8183
12934TIP3   OH260216   3.370   2.006  13.849  0.2632  0.6418  1.0456
12934TIP3    H160217   3.434   1.989  13.781 -1.8760 -1.2303 -0.6683
12934TIP3    H260218   3.396   1.948  13.921  0.1928 -0.6106  0.1099
12935TIP3   OH260219   1.003   4.824  15.838  0.2369  0.4073  0.0340
12935TIP3    H160220   1.017   4.745  15.890  0.1987  0.8918  0.7929
12935TIP3    H260221   1.092   4.856  15.822  0.2342  0.4459  0.0962
12936TIP3   OH260222   0.497   4.786   4.368  0.3935  0.7867  0.7643
12936TIP3    H160223   0.501   4.818   4.277  0.2784  0.5917  0.6891
12936TIP3    H260224   0.417   4.825   4.403 -1.4573 -1.7924 -0.2687
12937TIP3   OH260225   4.989   2.080   2.284  0.5122  0.2726 -0.3059
12937TIP3    H160226   5.049   2.028   2.337  0.8167  0.0142 -0.8986
12937TIP3    H260227   4.903   2.041   2.299  0.5819  0.2737  0.0874
12938TIP3   OH260228   0.443   0.796  16.513  0.0838 -0.0347  0.6245
12938TIP3    H160229   0.399   0.734  16.571 -1.9196  1.1416  0.4848
12938TIP3    H260230   0.536   0.779  16.525 -0.3533 -1.7907  1.9614
12939TIP3   OH260231   4.627   2.288  13.885  0.1810  0.0483 -0.0943
12939TIP3    H160232   4.672   2.211  13.919 -0.2039 -0.6513 -1.1069
12939TIP3    H260233   4.638   2.355  13.952 -1.4277 -1.5377  1.8751
12940TIP3   OH260234   5.918   6.139   4.183 -0.0740 -0.0251 -1.3325
12940TIP3    H160235   5.989   6.076   4.176  0.1759  0.1886 -0.8426
12940TIP3    H260236   5.869   6.111   4.261 -0.0100  0.3251 -1.1622
12941TIP3   OH260237   5.832   2.363   6.175  0.1241  0.7265 -0.6982
12941TIP3    H160238   5.766   2.431   6.167 -2.2797 -1.4274 -0.4551
12941TIP3    H260239   5.858   2.365   6.267 -0.0949  1.1381 -0.6422
12942TIP3   OH260240   2.140   5.120  13.949 -0.3017  0.3225  0.1813
12942TIP3    H160241   2.100   5.163  14.025 -1.1673 -0.2937  0.0830
12942TIP3    H260242   2.199   5.055  13.986 -0.7910 -0.0383  0.3253
12943TIP3   OH260243   6.540   1.176  17.083 -0.4576 -0.5594  0.3449
12943TIP3    H160244   6.472   1.194  17.148  0.1780  0.5843  0.7208
12943TIP3    H260245   6.575   1.090  17.108 -0.4555 -0.2894  1.3205
12944TIP3   OH260246   1.171   5.275  11.335 -0.0177 -0.1490 -0.2556
12944TIP3    H160247   1.097   5.214  11.338 -0.2527  0.0669 -1.3107
12944TIP3    H260248   1.247   5.218  11.325 -0.1442 -0.3167 -0.2819
12945TIP3   OH260249   2.332   1.438  17.163  0.0881  0.2322 -0.0017
12945TIP3    H160250   2.238   1.435  17.180 -0.2908  2.1823 -1.4039
12945TIP3    H260251   2.353   1.532  17.158  1.8606 -0.1565 -0.9412
12946TIP3   OH260252   5.801   0.729   3.694  0.3545  0.0789 -0.7555
12946TIP3    H160253   5.786   0.748   3.787 -0.5634  3.1499 -1.3962
12946TIP3    H260254   5.727   0.770   3.649  1.6097  0.1209 -2.9388
12947TIP3   OH260255   2.032   2.672  16.407 -0.0863  0.4615  0.2851
12947TIP3    H160256   2.016   2.676  16.313 -0.6682 -0.3387  0.3441
12947TIP3    H260257   1.976   2.601  16.438  0.8474  0.0437  1.0796
12948TIP3   OH260258   3.897   3.170   3.056  0.2414 -0.3115  0.4047
12948TIP3    H160259   3.928   3.259   3.039  1.8780 -0.7777  0.8439
12948TIP3    H260260   3.936   3.146   3.140 -0.2401 -1.4308  0.3334
12949TIP3   OH260261   0.510   2.324  14.014 -0.7392  0.5484  0.3749
12949TIP3    H160262   0.459   2.405  14.018  0.4067  1.2347  2.0570
12949TIP3    H260263   0.474   2.270  14.085 -1.4046 -0.4028 -0.6481
12950TIP3   OH260264   1.457   5.632  16.818 -0.3307 -0.0291  0.1216
12950TIP3    H160265   1.530   5.693  16.806 -0.7157  0.5422  0.6874
12950TIP3    H260266   1.397   5.652  16.747 -0.1731 -0.1670 -0.0533
12951TIP3   OH260267   1.859   6.215   4.276 -0.5721  0.4193 -0.2660
12951TIP3    H160268   1.894   6.193   4.190  0.7954 -2.6357  0.9222
12951TIP3    H260269   1.810   6.136   4.302 -0.2107  0.9084  2.0790
12952TIP3   OH260270   4.387   1.944  16.966 -0.3356  0.1897  0.1316
12952TIP3    H160271   4.381   1.851  16.991  1.9662  0.3048  1.4301
12952TIP3    H260272   4.403   1.989  17.049  0.7354  1.4617 -0.7372
12953TIP3   OH260273   4.233   0.321  15.830  0.1430 -0.7190  0.6299
12953TIP3    H160274   4.188   0.398  15.793 -0.0239 -1.7000 -1.3177
12953TIP3    H260275   4.187   0.246  15.793  1.2989 -1.7702  1.2498
12954TIP3   OH260276   5.697   6.153  12.360 -0.1570  0.1755 -0.3460
12954TIP3    H160277   5.722   6.166  12.451  0.8757 -0.0690 -0.5812
12954TIP3    H260278   5.750   6.079  12.331 -0.5843  0.1576 -1.1034
12955TIP3   OH260279   3.261   5.267  14.426 -0.0719  0.0521  0.6900
12955TIP3    H160280   3.324   5.312  14.369  1.8334 -0.0432  2.6165
12955TIP3    H260281   3.196   5.335  14.447  0.5422  0.7670  0.3406
12956TIP3   OH260282   1.084   5.108  11.625 -0.4164 -0.0697  0.6144
12956TIP3    H160283   1.101   5.194  11.662 -0.5762 -0.8829  2.6966
12956TIP3    H260284   1.054   5.126  11.536  1.3663  1.9055  0.3163
12957TIP3   OH260285   6.280   0.772  16.175 -0.2672  0.4654  0.6965
12957TIP3    H160286   6.330   0.846  16.139 -0.5608  0.0473 -0.6105
12957TIP3    H260287   6.189   0.794  16.157 -0.4599  0.4665  1.6333
12958TIP3   OH260288   3.383   1.527  15.375 -0.0629 -0.4275 -0.0674
12958TIP3    H160289   3.462   1.579  15.387 -0.1925 -0.2635  0.0810
12958TIP3    H260290   3.311   1.586  15.397 -0.2880 -0.2533 -1.1949
12959TIP3   OH260291   2.669   5.909  15.122 -0.1187 -0.0271 -0.1269
12959TIP3    H160292   2.657   5.940  15.211 -0.5742 -0.4727 -0.0294
12959TIP3    H260293   2.685   5.815  15.131  0.6862  0.0705 -0.4553
12960TIP3   OH260294   3.390   0.912   3.725 -0.3857  0.3662 -0.1023
12960TIP3    H160295   3.349   0.897   3.810  0.2448 -0.7676  0.0212
12960TIP3    H260296   3.323   0.886   3.662 -0.7513  0.9385  0.0402
12961TIP3   OH260297   2.594   4.771  11.902 -0.3578 -0.4033  0.2744
12961TIP3    H160298   2.648   4.716  11.958  1.4062  0.1167 -0.8309
12961TIP3    H260299   2.596   4.727  11.816 -0.8232  0.1751 -0.0388
12962TIP3   OH260300   6.267   0.768  14.325  0.1002 -0.5541  0.2546
12962TIP3    H160301   6.227   0.755  14.239 -1.4831 -0.2984  0.9272
12962TIP3    H260302   6.222   0.844  14.362  0.6765 -0.7270  1.3627
12963TIP3   OH260303   5.093   5.804   3.313  0.0962  0.8017  0.2436
12963TIP3    H160304   5.036   5.873   3.280  0.8374  1.2714 -0.0700
12963TIP3    H260305   5.149   5.781   3.238 -0.7325 -0.7810  0.0561
12964TIP3   OH260306   0.353   2.136   5.401  0.0160  0.1575  0.1513
12964TIP3    H160307   0.436   2.177   5.379  0.1747  0.0427  0.5273
12964TIP3    H260308   0.359   2.118   5.495 -0.1311 -0.5390  0.0314
12965TIP3   OH260309   1.206   6.373   0.153  0.0052 -0.5271 -0.1652
12965TIP3    H160310   1.181   6.447   0.097  1.4370 -0.7374 -1.1254
12965TIP3    H260311   1.213   6.411   0.240 -1.6237 -0.0572 -0.1872
12966TIP3   OH260312   5.951   5.042  13.348 -0.1058  0.5530 -0.1480
12966TIP3    H160313   5.988   5.093  13.276  0.8780  1.1612  0.7557
12966TIP3    H260314   5.916   5.107  13.408  0.6897  0.1644  0.7677
12967TIP3   OH260315   0.985   1.761   3.840  0.4532  0.2961  0.2143
12967TIP3    H160316   1.003   1.723   3.754 -2.2195 -2.6737  0.7630
12967TIP3    H260317   1.068   1.755   3.887  0.9549 -2.2557 -0.7954
12968TIP3   OH260318   6.309   1.015  15.043 -0.5238 -0.0710  0.1453
12968TIP3    H160319   6.320   0.952  15.114  1.9831 -0.2102 -0.2828
12968TIP3    H260320   6.226   0.991  15.002  0.1938 -2.9173  0.1718
12969TIP3   OH260321   6.342   0.502  15.454  0.2038 -0.3118 -0.1018
12969TIP3    H160322   6.410   0.502  15.522  2.4296 -3.8100 -2.0051
12969TIP3    H260323   6.270   0.452  15.493  0.4447 -0.2060  0.4949
12970TIP3   OH260324   1.302   1.436  15.715  0.0398  0.3647 -0.4658
12970TIP3    H160325   1.329   1.503  15.653  1.3046  0.3561  0.0530
12970TIP3    H260326   1.305   1.354  15.665 -1.2679  0.6383 -1.0308
12971TIP3   OH260327   2.115   2.591  11.872 -0.3007  0.3090  0.7195
12971TIP3    H160328   2.051   2.581  11.943 -0.4573  1.9754  0.8598
12971TIP3    H260329   2.077   2.658  11.815  0.1858 -0.4564 -0.5416
12972TIP3   OH260330   5.173   1.685  16.468  0.8081  0.0103 -0.0171
12972TIP3    H160331   5.110   1.746  16.428 -1.5477 -2.4399 -0.3551
12972TIP3    H260332   5.235   1.665  16.398  0.2773  0.3525 -0.5925
12973TIP3   OH260333   0.338   2.123  11.469  0.3873 -0.1926  0.3287
12973TIP3    H160334   0.418   2.073  11.454  0.3593  0.3666 -2.1551
12973TIP3    H260335   0.338   2.143  11.563  2.7811 -0.7848  0.5003
12974TIP3   OH260336   5.560   1.318   1.331  0.3486 -0.3317  0.0613
12974TIP3    H160337   5.474   1.356   1.313  0.5983 -0.1138 -0.6874
12974TIP3    H260338   5.543   1.250   1.396 -0.2669  0.2831  0.5558
12975TIP3   OH260339   4.399   6.498   6.099  0.6877 -0.0760  0.0341
12975TIP3    H160340   4.382   6.527   6.009  4.0181  0.4120 -0.5892
12975TIP3    H260341   4.376   6.573   6.153 -0.2288  0.0619 -0.5329
12976TIP3   OH260342   6.103   1.086  17.123  0.6984 -0.4630 -0.6596
12976TIP3    H160343   6.172   1.031  17.085  1.3383 -0.9441  1.0746
12976TIP3    H260344   6.029   1.027  17.137  0.2056 -0.1305 -1.7556
12977TIP3   OH260345   6.344   2.908  11.704 -0.2387 -0.1997  0.0204
12977TIP3    H160346   6.322   2.816  11.720 -2.8761  0.6654  1.9953
12977TIP3    H260347   6.438   2.907  11.684 -0.1108 -3.2487  0.3462
12978TIP3   OH260348   5.042   5.681   1.329  0.2047  0.4448 -0.3722
12978TIP3    H160349   5.076   5.593   1.311 -0.8289 -0.2506  0.8324
12978TIP3    H260350   4.962   5.687   1.276 -0.3162  0.2123  0.3700
12979TIP3   OH260351   6.441   5.483   5.015 -0.0793 -0.4806 -0.0025
12979TIP3    H160352   6.423   5.475   4.921  1.4456  1.4286 -0.5227
12979TIP3    H260353   6.356   5.470   5.057 -0.9001 -0.8056 -1.6760
12980TIP3   OH260354   3.675   5.940  13.875  0.3348  0.3454  0.6039
12980TIP3    H160355   3.737   5.880  13.833 -0.6627  0.1586 -0.6416
12980TIP3    H260356   3.701   6.026  13.844  0.4765  0.3575  0.7498
12981TIP3   OH260357   1.684   4.063   6.343 -0.0013  0.2664  0.3761
12981TIP3    H160358   1.721   3.994   6.287 -2.6704 -0.6723 -0.4392
12981TIP3    H260359   1.756   4.123   6.359  1.4828 -0.6668 -2.1706
12982TIP3   OH260360   5.746   0.273  12.581  0.1419 -0.1828 -0.0527
12982TIP3    H160361   5.836   0.291  12.553  0.3815 -1.0716  0.1145
12982TIP3    H260362   5.702   0.357  12.576  1.0891  0.3427  0.2373
12983TIP3   OH260363   0.968   4.551  15.133  0.1900 -0.4223  0.1705
12983TIP3    H160364   0.907   4.510  15.195  0.3598  0.0697  0.6722
12983TIP3    H260365   1.037   4.486  15.121 -0.1064 -0.7284  0.0938
12984TIP3   OH260366   3.353   2.416   4.673  0.4298  0.0134 -0.1812
12984TIP3    H160367   3.358   2.436   4.579 -1.9042  0.8819 -0.2040
12984TIP3    H260368   3.268   2.451   4.700  0.6695 -0.9755  2.0981
12985TIP3   OH260369   3.572   4.970  14.296 -0.2089  0.1159  0.7439
12985TIP3    H160370   3.614   5.056  14.297 -0.9709  0.5083  0.1196
12985TIP3    H260371   3.489   4.983  14.343  0.0603 -0.4944  1.4107
12986TIP3   OH260372   3.028   3.195  11.217  0.2457  0.0600  0.1335
12986TIP3    H160373   3.099   3.252  11.245  0.9510 -1.0466  0.6628
12986TIP3    H260374   3.008   3.224  11.128 -0.4596  2.1132  0.9076
12987TIP3   OH260375   0.325   6.233   2.263 -0.0546  0.3175 -0.5421
12987TIP3    H160376   0.248   6.254   2.210  1.5988  0.4664 -3.0439
12987TIP3    H260377   0.289   6.203   2.346 -2.7733  1.3531 -1.2425
12988TIP3   OH260378   1.128   3.375  14.855 -0.6213 -0.2078  0.3910
12988TIP3    H160379   1.180   3.296  14.868  0.6509  0.3318 -1.1485
12988TIP3    H260380   1.037   3.344  14.851 -0.1014 -1.6691 -0.6918
12989TIP3   OH260381   6.029   1.995  17.111 -0.0723  0.4817  0.8528
12989TIP3    H160382   5.935   2.008  17.097  0.0624 -0.6617 -1.7249
12989TIP3    H260383   6.034   1.948  17.194 -1.6910  1.3781  1.5056
12990TIP3   OH260384   0.356   0.948  14.875 -0.6636  0.2625 -0.2651
12990TIP3    H160385   0.268   0.971  14.845 -0.6205  1.5107  0.4721
12990TIP3    H260386   0.355   0.968  14.969  0.3210  0.0365 -0.1947
12991TIP3   OH260387   3.347   0.822  16.130  0.3825 -0.2232  0.1058
12991TIP3    H160388   3.258   0.795  16.107  0.5543  0.0660 -0.9645
12991TIP3    H260389   3.337   0.873  16.210 -0.1776 -1.7861  1.0835
12992TIP3   OH260390   3.647   5.879   0.709 -0.0146 -0.7759  0.0401
12992TIP3    H160391   3.575   5.824   0.740  0.2821 -1.1658  0.0338
12992TIP3    H260392   3.721   5.820   0.700 -0.4600 -1.0184 -2.9239
12993TIP3   OH260393   5.377   1.135   0.289  0.5823 -0.3889 -0.0202
12993TIP3    H160394   5.439   1.064   0.303  1.7283  0.4510 -0.6391
12993TIP3    H260395   5.331   1.113   0.209  1.1308 -0.3094 -0.3608
12994TIP3   OH260396   1.721   4.998  15.585  0.1025  0.3799  0.3343
12994TIP3    H160397   1.654   4.930  15.589 -1.6443  1.9902  0.4962
12994TIP3    H260398   1.710   5.038  15.499 -0.1605  1.5844  0.8975
12995TIP3   OH260399   4.861   3.304   0.079 -0.5419 -0.2855  0.2500
12995TIP3    H160400   4.836   3.253   0.002 -0.6145 -0.0812  0.1362
12995TIP3    H260401   4.876   3.393   0.044 -0.8978 -0.1159  0.5265
12996TIP3   OH260402   5.955   5.543   6.371  0.5411  0.2569 -0.7144
12996TIP3    H160403   6.044   5.513   6.391  0.8061  0.8296 -0.9958
12996TIP3    H260404   5.909   5.464   6.342  0.3895 -0.4210  1.2462
12997TIP3   OH260405   1.515   3.830  15.864 -0.2820 -0.2250 -0.0565
12997TIP3    H160406   1.435   3.777  15.863  0.1385 -0.9408  1.1419
12997TIP3    H260407   1.573   3.782  15.924  0.5144  1.0363  0.1988
12998TIP3   OH260408   6.088   3.867  14.015 -0.0739  0.7818  0.3438
12998TIP3    H160409   6.073   3.957  14.047 -1.4317  1.0903 -1.0371
12998TIP3    H260410   6.172   3.871  13.970 -0.0305  1.3204  0.4621
12999TIP3   OH260411   6.472   2.107  16.463  0.8164  0.2317  0.2803
12999TIP3    H160412   6.492   2.106  16.556 -2.2387 -0.5975  1.0489
12999TIP3    H260413   6.530   2.041  16.425  1.0370 -0.5306  1.8842
13000TIP3   OH260414   2.344   1.286   3.402 -0.4166 -0.1864 -0.6228
13000TIP3    H160415   2.379   1.198   3.417 -2.6071 -1.1421 -0.6869
13000TIP3    H260416   2.256   1.271   3.368 -0.7191  2.0494 -0.9725
13001TIP3   OH260417   0.616   5.121  15.599 -0.1845  0.0205  0.6036
13001TIP3    H160418   0.549   5.056  15.618  0.4263 -0.0357  2.8946
13001TIP3    H260419   0.699   5.078  15.618  0.2916  1.1260  1.1627
13002TIP3   OH260420   1.130   5.352  11.736  0.5656 -0.1374 -0.0697
13002TIP3    H160421   1.051   5.386  11.694 -1.1964 -1.4514  1.9629
13002TIP3    H260422   1.148   5.415  11.806 -0.2688 -1.1240  1.0854
13003TIP3   OH260423   4.316   5.256  16.016 -0.0086 -0.0737  0.0702
13003TIP3    H160424   4.224   5.273  16.039  0.0222 -0.5081  0.5353
13003TIP3    H260425   4.346   5.338  15.977 -0.8522 -0.2139 -0.9286
13004TIP3   OH260426   2.358   0.473   2.875 -0.2472 -0.1791  0.6093
13004TIP3    H160427   2.294   0.524   2.826 -0.4538  0.6549  1.7152
13004TIP3    H260428   2.357   0.387   2.833 -0.2224  0.5779 -0.9870
13005TIP3   OH260429   0.637   1.798   5.518 -0.1530 -0.1325  0.3483
13005TIP3    H160430   0.630   1.892   5.503 -1.9440 -0.2547  0.1977
13005TIP3    H260431   0.644   1.760   5.430  0.2428 -0.1662  0.3928
13006TIP3   OH260432   2.476   4.394   1.706 -0.6760  0.3717 -0.2389
13006TIP3    H160433   2.486   4.472   1.651 -1.6963  0.3703 -0.4460
13006TIP3    H260434   2.394   4.409   1.753 -1.0691 -0.7464 -0.5534
13007TIP3   OH260435   5.414   2.401  11.277 -0.0119 -0.3466 -0.0114
13007TIP3    H160436   5.357   2.423  11.350  0.4016 -0.2415  0.2842
13007TIP3    H260437   5.383   2.454  11.204  1.7380  2.2588  0.9922
13008TIP3   OH260438   2.026   4.339   5.439 -0.1591 -0.2554  0.6911
13008TIP3    H160439   2.109   4.346   5.486 -0.7629  2.4681  1.5551
13008TIP3    H260440   2.050   4.310   5.351  1.4318 -1.6524  1.5220
13009TIP3   OH260441   1.990   4.876   5.645 -0.0782  0.3859  0.0223
13009TIP3    H160442   1.996   4.843   5.734 -0.1330 -3.0273 -1.0953
13009TIP3    H260443   2.030   4.807   5.591 -0.1197  2.2667 -2.6226
13010TIP3   OH260444   1.972   6.450   3.052 -0.0505  0.0464 -0.3286
13010TIP3    H160445   2.024   6.439   2.973  0.4641  2.9016 -0.4810
13010TIP3    H260446   2.017   6.397   3.118 -0.6790 -2.6634 -1.8967
13011TIP3   OH260447   1.572   2.810   2.464 -0.1243  0.1090  0.2027
13011TIP3    H160448   1.652   2.787   2.510  0.1357  1.2216  0.3320
13011TIP3    H260449   1.568   2.748   2.391  1.8953  1.2320 -0.9516
13012TIP3   OH260450   0.720   1.268   3.578  0.0214  0.3237  0.7461
13012TIP3    H160451   0.698   1.237   3.490  1.9548 -0.8530  0.6189
13012TIP3    H260452   0.708   1.192   3.634  0.8039  0.4778  1.1402
13013TIP3   OH260453   4.331   3.535  16.867 -0.3084  0.0011 -0.1168
13013TIP3    H160454   4.290   3.616  16.839  0.1146  0.1103 -0.4336
13013TIP3    H260455   4.262   3.469  16.860 -0.0588 -0.1268 -2.1471
13014TIP3   OH260456   4.304   5.496   1.944 -0.1082 -0.3793  0.2702
13014TIP3    H160457   4.266   5.547   2.016  0.0528 -1.8518  1.4489
13014TIP3    H260458   4.353   5.426   1.988  0.3240 -1.0833 -1.2769
13015TIP3   OH260459   3.006   5.258  14.804 -0.5250  0.1051 -0.2477
13015TIP3    H160460   3.009   5.298  14.717 -1.1454  0.5461 -0.0785
13015TIP3    H260461   3.083   5.292  14.850 -1.2790  1.4936  0.0430
13016TIP3   OH260462   2.371   5.834   6.032 -0.0783 -0.0892  0.3986
13016TIP3    H160463   2.284   5.858   6.063 -0.2564 -0.4361  0.1759
13016TIP3    H260464   2.430   5.898   6.072 -0.4281  0.1040  0.6039
13017TIP3   OH260465   3.770   5.747   5.859 -0.0482 -0.2577  0.0291
13017TIP3    H160466   3.827   5.677   5.888  0.2906  0.3749  0.9244
13017TIP3    H260467   3.736   5.786   5.939  0.0822  0.8564 -0.4371
13018TIP3   OH260468   5.548   6.032   4.958  0.5730  0.1467 -0.0046
13018TIP3    H160469   5.467   5.983   4.939 -0.6750  1.7897  0.8599
13018TIP3    H260470   5.559   6.089   4.882  0.2447  0.7620  0.4026
13019TIP3   OH260471   3.421   6.798  15.535  0.4485 -0.4834  0.0818
13019TIP3    H160472   3.511   6.776  15.558  1.4299  2.7171 -0.2775
13019TIP3    H260473   3.392   6.857  15.604 -0.6372  0.1300 -0.8669
13020TIP3   OH260474   4.432   3.045  16.027 -0.2769  0.4166 -0.0497
13020TIP3    H160475   4.486   3.118  15.998  1.8735 -1.4645 -1.1197
13020TIP3    H260476   4.461   3.028  16.117 -0.0271  0.2118 -0.1700
13021TIP3   OH260477   4.490   2.504   6.214  0.3102  0.0987  0.0023
13021TIP3    H160478   4.397   2.481   6.220  0.3449 -0.3356 -0.9659
13021TIP3    H260479   4.520   2.503   6.305 -0.5578 -0.0730  0.3009
13022TIP3   OH260480   0.262   2.018   3.601  0.3438 -0.2266 -0.4045
13022TIP3    H160481   0.191   2.081   3.614 -0.5334 -1.1678 -0.4854
13022TIP3    H260482   0.318   2.030   3.677 -0.1891  0.1563 -0.0588
13023TIP3   OH260483   1.189   6.756   4.972 -0.2466  0.2842  0.0804
13023TIP3    H160484   1.168   6.774   4.881 -0.0708 -1.6541 -0.3819
13023TIP3    H260485   1.264   6.697   4.969 -2.3767 -2.7145  1.2716
13024TIP3   OH260486   0.864   1.075   4.759  0.0922 -0.5310  0.7998
13024TIP3    H160487   0.956   1.066   4.732 -0.5601 -1.5783 -1.2429
13024TIP3    H260488   0.839   0.986   4.786 -0.1727 -0.1204  1.9661
13025TIP3   OH260489   1.753   3.368  13.683 -0.6074 -0.5397  1.2662
13025TIP3    H160490   1.666   3.385  13.648  1.3655  1.5565 -3.4382
13025TIP3    H260491   1.760   3.272  13.684 -2.3385 -0.7342 -0.2933
13026TIP3   OH260492   6.795   4.409   2.698  0.1954  0.0554 -0.1515
13026TIP3    H160493   6.789   4.467   2.622 -0.8981  1.9019  1.2623
13026TIP3    H260494   6.753   4.327   2.669 -1.6109  1.2503 -1.0764
13027TIP3   OH260495   5.154   5.122  16.450  0.5217 -0.4562  1.1603
13027TIP3    H160496   5.243   5.116  16.415 -0.0865 -2.8193 -0.2549
13027TIP3    H260497   5.142   5.039  16.496 -1.4123 -0.8128  0.0763
13028TIP3   OH260498   5.885   3.637   4.422 -0.3678 -0.5699 -0.0004
13028TIP3    H160499   5.902   3.582   4.346 -0.0958 -0.9667  0.3413
13028TIP3    H260500   5.946   3.710   4.414 -0.7126 -0.3250 -0.4425
13029TIP3   OH260501   1.508   4.175  11.639  0.2050  0.2781 -0.2805
13029TIP3    H160502   1.553   4.180  11.555  1.0121  1.9560  0.2248
13029TIP3    H260503   1.424   4.134  11.618  0.4695  0.4857 -1.8760
13030TIP3   OH260504   0.631   2.709  16.159  0.3533  0.4910 -0.3514
13030TIP3    H160505   0.724   2.732  16.152  0.7323 -0.6673  0.5162
13030TIP3    H260506   0.631   2.622  16.199 -1.0738 -0.0180 -1.3848
13031TIP3   OH260507   2.530   4.207  17.165 -0.0242  0.9480 -0.6271
13031TIP3    H160508   2.498   4.118  17.150  1.6410  0.4554 -1.4388
13031TIP3    H260509   2.531   4.216  17.260 -2.5161  1.0060 -0.5505
13032TIP3   OH260510   0.844   5.899   2.097  0.4249 -0.2210  0.1702
13032TIP3    H160511   0.923   5.894   2.151  0.0786  2.0005  0.9746
13032TIP3    H260512   0.872   5.940   2.016  0.5300 -1.6552 -0.5486
13033TIP3   OH260513   5.192   6.697  16.858  0.0777 -0.0846  0.3308
13033TIP3    H160514   5.154   6.611  16.875 -0.7579  0.5906  2.1602
13033TIP3    H260515   5.216   6.730  16.945  2.3883  0.6590 -0.5240
13034TIP3   OH260516   2.319   1.632  14.464  0.6942  0.2994 -0.1716
13034TIP3    H160517   2.338   1.646  14.371 -1.3882  0.2313 -0.6570
13034TIP3    H260518   2.237   1.583  14.465  0.6121  0.3785  1.7268
13035TIP3   OH260519   4.931   2.832  11.243  0.0390  0.2082 -0.5634
13035TIP3    H160520   4.876   2.865  11.172 -2.0948  0.6834  1.2276
13035TIP3    H260521   4.870   2.800  11.309  1.9252  0.0224  1.2104
13036TIP3   OH260522   2.217   6.283   6.358 -0.1107  0.0365 -0.2857
13036TIP3    H160523   2.210   6.256   6.450  2.1919 -0.6932 -0.2596
13036TIP3    H260524   2.227   6.378   6.363 -1.7192  0.2284  0.0522
13037TIP3   OH260525   3.642   2.113   1.414 -0.5376 -0.4468 -0.6590
13037TIP3    H160526   3.580   2.184   1.396  0.2932  0.3031 -0.6137
13037TIP3    H260527   3.602   2.063   1.485 -0.9847  0.1554 -0.4849
13038TIP3   OH260528   5.754   1.207   6.025  0.3581 -0.7552 -0.0714
13038TIP3    H160529   5.846   1.234   6.029  0.2084 -0.3394  0.6912
13038TIP3    H260530   5.718   1.258   5.952  0.4514 -0.0105  0.3861
13039TIP3   OH260531   4.355   2.151   1.502 -0.3086 -0.1864 -0.2480
13039TIP3    H160532   4.424   2.173   1.564 -0.4672  1.2852 -0.5589
13039TIP3    H260533   4.381   2.195   1.421  0.6157 -3.1737 -1.7188
13040TIP3   OH260534   2.331   5.965  16.425  0.3428 -0.3044  0.2000
13040TIP3    H160535   2.314   5.885  16.474 -0.7112  0.0115  0.3741
13040TIP3    H260536   2.280   5.956  16.345 -0.2182  0.4160  0.4639
13041TIP3   OH260537   4.759   3.482  11.306  0.0364  0.0371  0.0017
13041TIP3    H160538   4.828   3.481  11.239 -0.6908  0.3495 -0.7735
13041TIP3    H260539   4.708   3.560  11.286 -1.9189 -1.3722 -0.8991
13042TIP3   OH260540   6.679   6.576  11.464 -0.4532  0.2089  0.1321
13042TIP3    H160541   6.692   6.511  11.395  2.0567 -0.0972  0.7840
13042TIP3    H260542   6.684   6.526  11.546  3.5734  1.2848  0.7451
13043TIP3   OH260543   5.486   2.548   1.863 -0.2744  0.3508  0.4092
13043TIP3    H160544   5.424   2.617   1.888  0.0521  0.6212  0.4793
13043TIP3    H260545   5.431   2.472   1.845 -0.9600  1.4241 -2.6319
13044TIP3   OH260546   2.610   0.313  16.533 -0.0892  0.1897 -0.7218
13044TIP3    H160547   2.686   0.256  16.523  0.1158  0.4895 -0.8800
13044TIP3    H260548   2.601   0.356  16.448  0.3203  1.0894 -0.3194
13045TIP3   OH260549   3.775   4.211  15.714  0.1043 -0.1080 -0.1815
13045TIP3    H160550   3.776   4.265  15.793 -0.8390 -0.7286  0.2752
13045TIP3    H260551   3.848   4.245  15.661  3.0262 -1.8048  2.3710
13046TIP3   OH260552   6.190   1.833   4.401  0.1052  0.1932  0.0620
13046TIP3    H160553   6.270   1.810   4.449  0.5419  2.2715  0.4174
13046TIP3    H260554   6.187   1.772   4.328  2.4647  0.5605 -0.4140
13047TIP3   OH260555   5.348   3.052   0.753 -0.0441  0.2204 -0.1512
13047TIP3    H160556   5.362   3.099   0.834 -2.5898 -0.0001  0.4938
13047TIP3    H260557   5.380   3.111   0.685  0.9581  0.9332  0.9032
13048TIP3   OH260558   5.210   1.641   5.948 -0.4191 -0.3596 -0.3482
13048TIP3    H160559   5.130   1.673   5.907 -1.8231 -1.5046  1.3168
13048TIP3    H260560   5.219   1.693   6.028  0.5593 -0.2015 -0.5467
13049TIP3   OH260561   6.372   2.360   1.730  0.1341  0.2905  0.1245
13049TIP3    H160562   6.439   2.302   1.694 -0.2817  0.3846 -0.8339
13049TIP3    H260563   6.295   2.303   1.741 -0.8839  1.0020 -2.6236
13050TIP3   OH260564   1.452   5.840  11.224 -0.2155  0.3245  0.2670
13050TIP3    H160565   1.403   5.758  11.228 -1.7260  1.1743 -0.2119
13050TIP3    H260566   1.435   5.874  11.137  1.4013  0.5653  0.0257
13051TIP3   OH260567   0.569   1.619  11.259 -0.0378 -0.2037 -0.0615
13051TIP3    H160568   0.496   1.626  11.198 -0.2484  1.2425  0.3069
13051TIP3    H260569   0.530   1.642  11.344  1.2031  2.8409 -0.1715
13052TIP3   OH260570   4.561   3.754  13.960 -0.2654 -0.4327 -0.2636
13052TIP3    H160571   4.591   3.838  13.924 -0.6731  0.0683  0.5517
13052TIP3    H260572   4.510   3.777  14.037 -0.1322 -1.4519  0.1482
13053TIP3   OH260573   6.745   2.184   5.903 -0.2063  0.6167  0.0603
13053TIP3    H160574   6.744   2.089   5.901 -1.3136  0.5894  1.0043
13053TIP3    H260575   6.801   2.206   5.978  0.0413  0.7195 -0.1511
13054TIP3   OH260576   3.713   0.719  16.854  0.4805 -0.1946 -0.0746
13054TIP3    H160577   3.620   0.745  16.854 -0.2104 -2.4542  0.9643
13054TIP3    H260578   3.747   0.755  16.936  1.0198  2.0508 -1.2075
13055TIP3   OH260579   4.509   5.254   4.005  0.0570  0.3362 -0.2483
13055TIP3    H160580   4.495   5.173   4.055  0.7460 -1.9278 -3.4165
13055TIP3    H260581   4.435   5.309   4.028 -1.3066 -1.8218  0.8980
13056TIP3   OH260582   0.042   0.965   2.220  0.5028 -0.2510  0.1288
13056TIP3    H160583  -0.049   0.955   2.190  1.2769 -1.7938 -1.9564
13056TIP3    H260584   0.092   0.978   2.139  1.9555  3.0642  1.3654
13057TIP3   OH260585   4.344   6.630   1.044 -0.5182  0.1443  0.3365
13057TIP3    H160586   4.355   6.536   1.031 -1.6396 -0.0714  0.8589
13057TIP3    H260587   4.350   6.642   1.139 -0.4811  0.5853  0.2803
13058TIP3   OH260588   5.844   3.136   2.756 -0.1768 -0.7402  0.1780
13058TIP3    H160589   5.832   3.092   2.672 -0.0506  1.1654 -0.9042
13058TIP3    H260590   5.830   3.068   2.821 -0.0902 -2.3278 -1.3812
13059TIP3   OH260591   6.437   6.697   1.048  0.2874  0.7652 -0.3418
13059TIP3    H160592   6.424   6.773   0.991  0.5720  1.8722  0.9994
13059TIP3    H260593   6.351   6.683   1.089  0.7957  2.0028  1.2896
13060TIP3   OH260594   4.152   1.114   4.295 -1.1380  0.0170 -0.5513
13060TIP3    H160595   4.128   1.064   4.373  0.0737 -1.7533 -1.2537
13060TIP3    H260596   4.176   1.200   4.328  0.3631 -1.0102  1.2036
13061TIP3   OH260597   3.890   1.738   4.796 -0.1919 -0.0827 -0.2462
13061TIP3    H160598   3.902   1.644   4.782 -0.1622 -0.2805  1.0026
13061TIP3    H260599   3.835   1.766   4.722  0.5396 -0.8882 -1.1237
13062TIP3   OH260600   3.659   2.875  15.439 -0.1912  0.3816 -0.9191
13062TIP3    H160601   3.733   2.915  15.484  0.2940  0.4598 -1.7745
13062TIP3    H260602   3.688   2.786  15.420 -0.7917  0.0095 -0.1601
13063TIP3   OH260603   3.328   5.650  15.166  0.2913 -0.7169 -0.2454
13063TIP3    H160604   3.247   5.604  15.188  0.3329  0.0184  1.7038
13063TIP3    H260605   3.330   5.724  15.227  0.8561  1.1407 -2.3977
13064TIP3   OH260606   1.511   1.160   0.309 -0.0614 -0.5389 -0.0477
13064TIP3    H160607   1.432   1.188   0.355 -0.3265  1.2792 -1.4769
13064TIP3    H260608   1.572   1.137   0.378 -1.7902 -1.9166  1.1006
13065TIP3   OH260609   1.766   4.515  15.807 -0.3522 -0.2692 -0.2658
13065TIP3    H160610   1.842   4.554  15.764  0.8372 -2.1637 -0.0042
13065TIP3    H260611   1.777   4.421  15.793 -0.0815 -1.0103  3.7583
13066TIP3   OH260612   5.722   3.869   2.563  0.2333 -0.2230  0.2199
13066TIP3    H160613   5.798   3.913   2.602 -0.5818  0.2837  1.3058
13066TIP3    H260614   5.758   3.792   2.520  1.3600 -0.0009  0.7330
13067TIP3   OH260615   5.841   1.549   2.847 -0.2474 -0.0571  0.5136
13067TIP3    H160616   5.801   1.493   2.780 -0.5314  0.4213  0.2755
13067TIP3    H260617   5.867   1.489   2.916  1.7552 -0.8361 -0.8154
13068TIP3   OH260618   6.130   3.438   4.033 -0.2814  0.5702 -0.4856
13068TIP3    H160619   6.063   3.383   3.990  0.0458  0.3917 -0.7755
13068TIP3    H260620   6.213   3.409   3.994 -0.0467  0.8707 -0.2123
13069TIP3   OH260621   5.278   4.866   4.188 -0.0274  0.1165 -0.3902
13069TIP3    H160622   5.321   4.907   4.113  1.6955  1.3702  1.1795
13069TIP3    H260623   5.228   4.936   4.228 -0.0569 -0.2553  0.2370
13070TIP3   OH260624   6.209   5.003   5.094 -0.1635  0.0609 -0.2155
13070TIP3    H160625   6.281   4.952   5.057  0.4314  0.2219  0.6759
13070TIP3    H260626   6.222   5.091   5.060 -0.2871 -0.0397 -0.5241
13071TIP3   OH260627   2.145   1.955  13.904 -0.0056  0.6122 -0.2841
13071TIP3    H160628   2.129   2.040  13.944 -2.5022 -0.2077  0.6963
13071TIP3    H260629   2.081   1.949  13.833 -0.0686 -0.5272 -0.1564
13072TIP3   OH260630   2.285   1.701  15.317 -0.0783 -0.5624  0.2915
13072TIP3    H160631   2.201   1.656  15.307  0.3802 -1.1250 -1.5213
13072TIP3    H260632   2.350   1.636  15.291  0.7679  0.4508 -0.2160
13073TIP3   OH260633   0.518   1.280  15.284 -0.1599 -0.0299 -0.3318
13073TIP3    H160634   0.558   1.213  15.228  0.6597 -0.4746  0.7588
13073TIP3    H260635   0.541   1.362  15.242 -1.8993 -0.3987 -2.1699
13074TIP3   OH260636   2.842   1.461  12.640 -0.0990  0.4389  0.0233
13074TIP3    H160637   2.804   1.549  12.641  0.7332  0.8165  1.8258
13074TIP3    H260638   2.768   1.403  12.655 -0.4050  0.9618  0.5886
13075TIP3   OH260639   0.791   4.415  15.560  0.0941 -0.0001 -0.1574
13075TIP3    H160640   0.723   4.463  15.608  0.9284  2.7967 -1.5401
13075TIP3    H260641   0.867   4.416  15.619 -0.2833 -0.9095  0.3700
13076TIP3   OH260642   3.383   4.343  10.589 -0.1642  0.0060 -0.0528
13076TIP3    H160643   3.293   4.343  10.555 -0.7442 -3.5963  1.0729
13076TIP3    H260644   3.377   4.391  10.672 -0.9828  0.0535 -0.1291
13077TIP3   OH260645   0.177   1.460  11.928 -0.5036  0.5068  0.1962
13077TIP3    H160646   0.194   1.553  11.919 -2.0607  1.1137  2.6204
13077TIP3    H260647   0.085   1.454  11.952 -0.6643 -1.7415 -0.7360
13078TIP3   OH260648   1.378   0.503   4.350 -0.4036  0.6122  0.2172
13078TIP3    H160649   1.413   0.438   4.289  0.5280  1.3839 -0.0916
13078TIP3    H260650   1.368   0.457   4.433  1.2081  0.3345  0.2703
13079TIP3   OH260651   5.126   0.291  14.973  0.4906  0.1310 -0.0925
13079TIP3    H160652   5.038   0.277  14.939  1.2110  1.4471 -2.8341
13079TIP3    H260653   5.132   0.235  15.050 -3.3795  1.5165  1.4394
13080TIP3   OH260654   2.703   0.931   1.921 -0.5440 -0.1286  0.3456
13080TIP3    H160655   2.666   0.843   1.923 -1.3317  0.2012  0.7419
13080TIP3    H260656   2.684   0.963   1.833  0.5558 -0.6829 -0.1086
13081TIP3   OH260657   1.079   2.104  13.207 -0.5506  0.0334  0.2289
13081TIP3    H160658   1.173   2.087  13.200  0.1214  3.1131  0.3513
13081TIP3    H260659   1.056   2.075  13.295  0.2151 -0.9981  0.1047
13082TIP3   OH260660   0.938   6.666  15.320 -0.0062 -0.4154 -0.2275
13082TIP3    H160661   0.924   6.736  15.256  0.5559 -0.6578 -0.6367
13082TIP3    H260662   0.960   6.711  15.401  0.5719 -0.1069 -0.5407
13083TIP3   OH260663   6.474   4.446  10.374  0.6096  0.5223  0.3737
13083TIP3    H160664   6.533   4.372  10.362  0.5089  0.6099 -0.7668
13083TIP3    H260665   6.456   4.447  10.468  1.5229 -0.1891  0.5684
13084TIP3   OH260666   5.106   6.102   1.975 -0.3836 -0.6503 -0.0704
13084TIP3    H160667   5.105   6.043   1.899 -0.2987 -1.6557  0.6966
13084TIP3    H260668   5.178   6.071   2.029 -0.0082  0.4894  0.1157
13085TIP3   OH260669   5.486   1.076   1.888  0.3027 -0.2645 -0.0145
13085TIP3    H160670   5.416   1.062   1.824  0.9491  0.2289 -0.8566
13085TIP3    H260671   5.442   1.079   1.973 -0.6011 -0.6988 -0.4557
13086TIP3   OH260672   5.101   3.982   2.818 -0.0373 -0.2948 -0.0037
13086TIP3    H160673   5.130   3.894   2.842 -2.8273 -0.7465  2.2097
13086TIP3    H260674   5.047   3.970   2.740  2.0900 -0.0118 -1.6102
13087TIP3   OH260675   3.283   0.626   3.812  0.2130  0.0030 -0.0002
13087TIP3    H160676   3.290   0.600   3.720  0.3472  1.1328 -0.3277
13087TIP3    H260677   3.204   0.583   3.843  0.2810 -0.5657 -0.5770
13088TIP3   OH260678   4.359   0.512  16.356 -0.7241  0.6746  0.4294
13088TIP3    H160679   4.429   0.450  16.378 -0.0131  1.3807  0.1823
13088TIP3    H260680   4.333   0.488  16.267 -2.4590 -1.1114  1.3386
13089TIP3   OH260681   0.005   2.896  16.843 -0.0858 -0.2437  0.1769
13089TIP3    H160682   0.093   2.884  16.807 -0.2546 -1.8173  0.2135
13089TIP3    H260683   0.015   2.966  16.907  1.2034 -0.5394  0.3339
13090TIP3   OH260684   0.302   5.312   0.762  0.4145  0.8088  0.1000
13090TIP3    H160685   0.376   5.252   0.751  0.0332  0.7860 -4.1589
13090TIP3    H260686   0.230   5.256   0.791  0.9891 -0.0462 -0.0837
13091TIP3   OH260687   5.916   4.732   3.908 -0.4776 -0.2065 -0.5089
13091TIP3    H160688   5.994   4.749   3.961 -0.0352 -0.4987 -1.0548
13091TIP3    H260689   5.919   4.799   3.840 -0.5939 -0.3492 -0.6546
13092TIP3   OH260690   2.393   6.685  14.513  0.0900  0.1324 -0.1544
13092TIP3    H160691   2.369   6.776  14.526  0.4500 -0.1286  3.0203
13092TIP3    H260692   2.349   6.637  14.583  2.4497 -1.6485  0.2475
13093TIP3   OH260693   3.563   6.627  14.422  0.0082  0.7614 -0.7726
13093TIP3    H160694   3.650   6.666  14.417  0.8576 -1.0990 -1.5410
13093TIP3    H260695   3.568   6.567  14.496  0.5426 -1.8438 -2.7738
13094TIP3   OH260696   5.677   6.793   3.438 -0.1536 -0.0403  0.5183
13094TIP3    H160697   5.717   6.706   3.435 -1.9221 -0.9593  1.5390
13094TIP3    H260698   5.750   6.853   3.454  0.8232 -1.6123  2.3637
13095TIP3   OH260699   0.070   6.179   1.764  0.0860  0.5088  0.2660
13095TIP3    H160700  -0.017   6.215   1.747 -0.4249 -0.9100 -0.3201
13095TIP3    H260701   0.053   6.092   1.800  1.2642  0.0715 -0.1757
13096TIP3   OH260702   1.415   2.341  15.092 -0.6811  0.4230  0.3515
13096TIP3    H160703   1.354   2.413  15.111 -0.8864 -0.0092  1.3945
13096TIP3    H260704   1.419   2.291  15.173  2.2558  1.2750  0.8556
13097TIP3   OH260705   2.662   0.977   4.610 -0.0832  0.0610  0.2403
13097TIP3    H160706   2.590   0.985   4.546  0.0158 -1.9601 -0.1846
13097TIP3    H260707   2.659   0.885   4.637  2.2667 -0.0371  0.3109
13098TIP3   OH260708   0.844   0.740  11.306 -0.4059 -0.2046 -0.4088
13098TIP3    H160709   0.898   0.663  11.317 -0.9905 -0.5134  0.3664
13098TIP3    H260710   0.906   0.813  11.306  0.0867 -0.6180 -0.4877
13099TIP3   OH260711   1.085   0.481  13.329 -0.3918  0.7091  0.1248
13099TIP3    H160712   1.148   0.528  13.384  0.2058  0.4200 -0.3009
13099TIP3    H260713   1.113   0.498  13.240 -0.2606 -0.3066 -0.0444
13100TIP3   OH260714   4.557   6.301  13.796 -0.0461  0.3148 -0.7611
13100TIP3    H160715   4.647   6.290  13.766 -0.1327 -0.4923 -0.7373
13100TIP3    H260716   4.503   6.278  13.721 -0.2379  1.1761 -0.8982
13101TIP3   OH260717   0.008   1.577   0.383 -0.0713  0.2487 -0.0904
13101TIP3    H160718  -0.042   1.647   0.342  0.5760  0.2281 -0.9515
13101TIP3    H260719   0.014   1.509   0.316  0.3533 -0.1136  0.3004
13102TIP3   OH260720   4.378   1.579  12.707 -0.6443  0.6294 -0.0094
13102TIP3    H160721   4.348   1.558  12.619  2.6577 -1.4983 -0.7906
13102TIP3    H260722   4.452   1.637  12.694 -0.9418  1.3946  1.4869
13103TIP3   OH260723   3.176   0.594  11.370  0.1952  0.8961 -0.2605
13103TIP3    H160724   3.114   0.667  11.367 -0.2820  0.6373  1.7409
13103TIP3    H260725   3.247   0.624  11.428  1.0778  0.5506 -1.1329
13104TIP3   OH260726   0.125   6.117  15.432  0.1488 -0.1002 -0.3111
13104TIP3    H160727   0.092   6.201  15.398  1.0565  0.1755 -0.5475
13104TIP3    H260728   0.207   6.103  15.384 -0.0374 -1.1792 -0.3407
13105TIP3   OH260729   1.554   2.253  16.817  0.4261  0.6883  0.2794
13105TIP3    H160730   1.638   2.238  16.860  0.8233  0.9055 -0.4053
13105TIP3    H260731   1.489   2.240  16.886  0.9870 -0.0122  0.6872
13106TIP3   OH260732   3.241   0.187  12.956 -0.3601 -0.3983  0.3276
13106TIP3    H160733   3.152   0.220  12.954 -0.2124 -0.0314 -1.0183
13106TIP3    H260734   3.232   0.092  12.946 -0.6366 -0.4762  1.2440
13107TIP3   OH260735   2.837   3.181  13.196  0.3551  0.1195  0.6006
13107TIP3    H160736   2.880   3.250  13.248  1.4762 -1.4802  1.9339
13107TIP3    H260737   2.850   3.208  13.105  1.0386  1.4908  1.0663
13108TIP3   OH260738   0.782   5.116  14.355 -0.2851 -0.1643 -0.5180
13108TIP3    H160739   0.745   5.129  14.442  1.2737 -0.4102  0.2094
13108TIP3    H260740   0.867   5.160  14.357  0.4737 -1.4858 -1.3826
13109TIP3   OH260741   4.422   0.795   5.629 -0.0532 -0.3229 -0.3578
13109TIP3    H160742   4.472   0.859   5.578  0.0035  0.7726  1.0001
13109TIP3    H260743   4.411   0.720   5.571  2.9322 -0.5097 -0.8059
13110TIP3   OH260744   5.361   6.184   0.783  0.6163  0.4920 -0.2580
13110TIP3    H160745   5.383   6.222   0.868  2.0888 -0.5807 -0.1433
13110TIP3    H260746   5.268   6.160   0.791  0.8239  0.0880  1.1702
13111TIP3   OH260747   3.338   0.490   3.293  0.3242  0.1905 -0.2557
13111TIP3    H160748   3.281   0.529   3.227  0.1238 -0.2249 -0.3302
13111TIP3    H260749   3.326   0.396   3.283  0.0202  0.1279  0.6105
13112TIP3   OH260750   2.266   0.118   3.231  0.1651  0.0501  0.1606
13112TIP3    H160751   2.236   0.111   3.322 -0.3929  0.5751  0.0325
13112TIP3    H260752   2.358   0.144   3.238  0.8287 -2.2256  0.5689
13113TIP3   OH260753   0.582   2.539   0.137 -0.2706  0.2722 -0.8915
13113TIP3    H160754   0.603   2.584   0.220  0.0614 -0.1644 -0.7364
13113TIP3    H260755   0.651   2.473   0.127 -0.8365 -0.3042 -1.0478
13114TIP3   OH260756   3.018   2.096   3.436 -0.2313 -0.3766 -0.1541
13114TIP3    H160757   2.940   2.103   3.383 -1.4114 -1.9763  1.2577
13114TIP3    H260758   2.995   2.140   3.518  0.8155  0.2372 -0.1702
13115TIP3   OH260759   0.353   5.486  10.784 -0.0841 -0.1656  0.4203
13115TIP3    H160760   0.306   5.563  10.752  1.8254  1.1555  0.6250
13115TIP3    H260761   0.337   5.419  10.717 -1.5510  0.4697  0.0922
13116TIP3   OH260762   2.526   2.071  13.742  0.0595  0.2675 -0.0523
13116TIP3    H160763   2.563   2.063  13.830 -1.1363 -1.0321  0.3837
13116TIP3    H260764   2.511   1.981  13.714 -0.2676  0.6808 -1.2908
13117TIP3   OH260765   4.577   6.296   1.805 -0.8672 -0.3613 -0.0639
13117TIP3    H160766   4.542   6.253   1.883  0.2778 -0.0893  0.6366
13117TIP3    H260767   4.594   6.225   1.743 -0.4444 -0.7596  0.4934
13118TIP3   OH260768   2.434   6.431   0.955 -0.6299 -0.0571  0.1344
13118TIP3    H160769   2.424   6.365   0.887 -2.2420  3.0035 -2.9189
13118TIP3    H260770   2.347   6.441   0.993 -0.2353 -0.1867  1.1140
13119TIP3   OH260771   3.608   2.327  11.803 -0.2469 -0.2442 -0.2501
13119TIP3    H160772   3.614   2.414  11.842  1.1006 -0.7840  0.8342
13119TIP3    H260773   3.576   2.343  11.714  0.7742  1.4373 -0.3679
13120TIP3   OH260774   5.456   4.076  17.129 -0.2015  0.2157 -0.2550
13120TIP3    H160775   5.490   4.011  17.068 -0.3131  1.0800 -1.2645
13120TIP3    H260776   5.366   4.047  17.146  0.2222 -0.7167  0.5032
13121TIP3   OH260777   1.931   4.667  16.237  0.0897  0.3805 -0.0220
13121TIP3    H160778   2.020   4.642  16.215 -0.1322  0.3670 -0.9567
13121TIP3    H260779   1.930   4.762  16.233  0.6165  0.5510  2.2857
13122TIP3   OH260780   3.666   5.230  14.285 -0.0184 -0.4875  0.1712
13122TIP3    H160781   3.743   5.277  14.255  0.2275 -1.1797 -0.3005
13122TIP3    H260782   3.595   5.294  14.278  0.7755  0.7343  2.3087
13123TIP3   OH260783   0.571   2.098   4.604 -0.2188 -0.2110 -0.0046
13123TIP3    H160784   0.540   2.174   4.555 -0.4730 -1.4324 -1.8464
13123TIP3    H260785   0.496   2.071   4.656 -1.0990 -0.9074 -1.5730
13124TIP3   OH260786   3.635   3.472   3.957 -0.4601  0.3197  0.1021
13124TIP3    H160787   3.641   3.520   3.874  0.1212 -2.5780 -1.6765
13124TIP3    H260788   3.542   3.451   3.966 -0.3723 -0.4269 -0.5465
13125TIP3   OH260789   3.647   1.571   1.551  0.1863 -0.0981  1.2351
13125TIP3    H160790   3.663   1.623   1.472  1.4347  2.5420  3.0823
13125TIP3    H260791   3.553   1.576   1.563  0.0726  0.1683  0.3666
13126TIP3   OH260792   3.671   3.842  14.701  0.3265 -0.1977 -0.3891
13126TIP3    H160793   3.762   3.863  14.723 -0.3640  1.5874  1.0273
13126TIP3    H260794   3.674   3.809  14.611  2.3759 -0.3629 -0.2984
13127TIP3   OH260795   0.544   1.009  16.987 -0.0657 -0.0757 -0.1549
13127TIP3    H160796   0.569   1.001  16.895  1.3402  1.1602  0.0826
13127TIP3    H260797   0.451   0.991  16.988 -0.1276 -0.0178 -1.8450
13128TIP3   OH260798   6.263   4.642  13.090  0.0801  0.1311  0.9984
13128TIP3    H160799   6.285   4.674  13.177  1.1639 -0.0093  0.7926
13128TIP3    H260800   6.282   4.548  13.093 -1.4957 -0.2135  1.1016
13129TIP3   OH260801   4.677   0.080   3.915 -0.6335  0.4308  0.2445
13129TIP3    H160802   4.746   0.100   3.979 -0.8548 -0.8038  0.9048
13129TIP3    H260803   4.712   0.111   3.832  0.6779 -0.0636  0.5908
13130TIP3   OH260804   3.609   3.315  14.518  0.3551  0.1093 -0.0656
13130TIP3    H160805   3.541   3.376  14.546 -0.2172  0.1190 -1.3922
13130TIP3    H260806   3.564   3.231  14.510  0.8747 -0.2450  0.5883
13131TIP3   OH260807   4.143   1.835   0.550  0.0204  0.3350  0.0948
13131TIP3    H160808   4.067   1.877   0.509  0.3809 -1.8591 -3.1810
13131TIP3    H260809   4.105   1.766   0.605 -0.4181  0.0106 -0.6020
13132TIP3   OH260810   1.342   2.859   4.101  0.1180 -0.0928 -0.0520
13132TIP3    H160811   1.262   2.845   4.049  0.8778 -0.1148 -1.2476
13132TIP3    H260812   1.321   2.823   4.187 -0.6448 -1.5391 -0.7969
13133TIP3   OH260813   0.662   5.519   1.550 -0.4876 -0.0448 -0.0541
13133TIP3    H160814   0.660   5.476   1.465 -0.5946 -0.0314 -0.0584
13133TIP3    H260815   0.704   5.456   1.608  0.2872  0.2485 -0.2855
13134TIP3   OH260816   6.778   2.093   4.555 -0.2523 -0.1728 -0.3121
13134TIP3    H160817   6.714   2.133   4.614 -0.0386 -0.6048  0.2308
13134TIP3    H260818   6.825   2.031   4.611 -0.3772 -0.9561 -1.0547
13135TIP3   OH260819   1.556   2.629  12.483 -0.0318 -0.0048 -0.3003
13135TIP3    H160820   1.623   2.696  12.495  1.2298 -0.9015 -1.8158
13135TIP3    H260821   1.597   2.548  12.514 -1.6136 -0.0910  1.7338
13136TIP3   OH260822   3.002   5.491   1.879  0.4008  0.1877  0.3477
13136TIP3    H160823   2.966   5.575   1.908  0.0891 -0.3169  1.4834
13136TIP3    H260824   3.053   5.460   1.953  1.4279 -0.1272 -0.4673
13137TIP3   OH260825   2.046   2.555  15.054  0.4836  0.1902 -0.0064
13137TIP3    H160826   2.065   2.503  15.132  0.5838 -0.6863 -0.5857
13137TIP3    H260827   2.041   2.490  14.983 -0.2598  0.8868 -0.6159
13138TIP3   OH260828   4.175   3.810  15.490  0.1527  0.1577 -0.0363
13138TIP3    H160829   4.146   3.823  15.399 -2.6592 -0.7998  0.6534
13138TIP3    H260830   4.234   3.883  15.506 -0.7169  1.3948 -2.0554
13139TIP3   OH260831   4.539   1.285   2.704  0.4771 -0.3917  0.1347
13139TIP3    H160832   4.481   1.358   2.722 -0.2454 -0.3711 -1.9121
13139TIP3    H260833   4.545   1.283   2.608  3.2103 -0.9244  0.2404
13140TIP3   OH260834   6.430   1.748  14.768  0.2543 -0.5907  0.4927
13140TIP3    H160835   6.437   1.689  14.693  2.9740 -0.1375  0.3133
13140TIP3    H260836   6.393   1.829  14.731  0.3562 -0.8042 -0.0857
13141TIP3   OH260837   3.934   5.647   1.799 -0.3769  0.1316  0.2109
13141TIP3    H160838   3.991   5.584   1.842 -1.0910  0.7253  2.1382
13141TIP3    H260839   3.964   5.649   1.708  1.1701 -1.2232  0.6508
13142TIP3   OH260840   5.272   2.915  14.880  0.3036 -0.5195  0.0903
13142TIP3    H160841   5.367   2.920  14.870  0.1500 -0.2342 -1.7098
13142TIP3    H260842   5.238   2.963  14.804 -1.2770 -1.8578 -0.1075
13143TIP3   OH260843   2.243   2.692  12.214  0.0288  0.3100 -0.3574
13143TIP3    H160844   2.284   2.681  12.300 -1.1874  1.5651  0.4451
13143TIP3    H260845   2.300   2.646  12.153  2.0991  1.2196  0.8071
13144TIP3   OH260846   3.922   3.283   1.772 -0.3476 -0.2036 -0.2732
13144TIP3    H160847   3.900   3.223   1.701 -1.1540  0.7366 -0.8463
13144TIP3    H260848   3.839   3.325   1.794 -0.0337 -0.1800  0.9621
13145TIP3   OH260849   5.796   4.436   2.900  0.1297  0.4808  0.3515
13145TIP3    H160850   5.834   4.390   2.975  0.2555  1.5196  0.9312
13145TIP3    H260851   5.756   4.514   2.937  1.2204  1.6187 -0.7879
13146TIP3   OH260852   1.370   5.836   6.361 -0.1148  0.4022 -0.3210
13146TIP3    H160853   1.457   5.848   6.323 -0.2687 -0.5629 -0.9913
13146TIP3    H260854   1.353   5.919   6.407  1.0839  0.6591 -0.3079
13147TIP3   OH260855   0.972   3.935   6.244  0.2582  0.0537  0.0155
13147TIP3    H160856   0.972   3.909   6.152 -0.8600  2.4603 -0.7446
13147TIP3    H260857   1.009   3.860   6.290 -0.7465 -1.9162 -2.1764
13148TIP3   OH260858   5.449   4.165   1.863 -0.3654 -0.5012  0.5250
13148TIP3    H160859   5.538   4.134   1.850 -0.0697 -0.0568  1.4453
13148TIP3    H260860   5.420   4.192   1.776  1.1309  1.2998  0.5327
13149TIP3   OH260861   2.778   6.541  11.674  0.1757 -0.1230 -0.1825
13149TIP3    H160862   2.811   6.598  11.605 -0.8094  0.3865 -0.2498
13149TIP3    H260863   2.697   6.505  11.639  0.9480 -1.8762 -0.2887
13150TIP3   OH260864   2.969   3.065   5.038 -0.4884 -0.1822  0.0749
13150TIP3    H160865   2.946   3.098   5.124 -1.8051 -1.0571  0.0843
13150TIP3    H260866   2.900   3.097   4.980 -1.4606 -2.2747 -0.0275
13151TIP3   OH260867   5.097   5.224  11.808  0.4028  0.4835 -0.0787
13151TIP3    H160868   5.189   5.244  11.824  0.2996  0.2412  0.8758
13151TIP3    H260869   5.066   5.184  11.890 -0.1578 -0.8636 -0.9207
13152TIP3   OH260870   5.609   0.654   4.430 -0.8154  0.3368  0.3294
13152TIP3    H160871   5.537   0.684   4.375 -0.0313  0.8509 -0.4450
13152TIP3    H260872   5.654   0.588   4.377 -0.8880 -0.2089  0.9314
13153TIP3   OH260873   3.798   4.469  14.579 -0.4217 -0.0001 -0.6853
13153TIP3    H160874   3.799   4.557  14.543 -2.0457 -0.9063 -3.2447
13153TIP3    H260875   3.890   4.447  14.594 -0.0246  2.2797  0.5577
13154TIP3   OH260876   0.397   2.546   6.921  0.5315  0.4492  0.5977
13154TIP3    H160877   0.418   2.623   6.975  2.1780 -1.1025  2.3147
13154TIP3    H260878   0.401   2.579   6.831  0.7563  2.4663  1.2836
13155TIP3   OH260879   2.761   2.266   1.198 -0.1504 -0.3612  0.1967
13155TIP3    H160880   2.766   2.205   1.125 -0.0885  0.0367 -0.1345
13155TIP3    H260881   2.851   2.272   1.231 -0.5812 -2.6893  2.1143
13156TIP3   OH260882   1.098   0.437   3.596  0.0799 -0.0513 -0.0350
13156TIP3    H160883   1.186   0.423   3.560 -0.0946  1.1669 -1.0048
13156TIP3    H260884   1.086   0.532   3.594 -1.3276 -0.2080 -0.0905
13157TIP3   OH260885   0.523   2.140   6.586  0.5816  0.2518  0.2749
13157TIP3    H160886   0.618   2.150   6.586  0.5663  0.5936 -1.1177
13157TIP3    H260887   0.495   2.181   6.668  1.5507  1.1553  0.1781
13158TIP3   OH260888   6.435   5.237  16.662  0.1367  0.0322 -0.5597
13158TIP3    H160889   6.491   5.198  16.729  0.8094 -0.8783 -1.6117
13158TIP3    H260890   6.493   5.300  16.617 -0.1803  0.3115 -0.5804
13159TIP3   OH260891   3.948   5.263  14.170  0.0408  0.4148  0.8228
13159TIP3    H160892   3.945   5.356  14.194  1.0810  1.2791 -1.9825
13159TIP3    H260893   3.940   5.263  14.075  1.8440 -2.2683  0.5760
13160TIP3   OH260894   3.423   3.966  11.760 -0.0035 -0.1431  0.8712
13160TIP3    H160895   3.488   4.019  11.715 -0.9653 -0.1035 -0.5503
13160TIP3    H260896   3.348   3.964  11.700 -1.1552 -0.5283  2.2572
13161TIP3   OH260897   1.112   2.081   2.852  0.3464  0.5472  0.5951
13161TIP3    H160898   1.029   2.036   2.838  1.8613 -2.1851 -0.3298
13161TIP3    H260899   1.087   2.169   2.881 -2.8647  0.5342 -1.6162
13162TIP3   OH260900   4.913   0.539  15.045  0.3244  0.2279 -0.4099
13162TIP3    H160901   4.982   0.592  15.084 -0.7304  0.4362  1.2654
13162TIP3    H260902   4.947   0.449  15.048  0.8035  0.4115 -0.2636
13163TIP3   OH260903   6.388   6.090  16.117  0.5702  0.5169  0.1611
13163TIP3    H160904   6.428   6.004  16.130  0.8747  0.5638 -0.4127
13163TIP3    H260905   6.454   6.153  16.145  0.6807  0.5781 -0.2219
13164TIP3   OH260906   0.843   1.193   1.830  0.2005 -0.5005  0.0668
13164TIP3    H160907   0.793   1.229   1.756  1.2286 -0.3395 -0.5686
13164TIP3    H260908   0.899   1.127   1.790 -0.2787 -1.4464  0.9388
13165TIP3   OH260909   6.730   4.251   6.584  0.4658  0.4449  0.0886
13165TIP3    H160910   6.635   4.243   6.576  0.4144 -0.2934  1.1825
13165TIP3    H260911   6.750   4.334   6.541 -0.8622  1.3103  1.0187
13166TIP3   OH260912   5.575   4.203  13.409 -0.2220 -0.0110  0.1809
13166TIP3    H160913   5.577   4.237  13.320 -0.6008  1.4052  0.6922
13166TIP3    H260914   5.649   4.142  13.413 -1.0842 -1.2873 -1.5274
13167TIP3   OH260915   0.172   5.947   5.215  0.2728 -0.4699 -0.2704
13167TIP3    H160916   0.267   5.938   5.205  0.6859  3.0075 -0.6980
13167TIP3    H260917   0.140   5.964   5.126 -1.0707 -3.1961 -0.3946
13168TIP3   OH260918   5.001   5.771   0.646 -0.2186 -0.0272  0.1263
13168TIP3    H160919   4.916   5.767   0.601 -0.3922 -3.3743  0.5369
13168TIP3    H260920   5.064   5.783   0.575 -0.7627 -1.9147 -0.7537
13169TIP3   OH260921   4.559   6.540   3.103 -0.4779  0.9965 -0.0930
13169TIP3    H160922   4.524   6.499   3.182 -1.2041  0.2119 -0.7926
13169TIP3    H260923   4.507   6.503   3.032  1.1629  0.5032 -1.1038
13170TIP3   OH260924   4.968   2.904   4.958 -0.6057  0.6317  0.2527
13170TIP3    H160925   4.893   2.955   4.987  0.0954  0.7069  2.0306
13170TIP3    H260926   5.004   2.866   5.038  1.4110  0.7975 -0.5162
13171TIP3   OH260927   0.728   3.527   0.703 -0.0503 -0.2175  0.0649
13171TIP3    H160928   0.787   3.487   0.639  2.4277  0.5094  1.7466
13171TIP3    H260929   0.666   3.577   0.651  0.2948 -1.6735 -1.8368
13172TIP3   OH260930   1.453   6.052  14.045 -0.7652 -0.1203  0.2958
13172TIP3    H160931   1.378   6.038  14.103  0.5426  1.0057  2.4124
13172TIP3    H260932   1.417   6.050  13.957 -3.1596 -0.2010  1.2167
13173TIP3   OH260933   0.160   6.168  11.516  0.4474 -0.1876  0.1866
13173TIP3    H160934   0.143   6.080  11.481  0.7867  0.0397 -0.5637
13173TIP3    H260935   0.126   6.228  11.449  2.1255  0.2577 -0.3220
13174TIP3   OH260936   4.166   1.639  16.337 -0.0944 -0.0767  0.0087
13174TIP3    H160937   4.198   1.701  16.403  0.0899 -0.1085 -0.0531
13174TIP3    H260938   4.241   1.622  16.281 -0.3768  0.3279 -0.5011
13175TIP3   OH260939   0.512   1.783  15.369 -0.0025  0.0407 -0.0639
13175TIP3    H160940   0.419   1.770  15.351  0.1257 -1.2298  0.0773
13175TIP3    H260941   0.544   1.833  15.294 -0.5608 -0.5523 -0.7097
13176TIP3   OH260942   6.639   0.808   5.093  0.1867  0.1033  0.3781
13176TIP3    H160943   6.600   0.842   5.013  1.4808  0.5886 -0.0783
13176TIP3    H260944   6.658   0.885   5.146 -0.1905 -0.1801  0.9361
13177TIP3   OH260945   1.756   6.285  14.411 -0.4623 -0.3160 -0.1727
13177TIP3    H160946   1.767   6.236  14.329  1.0679 -1.7827  0.8453
13177TIP3    H260947   1.662   6.296  14.420 -0.7040 -0.9043 -1.6832
13178TIP3   OH260948   6.567   2.278  11.667  0.0093  0.0686  0.2669
13178TIP3    H160949   6.537   2.188  11.656 -0.0432 -0.0204  1.0480
13178TIP3    H260950   6.517   2.328  11.603 -2.6425  0.0961  2.1631
13179TIP3   OH260951   1.808   0.514   5.945  0.2778  0.8206 -0.0457
13179TIP3    H160952   1.865   0.556   6.010 -0.2840 -2.0228  2.5173
13179TIP3    H260953   1.721   0.549   5.965  0.2629  0.7285  0.0545
13180TIP3   OH260954   2.139   5.819   1.170  0.0456 -0.7098  0.2887
13180TIP3    H160955   2.087   5.855   1.098  2.1504 -2.6437 -2.4048
13180TIP3    H260956   2.101   5.732   1.185 -0.9287  0.0009  2.2256
13181TIP3   OH260957   5.383   3.100   1.775 -0.6922 -0.0265  0.5194
13181TIP3    H160958   5.406   3.009   1.757 -2.3477 -0.3382 -0.2440
13181TIP3    H260959   5.371   3.139   1.688 -1.3587  0.5291  0.8490
13182TIP3   OH260960   4.029   5.987   1.338  0.0154 -0.1440 -0.0101
13182TIP3    H160961   3.992   5.966   1.424 -1.1713 -2.7420 -1.0550
13182TIP3    H260962   3.971   6.054   1.302  0.7966  1.3225  1.3269
13183TIP3   OH260963   5.919   2.302  13.693 -0.6537  0.1192 -0.0758
13183TIP3    H160964   5.975   2.378  13.707  0.2762 -0.4175 -0.7126
13183TIP3    H260965   5.897   2.305  13.600 -1.8506  0.4158  0.2002
13184TIP3   OH260966   6.139   2.114  16.879 -0.3847 -0.0031  0.0244
13184TIP3    H160967   6.198   2.176  16.922  1.1795 -1.0703 -0.4828
13184TIP3    H260968   6.122   2.047  16.946  0.5871 -0.7127 -0.4134
13185TIP3   OH260969   0.189   2.886   5.370  1.0070 -0.5652 -0.6358
13185TIP3    H160970   0.240   2.919   5.297 -0.0506  2.9849  0.0221
13185TIP3    H260971   0.185   2.960   5.432 -1.3399 -2.0982  1.2380
13186TIP3   OH260972   5.186   6.343   5.060  0.3278  0.6682 -0.0956
13186TIP3    H160973   5.198   6.260   5.014 -0.4576  0.6523 -0.2877
13186TIP3    H260974   5.260   6.348   5.120  0.3431 -0.2070 -0.0234
13187TIP3   OH260975   3.007   3.966   6.395  0.1735  0.4713 -0.9253
13187TIP3    H160976   3.043   4.042   6.348  3.2578 -0.7789 -0.8564
13187TIP3    H260977   3.075   3.899   6.387  0.2653 -0.3739  3.9007
13188TIP3   OH260978   1.284   5.524   2.215  0.0525 -0.4324 -0.0223
13188TIP3    H160979   1.193   5.553   2.209 -0.0839 -0.7478  0.4270
13188TIP3    H260980   1.313   5.555   2.301  0.1705 -0.8668  0.0993
13189TIP3   OH260981   0.484   2.524  15.782  0.2821 -0.2901  0.0996
13189TIP3    H160982   0.409   2.494  15.730 -0.5696 -0.0500  1.1512
13189TIP3    H260983   0.446   2.547  15.867  1.4595  0.4294  0.4468
13190TIP3   OH260984   6.665   2.265  13.197 -0.0062 -0.2972 -0.1464
13190TIP3    H160985   6.670   2.231  13.107 -0.3220 -0.3365 -0.1494
13190TIP3    H260986   6.571   2.266  13.217  0.1282 -1.5742  0.6763
13191TIP3   OH260987   3.991   1.161   4.563 -0.0261  0.0848 -0.3507
13191TIP3    H160988   3.940   1.096   4.514 -0.5198  0.6326 -0.5816
13191TIP3    H260989   3.995   1.236   4.504 -0.6024  0.7465  0.4362
13192TIP3   OH260990   1.047   5.418   5.411  0.4197  0.6261  0.3117
13192TIP3    H160991   0.953   5.416   5.431  0.1980  0.9818 -0.6714
13192TIP3    H260992   1.052   5.450   5.321  1.5681  2.1594  0.8811
13193TIP3   OH260993   4.306   4.607   5.009  0.4809 -0.1476 -0.1808
13193TIP3    H160994   4.322   4.620   4.915  0.5108 -1.2817 -0.3496
13193TIP3    H260995   4.350   4.680   5.052  0.4880  0.3718 -1.0488
13194TIP3   OH260996   1.911   1.391   6.166  0.0904  0.3128  0.1448
13194TIP3    H160997   1.948   1.418   6.250  1.4070 -1.1398  0.0835
13194TIP3    H260998   1.986   1.355   6.117 -1.0719 -1.0714 -0.7002
13195TIP3   OH260999   4.899   6.188   4.320  0.9173  0.5917  0.3252
13195TIP3    H161000   4.863   6.267   4.279 -1.1641 -0.6459 -0.3361
13195TIP3    H261001   4.830   6.159   4.380  2.0979 -0.1624  1.3566
13196TIP3   OH261002   3.480   5.599   2.737  0.8103 -0.2425  0.7452
13196TIP3    H161003   3.535   5.558   2.670  0.7053 -0.7033  0.9381
13196TIP3    H261004   3.511   5.689   2.741  0.5645 -0.1080 -0.1909
13197TIP3   OH261005   3.756   2.019   5.592 -0.2511  0.0525 -0.1709
13197TIP3    H161006   3.751   2.100   5.641 -1.5691 -0.2177  0.1861
13197TIP3    H261007   3.714   1.954   5.649 -0.2741 -0.6183 -0.9347
13198TIP3   OH261008   3.965   5.118  15.487  0.0173  0.4105 -0.1911
13198TIP3    H161009   4.041   5.175  15.472 -0.4685  0.9479 -0.6568
13198TIP3    H261010   3.970   5.094  15.579 -0.6982  2.5781  0.4572
13199TIP3   OH261011   3.889   4.738   5.288 -0.3272  0.1306 -0.2111
13199TIP3    H161012   3.945   4.743   5.366  0.4697  0.4233 -0.7937
13199TIP3    H261013   3.948   4.710   5.218 -1.0411 -0.1404 -0.7133
13200TIP3   OH261014   0.070   3.099  14.965  0.2769  0.2761 -0.4802
13200TIP3    H161015  -0.021   3.122  14.948  0.7942  0.4604 -3.5158
13200TIP3    H261016   0.113   3.183  14.983 -0.1816  0.1317  1.5512
13201TIP3   OH261017   3.952   0.381   5.174 -0.3805  0.2280 -0.2671
13201TIP3    H161018   3.945   0.467   5.132 -0.3886  1.1029  1.4406
13201TIP3    H261019   3.862   0.348   5.175 -0.6014  0.8442  0.3611
13202TIP3   OH261020   5.120   1.678  15.091  0.2561  0.2975  0.8989
13202TIP3    H161021   5.188   1.690  15.024 -0.9801 -0.3744 -0.5280
13202TIP3    H261022   5.042   1.720  15.055 -1.1008 -2.1393  0.7645
13203TIP3   OH261023   2.666   0.863   1.439 -0.3591 -0.5138 -0.3068
13203TIP3    H161024   2.733   0.796   1.431  0.9387  0.8884 -1.7360
13203TIP3    H261025   2.712   0.940   1.474 -1.7452 -0.2391  1.0288
13204TIP3   OH261026   6.330   4.922  14.696  0.2821 -0.4197  0.0878
13204TIP3    H161027   6.243   4.952  14.670  0.2358 -0.9698 -0.4047
13204TIP3    H261028   6.390   4.975  14.645  0.2814  0.7919  1.2928
13205TIP3   OH261029   6.558   2.914   3.703 -0.1066  0.8732  0.4268
13205TIP3    H161030   6.557   3.001   3.663 -0.5748  0.4372 -0.5503
13205TIP3    H261031   6.514   2.858   3.639  2.7928 -0.7074 -0.3514
13206TIP3   OH261032   4.357   0.934  12.219  0.1648 -0.1340 -0.2510
13206TIP3    H161033   4.382   0.879  12.144  0.7325  1.0215 -0.9323
13206TIP3    H261034   4.382   1.023  12.193 -1.2620  0.5473  0.5889
13207TIP3   OH261035   4.947   1.654  13.913 -0.5599  0.0129 -0.3761
13207TIP3    H161036   4.959   1.568  13.953  0.5014  0.8820  1.2924
13207TIP3    H261037   5.032   1.697  13.922 -1.9340  2.5084  2.0269
13208TIP3   OH261038   4.612   2.847  12.659 -0.3270 -0.1034 -0.3804
13208TIP3    H161039   4.701   2.816  12.638 -0.1807  0.1557 -0.1377
13208TIP3    H261040   4.625   2.925  12.712 -0.7032 -0.0139 -0.4151
13209TIP3   OH261041   6.344   0.976  12.854 -0.2244 -0.1160 -0.0689
13209TIP3    H161042   6.293   1.048  12.818 -0.8033 -0.1775  0.5958
13209TIP3    H261043   6.282   0.928  12.910  0.6559  0.0527  1.0956
13210TIP3   OH261044   5.982   3.824  12.252 -0.5962 -0.1638 -0.2624
13210TIP3    H161045   6.069   3.864  12.252 -1.3646  1.6559  1.3738
13210TIP3    H261046   5.972   3.788  12.340 -0.5570 -2.6745 -1.2187
13211TIP3   OH261047   2.879   1.937   0.440 -0.1985  0.3088  0.1816
13211TIP3    H161048   2.926   2.015   0.409 -1.8802  1.3024  0.0022
13211TIP3    H261049   2.822   1.970   0.509 -0.1065 -1.0027  0.9050
13212TIP3   OH261050   6.636   5.676  15.232 -0.0651  0.1105 -0.0652
13212TIP3    H161051   6.595   5.738  15.291  0.8598  0.5125  0.1781
13212TIP3    H261052   6.701   5.631  15.286 -1.2459 -1.6467 -0.0236
13213TIP3   OH261053   0.925   5.450  13.115 -0.2349 -0.1334 -0.4066
13213TIP3    H161054   1.019   5.454  13.101 -0.2845  0.6779 -0.5427
13213TIP3    H261055   0.914   5.426  13.207  0.1101  0.8104 -0.1109
13214TIP3   OH261056   2.307   6.218  17.000 -0.5820 -0.4548 -0.3036
13214TIP3    H161057   2.299   6.218  17.095  0.7548 -0.2048 -0.1705
13214TIP3    H261058   2.241   6.281  16.970  0.0352  0.6249  0.5654
13215TIP3   OH261059   3.420   3.373  12.552 -0.2200 -0.3337  0.1183
13215TIP3    H161060   3.370   3.300  12.588  0.8421 -1.4974 -0.6575
13215TIP3    H261061   3.359   3.420  12.497 -1.1092 -0.2032  1.1799
13216TIP3   OH261062   2.707   0.161   1.983 -0.2390 -0.0724 -0.3266
13216TIP3    H161063   2.630   0.217   1.996 -1.5845 -2.0891  0.9881
13216TIP3    H261064   2.676   0.089   1.928  0.9594 -0.4783 -0.5091
13217TIP3   OH261065   4.760   2.313  11.928 -0.0036  0.1770 -0.2887
13217TIP3    H161066   4.747   2.334  11.835 -0.3460 -1.5469 -0.6659
13217TIP3    H261067   4.681   2.263  11.952 -0.7501  2.0494  1.4259
13218TIP3   OH261068   6.340   3.338  11.026 -0.2917  0.3067  0.1195
13218TIP3    H161069   6.385   3.270  10.977 -0.9693  0.1107 -0.2403
13218TIP3    H261070   6.265   3.294  11.065  0.9360  0.1346  2.4649
13219TIP3   OH261071   0.962   1.705   2.307  0.7875 -0.6624 -0.0318
13219TIP3    H161072   1.008   1.688   2.225 -0.7426  1.0540 -1.3475
13219TIP3    H261073   0.998   1.789   2.337  1.1702 -1.1668  0.9401
13220TIP3   OH261074   0.091   1.676  14.833 -0.1222  0.1626 -0.3420
13220TIP3    H161075  -0.003   1.679  14.851 -0.5490 -1.1836 -2.0350
13220TIP3    H261076   0.112   1.582  14.831  1.3905  0.4476  0.5203
13221TIP3   OH261077   5.079   3.857   6.333 -0.3290  0.1034 -0.0329
13221TIP3    H161078   5.071   3.941   6.286  0.0788  0.4795  0.5516
13221TIP3    H261079   5.169   3.857   6.366  0.2325 -1.3309 -1.4215
13222TIP3   OH261080   2.657   4.082   5.037 -0.5211  0.2009  0.3178
13222TIP3    H161081   2.686   3.996   5.006 -0.0158  0.6339 -0.4386
13222TIP3    H261082   2.733   4.119   5.082  0.4502  1.6300 -2.2694
13223TIP3   OH261083   4.434   1.450  13.706 -0.8669  0.0208 -0.0253
13223TIP3    H161084   4.431   1.542  13.731 -0.8336  0.1626 -0.5412
13223TIP3    H261085   4.352   1.434  13.659 -0.0616  0.2803 -1.5875
13224TIP3   OH261086   0.624   1.722   1.860  0.1439 -0.4102 -0.3778
13224TIP3    H161087   0.679   1.653   1.897 -0.4216 -0.2637  0.7686
13224TIP3    H261088   0.683   1.772   1.803  1.0932 -0.5292  0.4792
13225TIP3   OH261089   2.532   2.849  11.151 -0.1445  0.4342 -0.2090
13225TIP3    H161090   2.552   2.805  11.068 -1.0359 -2.4700  1.0117
13225TIP3    H261091   2.478   2.924  11.125  0.9171  0.5342 -2.3585
13226TIP3   OH261092   3.731   4.080   5.106  0.4710  0.0363  0.6674
13226TIP3    H161093   3.824   4.090   5.127  1.1559 -0.0325 -1.9597
13226TIP3    H261094   3.691   4.162   5.136  1.7028  0.7914  0.3297
13227TIP3   OH261095   3.702   3.294  12.738 -0.3396 -0.2258  0.0794
13227TIP3    H161096   3.709   3.377  12.690  2.7262 -0.9573 -0.9629
13227TIP3    H261097   3.649   3.238  12.682  0.2753  0.0310 -0.7661
13228TIP3   OH261098   0.428   2.006  15.584 -0.0505  0.3728 -0.2699
13228TIP3    H161099   0.385   1.960  15.655 -0.7017  2.1624  0.5448
13228TIP3    H261100   0.462   1.936  15.528 -1.8798 -1.0944  0.3361
13229TIP3   OH261101   1.649   0.100  14.090  0.3508  0.0893  0.3405
13229TIP3    H161102   1.698   0.049  14.026  0.1428 -0.1787  0.3963
13229TIP3    H261103   1.624   0.180  14.043 -0.5040 -0.4649 -0.1582
13230TIP3   OH261104   2.301   3.250  13.380  0.1912 -0.2457  0.0394
13230TIP3    H161105   2.311   3.302  13.460 -1.3238 -1.6549  1.2203
13230TIP3    H261106   2.228   3.291  13.333 -0.9371 -1.1822  0.9213
13231TIP3   OH261107   6.510   4.836  10.686  0.6426  0.3554 -0.6052
13231TIP3    H161108   6.521   4.744  10.711 -1.5707  0.2378  0.2062
13231TIP3    H261109   6.501   4.834  10.591  3.3990  0.1271 -0.9425
13232TIP3   OH261110   3.811   6.685  16.170  0.1875 -0.1498 -0.6409
13232TIP3    H161111   3.801   6.778  16.190  0.7483  0.1752 -1.7867
13232TIP3    H261112   3.885   6.656  16.224 -2.1495 -0.8586  2.4667
13233TIP3   OH261113   5.894   1.403   5.743  0.4246  0.5561  0.0037
13233TIP3    H161114   5.909   1.383   5.835 -0.6320 -0.2104  0.0259
13233TIP3    H261115   5.881   1.317   5.702  0.2225  0.9336 -0.7383
13234TIP3   OH261116   2.113   4.128   3.518 -0.2929  0.2737  0.5762
13234TIP3    H161117   2.048   4.116   3.587 -1.3642 -0.8900 -0.5921
13234TIP3    H261118   2.116   4.223   3.504 -0.5066  0.4792  1.7662
13235TIP3   OH261119   0.821   5.404  15.480  0.3038 -0.0771 -0.5709
13235TIP3    H161120   0.902   5.370  15.518  0.2808 -1.3952 -1.6233
13235TIP3    H261121   0.752   5.351  15.519  0.1957 -0.7513 -1.6381
13236TIP3   OH261122   5.413   1.674  13.423  0.1075  0.0957  0.2149
13236TIP3    H161123   5.487   1.613  13.420 -0.4167 -0.5885  0.9331
13236TIP3    H261124   5.410   1.704  13.514 -0.0289  0.7227  0.0099
13237TIP3   OH261125   1.431   0.797  14.534 -0.7596 -0.0147 -0.4699
13237TIP3    H161126   1.352   0.851  14.524  0.0156  1.4831  0.9214
13237TIP3    H261127   1.490   0.851  14.587  0.6316 -1.6938 -0.2179
13238TIP3   OH261128   1.408   0.093  12.878  0.3545 -0.0050 -0.3065
13238TIP3    H161129   1.436   0.133  12.795  0.1393  0.1242 -0.3179
13238TIP3    H261130   1.341   0.152  12.911 -0.6249 -0.8212 -0.7726
13239TIP3   OH261131   5.047   1.995   5.221  0.9090 -0.1434 -0.3516
13239TIP3    H161132   4.988   2.027   5.153  0.6941 -0.0888 -0.1415
13239TIP3    H261133   5.004   1.916   5.254 -0.0093  0.9164  1.1044
13240TIP3   OH261134   4.289   0.515   4.169 -0.2271  0.3119  0.2196
13240TIP3    H161135   4.209   0.525   4.221 -0.5016 -0.2494 -0.0833
13240TIP3    H261136   4.339   0.594   4.187 -0.1465 -0.0268  1.6386
13241TIP3   OH261137   4.707   2.255   1.332  0.0876 -0.3038  0.4674
13241TIP3    H161138   4.717   2.284   1.422 -0.6939  0.2072  0.4060
13241TIP3    H261139   4.782   2.293   1.286  0.3555 -0.3649  0.8512
13242TIP3   OH261140   6.589   6.063   6.347  0.1723 -0.3120 -0.4398
13242TIP3    H161141   6.633   6.032   6.426 -1.3010  2.5999  1.7361
13242TIP3    H261142   6.658   6.067   6.281  1.9230 -1.0272  1.2479
13243TIP3   OH261143   0.043   0.288  16.630  0.3050 -0.3595 -0.3092
13243TIP3    H161144   0.113   0.234  16.666 -0.3477 -0.9951  0.0338
13243TIP3    H261145   0.048   0.273  16.536  0.4132 -0.6773 -0.2573
13244TIP3   OH261146   1.638   0.879  12.373  0.0684 -0.0882  0.1687
13244TIP3    H161147   1.730   0.873  12.346  0.1799  1.4435  0.1278
13244TIP3    H261148   1.592   0.909  12.294 -0.0785  1.4300  0.8011
13245TIP3   OH261149   2.184   3.553  12.027  0.3190 -0.2743  0.8373
13245TIP3    H161150   2.254   3.545  12.092  0.6339  1.1405  0.7076
13245TIP3    H261151   2.113   3.499  12.062  0.5543  0.2731  2.2464
13246TIP3   OH261152   0.325   2.987  11.925  0.3813  0.3380  0.3471
13246TIP3    H161153   0.315   3.008  11.832 -1.2251  2.8440  0.9607
13246TIP3    H261154   0.242   3.015  11.964  0.2425 -2.4666  2.3059
13247TIP3   OH261155   3.347   4.773   5.326  0.3627 -0.2688 -0.5011
13247TIP3    H161156   3.279   4.754   5.391 -1.2020  1.2277 -1.6176
13247TIP3    H261157   3.390   4.688   5.312  0.3645 -0.7457  2.0099
13248TIP3   OH261158   4.848   2.623  16.773 -0.2970 -0.2382 -0.4130
13248TIP3    H161159   4.909   2.570  16.824  2.5958  2.1199 -1.1741
13248TIP3    H261160   4.790   2.662  16.839  1.0418 -0.0783  0.7220
13249TIP3   OH261161   3.573   3.468  13.611  0.2260 -0.6557  0.7776
13249TIP3    H161162   3.489   3.513  13.608  0.9258  0.6970  0.4079
13249TIP3    H261163   3.638   3.539  13.605  1.3723 -1.7831 -0.6528
13250TIP3   OH261164   2.312   0.980  16.079  0.2441  0.1141 -0.4409
13250TIP3    H161165   2.295   0.996  16.172  0.2255  2.9966 -0.8502
13250TIP3    H261166   2.401   1.012  16.065  1.3444 -2.8484 -0.9451
13251TIP3   OH261167   4.351   2.500  14.473  0.0275  0.5866  0.2053
13251TIP3    H161168   4.272   2.553  14.488 -1.0068 -0.7685 -0.2400
13251TIP3    H261169   4.319   2.410  14.471  1.3736  0.1047 -1.5026
13252TIP3   OH261170   1.888   4.118  16.929  0.2766  0.7151  0.5380
13252TIP3    H161171   1.808   4.078  16.963  0.9580 -0.4393  0.8419
13252TIP3    H261172   1.864   4.154  16.844 -0.4475 -0.0735  0.4004
13253TIP3   OH261173   5.022   3.776  13.176 -0.4834  0.0574  0.6353
13253TIP3    H161174   4.995   3.772  13.084 -1.1977 -1.3527  0.8783
13253TIP3    H261175   4.943   3.805  13.222 -0.6084 -0.7642  0.9622
13254TIP3   OH261176   1.593   2.948  13.703  0.3610 -0.3159 -0.0823
13254TIP3    H161177   1.573   2.961  13.611  3.7955 -0.0946 -0.9514
13254TIP3    H261178   1.611   3.036  13.737  2.2512 -0.6487 -0.1212
13255TIP3   OH261179   1.324   0.009   5.453  0.7663 -0.1885  0.4609
13255TIP3    H161180   1.362   0.093   5.426  2.1340 -0.4614  1.4167
13255TIP3    H261181   1.334   0.008   5.548  1.1166 -1.5918  0.4269
13256TIP3   OH261182   3.803   1.985   2.885  0.5135 -0.1227 -0.0850
13256TIP3    H161183   3.748   2.051   2.843  2.1259 -0.4708 -3.0401
13256TIP3    H261184   3.879   2.033   2.916 -0.1800 -0.0403  1.5773
13257TIP3   OH261185   3.262   0.469   5.472 -0.1725  0.7868 -0.1467
13257TIP3    H161186   3.203   0.397   5.449 -0.3592  1.1735 -0.9067
13257TIP3    H261187   3.255   0.476   5.567  0.1643 -0.4689 -0.0089
13258TIP3   OH261188   0.892   1.298   5.216  0.0852 -0.2750 -0.5178
13258TIP3    H161189   0.849   1.262   5.138  0.4572  1.3458 -1.5208
13258TIP3    H261190   0.939   1.374   5.184  1.1657 -0.2043  1.1212
13259TIP3   OH261191   2.581   1.233  13.896 -0.2379 -0.1245  0.0691
13259TIP3    H161192   2.574   1.145  13.933  0.4772 -0.6326 -0.9541
13259TIP3    H261193   2.510   1.237  13.832  1.4988 -1.0977 -2.0500
13260TIP3   OH261194   6.278   0.564   0.053  0.4849 -0.2094  0.3705
13260TIP3    H161195   6.256   0.489   0.110  0.8923  0.1649  1.0377
13260TIP3    H261196   6.367   0.587   0.079  0.4133  0.4121  0.0609
13261TIP3   OH261197   1.834   0.964   2.495 -0.3132  0.0835 -0.5347
13261TIP3    H161198   1.761   0.902   2.493  0.7203 -1.1407 -1.6417
13261TIP3    H261199   1.897   0.925   2.554 -1.0454  1.8190  1.5643
13262TIP3   OH261200   3.296   3.686  14.508 -0.4825 -0.2604  0.4320
13262TIP3    H161201   3.351   3.763  14.498 -0.3769 -0.0858  2.1026
13262TIP3    H261202   3.216   3.707  14.460  0.2123  0.1845 -0.5545
13263TIP3   OH261203   2.480   6.500   0.593  0.0096  0.0884  0.1820
13263TIP3    H161204   2.416   6.535   0.654  1.5394  1.2491  1.2021
13263TIP3    H261205   2.484   6.406   0.613 -1.8849 -0.1838 -0.4617
13264TIP3   OH261206   1.754   1.348  13.564 -0.3680 -0.3077 -0.3385
13264TIP3    H161207   1.839   1.318  13.599 -1.2114 -1.9591  0.4445
13264TIP3    H261208   1.722   1.273  13.513 -0.5331  0.9877 -2.2133
13265TIP3   OH261209   2.409   2.458   0.023 -0.0495 -0.2018  0.6811
13265TIP3    H161210   2.479   2.408   0.065 -0.0464 -0.2026  0.6751
13265TIP3    H261211   2.455   2.518  -0.036 -0.0954 -0.8938 -0.0740
13266TIP3   OH261212   3.683   6.187   5.544  0.7372 -0.8290 -0.0480
13266TIP3    H161213   3.718   6.143   5.621  2.2878 -1.1256 -0.8756
13266TIP3    H261214   3.591   6.205   5.566  0.8096 -1.9894  1.3766
13267TIP3   OH261215   2.272   3.400   0.492  0.0534 -0.7022  0.5558
13267TIP3    H161216   2.318   3.350   0.559 -0.0975 -0.9196  0.4997
13267TIP3    H261217   2.196   3.437   0.537  0.9201  0.6644  0.9466
13268TIP3   OH261218   5.583   4.363  13.944  0.2203  0.1233  0.1728
13268TIP3    H161219   5.608   4.416  14.020 -0.2465  0.5947  0.0003
13268TIP3    H261220   5.547   4.283  13.983  0.6649  0.0459  0.4368
13269TIP3   OH261221   5.629   1.145   3.829  0.0412  0.7664 -0.0055
13269TIP3    H161222   5.569   1.178   3.896  0.6619 -0.0374  0.9597
13269TIP3    H261223   5.700   1.210   3.827  0.4258  0.3765  0.7003
13270TIP3   OH261224   3.988   1.130   4.846  0.0321 -0.2703  0.2096
13270TIP3    H161225   3.995   1.156   4.755  1.3056 -2.2911 -0.3479
13270TIP3    H261226   4.032   1.199   4.895  0.2269  0.3335 -0.7966
13271TIP3   OH261227   5.369   5.923   4.635 -0.1118 -0.2811  0.0536
13271TIP3    H161228   5.364   5.877   4.719  0.3604 -1.6368 -0.6271
13271TIP3    H261229   5.429   5.996   4.651 -0.5196 -0.1481  1.0465
13272TIP3   OH261230   1.721   5.676  15.137  0.2416 -0.5410  0.4498
13272TIP3    H161231   1.666   5.689  15.215  0.6916 -0.5564  0.7722
13272TIP3    H261232   1.744   5.765  15.110 -3.9512 -0.0875 -2.6437
13273TIP3   OH261233   3.189   6.060  15.565 -0.4153  0.3317  0.3636
13273TIP3    H161234   3.177   6.086  15.657 -1.2451  1.4657 -0.0391
13273TIP3    H261235   3.118   5.999  15.548  0.6176 -1.0751  0.8653
13274TIP3   OH261236   1.107   5.171   2.472 -0.0962  0.7606  0.2663
13274TIP3    H161237   1.136   5.223   2.547  0.5151  2.2901 -0.9642
13274TIP3    H261238   1.183   5.118   2.448 -0.5545 -0.3499  1.2052
13275TIP3   OH261239   4.157   5.505  16.806 -0.6218 -0.7386  0.1641
13275TIP3    H161240   4.190   5.486  16.718  2.6926 -0.7224  1.2953
13275TIP3    H261241   4.134   5.598  16.802  0.4053 -0.4880 -0.4595
13276TIP3   OH261242   0.410   4.026   5.749  0.3491  0.6201  0.0368
13276TIP3    H161243   0.502   4.000   5.751  0.3627  0.6958  0.4937
13276TIP3    H261244   0.403   4.094   5.815 -0.0523  0.5683  0.0492
13277TIP3   OH261245   1.761   4.226  16.702 -0.1948  0.0382 -0.3429
13277TIP3    H161246   1.677   4.184  16.683  0.7500 -1.3674 -1.5506
13277TIP3    H261247   1.745   4.319  16.686 -1.3128 -0.3012 -1.3322
13278TIP3   OH261248   6.033   0.713   6.582  0.3018  0.1094  0.6230
13278TIP3    H161249   6.065   0.801   6.603 -1.1122  0.8598 -0.1268
13278TIP3    H261250   6.028   0.668   6.666 -2.0097  1.8648  1.5313
13279TIP3   OH261251   2.209   1.494  11.504 -0.1144 -0.2764  0.2614
13279TIP3    H161252   2.298   1.528  11.495 -0.1382 -0.1433  0.5011
13279TIP3    H261253   2.213   1.406  11.467  0.1032 -0.2505  0.2193
13280TIP3   OH261254   1.051   5.906   3.239 -0.1069  0.0423 -0.2037
13280TIP3    H161255   1.119   5.954   3.287  0.1030 -0.6255  0.1674
13280TIP3    H261256   0.971   5.957   3.254  0.1880  0.4930 -0.1373
13281TIP3   OH261257   0.857   6.475  15.693  0.0116  0.5521  0.7290
13281TIP3    H161258   0.944   6.468  15.655 -0.7395  0.0488 -1.0000
13281TIP3    H261259   0.872   6.493  15.785  1.9389  2.6031  0.0986
13282TIP3   OH261260   3.885   0.061  10.740  0.0606  0.1825  0.1476
13282TIP3    H161261   3.917   0.151  10.740  2.2758 -0.4802 -2.0152
13282TIP3    H261262   3.827   0.057  10.664 -0.9921  0.0468  0.9391
13283TIP3   OH261263   1.857   6.793   0.676 -0.9063  0.8513  0.0004
13283TIP3    H161264   1.809   6.719   0.637  2.1933 -1.6326  0.4398
13283TIP3    H261265   1.888   6.843   0.600 -1.6240  0.7400 -0.3778
13284TIP3   OH261266   2.604   0.111   2.523  0.3368  0.5923  0.1273
13284TIP3    H161267   2.558   0.195   2.519  0.3275  0.7552  2.2296
13284TIP3    H261268   2.684   0.125   2.473 -0.5648  1.2039 -1.2047
13285TIP3   OH261269   0.988   2.559  13.947 -0.2938 -0.5359 -0.7147
13285TIP3    H161270   0.920   2.493  13.930  0.9420 -2.0464  0.0077
13285TIP3    H261271   1.043   2.557  13.869 -1.2418  0.9564 -1.4621
13286TIP3   OH261272   1.574   2.488   1.051  0.0616 -0.0264  0.2309
13286TIP3    H161273   1.529   2.535   0.980 -1.0320 -0.2364  0.7693
13286TIP3    H261274   1.653   2.452   1.009 -0.3182  0.2591 -0.7641
13287TIP3   OH261275   4.024   2.792  16.106  0.0694  0.2089 -0.5267
13287TIP3    H161276   4.059   2.802  16.194  1.5141 -0.5819 -0.9662
13287TIP3    H261277   3.930   2.779  16.118 -0.4509  4.0332  0.6170
13288TIP3   OH261278   1.971   6.312   1.972  0.1137 -0.5494  0.1035
13288TIP3    H161279   2.064   6.331   1.968  0.4069 -1.8477  0.1666
13288TIP3    H261280   1.941   6.316   1.882 -0.2407  1.8617  0.2627
13289TIP3   OH261281   3.508   0.470   2.518  0.3159 -0.1934  0.4206
13289TIP3    H161282   3.458   0.500   2.443  1.5125  1.8184  0.3435
13289TIP3    H261283   3.444   0.462   2.589 -0.3145  1.3315  0.0666
13290TIP3   OH261284   3.562   1.051  12.194  0.5431  0.1756 -0.1023
13290TIP3    H161285   3.537   1.137  12.160  1.4114  1.8369  3.0487
13290TIP3    H261286   3.497   1.032  12.262 -0.7805 -2.6947 -2.0030
13291TIP3   OH261287   2.478   5.704   3.838  0.4783 -0.1783  0.3530
13291TIP3    H161288   2.571   5.701   3.862  1.1646 -1.6722 -2.0815
13291TIP3    H261289   2.478   5.693   3.743 -2.1902  0.6561  0.1766
13292TIP3   OH261290   6.580   5.238  13.619 -0.4584  0.7666  0.4262
13292TIP3    H161291   6.540   5.212  13.702 -0.8025 -2.1920 -0.5399
13292TIP3    H261292   6.528   5.193  13.552 -0.3353  3.2044 -1.4884
13293TIP3   OH261293   0.924   6.494  13.183 -0.6746 -0.5866  0.0910
13293TIP3    H161294   0.947   6.517  13.093  2.6078  0.0106  0.9402
13293TIP3    H261295   0.840   6.449  13.176 -1.2784  0.7702 -3.0620
13294TIP3   OH261296   6.358   5.459  12.529  1.1162  0.2439 -0.2059
13294TIP3    H161297   6.372   5.531  12.590 -0.8451  0.4989  0.0015
13294TIP3    H261298   6.273   5.478  12.489  1.8513 -0.5013 -2.2133
13295TIP3   OH261299   5.667   1.964   0.181  0.1687 -0.0900 -0.2674
13295TIP3    H161300   5.579   2.000   0.178 -0.1154 -0.6665  0.6090
13295TIP3    H261301   5.723   2.040   0.197 -0.3381  0.0864  0.7793
13296TIP3   OH261302   6.566   3.285   2.331 -0.4999  0.4291 -0.1483
13296TIP3    H161303   6.622   3.346   2.380 -1.1372  0.9249 -0.0239
13296TIP3    H261304   6.623   3.251   2.262  0.5164 -0.5231  1.0985
13297TIP3   OH261305   5.147   3.876  11.756  0.8676 -0.3287  0.0426
13297TIP3    H161306   5.067   3.928  11.745 -0.3033 -2.0616  0.0468
13297TIP3    H261307   5.192   3.885  11.671  0.0811 -0.2799 -0.3834
13298TIP3   OH261308   2.156   1.343   0.706 -0.0685  0.0000  0.7981
13298TIP3    H161309   2.154   1.388   0.790 -0.2068 -2.4652  2.2351
13298TIP3    H261310   2.069   1.302   0.699  0.6889 -1.6441  0.5744
13299TIP3   OH261311   3.730   4.819   0.720 -0.6816 -0.1697  0.1780
13299TIP3    H161312   3.700   4.892   0.774  2.0539 -0.3075  2.0790
13299TIP3    H261313   3.769   4.860   0.643 -2.3520  0.1511 -0.5299
13300TIP3   OH261314   4.431   4.331  15.920  0.0121  0.0591  0.4308
13300TIP3    H161315   4.489   4.354  15.847  0.1056 -0.9832  0.1589
13300TIP3    H261316   4.489   4.328  15.996 -0.0517  0.9530  0.5308
13301TIP3   OH261317   2.716   2.436   2.174  0.0315 -0.3340  0.2464
13301TIP3    H161318   2.686   2.527   2.170 -1.3559 -0.8098 -1.5202
13301TIP3    H261319   2.749   2.425   2.263  0.1712  1.8666  0.5189
13302TIP3   OH261320   5.704   2.079  12.716 -0.5277  0.2407  0.2331
13302TIP3    H161321   5.788   2.121  12.731  0.7525 -2.1266  0.1779
13302TIP3    H261322   5.668   2.123  12.639  1.1516  0.6130 -0.3826
13303TIP3   OH261323   0.645   3.057  14.464  0.3123  0.2561 -0.0020
13303TIP3    H161324   0.640   3.014  14.379 -0.6044 -0.6789  0.5069
13303TIP3    H261325   0.683   3.143  14.445 -1.2154  0.6392 -1.5809
13304TIP3   OH261326   6.706   1.195  13.506 -0.1125  0.9144 -0.3597
13304TIP3    H161327   6.779   1.135  13.518  0.1388  1.2026 -0.4578
13304TIP3    H261328   6.647   1.149  13.447 -0.1673  0.5454 -0.0211
13305TIP3   OH261329   3.768   3.609  10.946 -0.9099  0.3499  0.6632
13305TIP3    H161330   3.734   3.637  11.031 -2.1618 -1.4962  0.8215
13305TIP3    H261331   3.692   3.605  10.889 -0.2968  0.1867 -0.1703
13306TIP3   OH261332   3.790   6.015  15.984  0.2980  0.1344 -0.1542
13306TIP3    H161333   3.840   6.074  16.041 -0.7389  1.5054 -0.6243
13306TIP3    H261334   3.825   5.928  16.004  0.4983  0.6519  2.0058
13307TIP3   OH261335   0.932   2.167  13.592  0.0219 -0.1100 -0.2959
13307TIP3    H161336   1.002   2.188  13.654 -1.6314  0.6563  1.4361
13307TIP3    H261337   0.903   2.252  13.559 -2.2140 -0.0213  1.5774
13308TIP3   OH261338   2.500   2.513  15.572 -0.2219  1.0998  0.1207
13308TIP3    H161339   2.585   2.522  15.527  0.7247  0.4044  1.6778
13308TIP3    H261340   2.437   2.498  15.501  1.2512 -0.2597 -0.9957
13309TIP3   OH261341   1.295   1.062   1.040  0.1237  0.7404  0.1688
13309TIP3    H161342   1.330   0.973   1.047 -1.0343  0.2740  0.3577
13309TIP3    H261343   1.372   1.117   1.028  0.9787 -0.1459  1.3221
13310TIP3   OH261344   6.522   1.992  14.495 -0.0656  0.0730  0.4098
13310TIP3    H161345   6.599   1.934  14.495 -1.0407 -1.2721  0.9649
13310TIP3    H261346   6.559   2.080  14.483  1.4681 -0.6304 -0.3897
13311TIP3   OH261347   2.510   1.535  12.518 -0.0085  0.4201 -0.1386
13311TIP3    H161348   2.565   1.561  12.592  0.6822  2.5267 -1.3240
13311TIP3    H261349   2.540   1.588  12.445 -0.5640 -1.7155 -2.0321
13312TIP3   OH261350   1.881   4.851  14.630 -0.2117 -0.5487  0.0680
13312TIP3    H161351   1.933   4.771  14.638 -1.1965 -1.3367 -1.0044
13312TIP3    H261352   1.847   4.866  14.718  1.2677 -0.3785  0.6398
13313TIP3   OH261353   1.781   4.331   5.192 -0.1805 -0.2303 -0.0782
13313TIP3    H161354   1.873   4.352   5.173  0.3965 -0.7750  1.8571
13313TIP3    H261355   1.756   4.269   5.124  1.5530 -1.6365  0.4848
13314TIP3   OH261356   2.560   5.209   2.180  0.5345 -0.6980 -0.2657
13314TIP3    H161357   2.595   5.166   2.102  2.4636  0.8284 -0.3470
13314TIP3    H261358   2.571   5.145   2.250  1.3546 -1.1305 -0.7695
13315TIP3   OH261359   6.427   4.243   0.528  0.7189  0.7520 -0.1835
13315TIP3    H161360   6.439   4.259   0.622 -1.4590  1.7073  0.0027
13315TIP3    H261361   6.334   4.224   0.519  1.3774 -2.2940 -1.8138
13316TIP3   OH261362   6.140   1.231  11.250  0.2552 -0.5324 -0.0077
13316TIP3    H161363   6.171   1.146  11.218  1.1707 -0.0236 -0.5293
13316TIP3    H261364   6.201   1.255  11.320 -1.0720 -1.1138  1.4113
13317TIP3   OH261365   0.974   2.846  11.618 -0.5738  0.1927 -0.4724
13317TIP3    H161366   0.933   2.833  11.704 -2.2219 -0.8301 -1.3618
13317TIP3    H261367   0.999   2.758  11.590 -1.3775  0.3238 -1.6507
13318TIP3   OH261368   2.974   0.838   1.963 -0.7609 -0.5142  0.6788
13318TIP3    H161369   3.027   0.915   1.941 -1.7650 -0.0454 -0.1884
13318TIP3    H261370   2.884   0.867   1.952 -1.1744 -2.2928 -1.5018
13319TIP3   OH261371   1.956   3.857  13.462  0.3475 -0.1273  0.1594
13319TIP3    H161372   1.917   3.902  13.537 -1.8760 -0.7224 -0.5507
13319TIP3    H261373   1.950   3.764  13.484  2.8266 -0.2430  0.6432
13320TIP3   OH261374   4.224   5.676   3.858 -0.2336  0.1773  0.6407
13320TIP3    H161375   4.191   5.599   3.812 -0.2611  0.4036  0.2747
13320TIP3    H261376   4.291   5.712   3.799 -1.5805  1.5411 -0.1101
13321TIP3   OH261377   0.329   3.366  15.933 -0.0801 -0.0862 -0.2459
13321TIP3    H161378   0.312   3.303  15.863  0.4555  0.9553 -1.3570
13321TIP3    H261379   0.402   3.330  15.982  0.0890 -0.4333 -0.7479
13322TIP3   OH261380   4.981   1.463  15.192 -0.3968  0.3104  0.5437
13322TIP3    H161381   5.014   1.494  15.276  0.7782  3.2308 -0.8472
13322TIP3    H261382   5.031   1.512  15.126 -1.3980 -1.6786 -1.8850
13323TIP3   OH261383   4.402   0.367   1.158 -0.2433  0.1920 -0.3446
13323TIP3    H161384   4.369   0.289   1.202 -0.6685 -0.3051 -1.4961
13323TIP3    H261385   4.478   0.337   1.109  0.1726  0.7188 -0.0419
13324TIP3   OH261386   2.133   1.638   2.435  0.5696  0.3585 -0.3779
13324TIP3    H161387   2.147   1.666   2.345  0.0862  1.4736 -0.1311
13324TIP3    H261388   2.051   1.681   2.461 -0.9047 -2.2537 -0.3338
13325TIP3   OH261389   5.437   4.737  16.994  0.2011 -0.1493 -0.0554
13325TIP3    H161390   5.427   4.831  16.981 -0.7295 -0.4228 -1.5713
13325TIP3    H261391   5.421   4.724  17.088 -0.3141  1.1104  0.0530
13326TIP3   OH261392   4.595   5.751   2.515  0.0297  0.5042  0.3927
13326TIP3    H161393   4.642   5.710   2.588  3.2036 -0.3134 -1.8751
13326TIP3    H261394   4.630   5.840   2.511  0.3451  0.3544 -0.4323
13327TIP3   OH261395   6.361   4.283  15.039 -0.7547  0.2583 -0.0935
13327TIP3    H161396   6.306   4.255  15.112  0.5801  0.2501  0.9460
13327TIP3    H261397   6.409   4.358  15.073  1.4729 -1.0232 -0.1803
13328TIP3   OH261398   2.680   2.345   4.676  0.3767  0.1414 -0.1857
13328TIP3    H161399   2.595   2.334   4.719  0.8480  0.7040  0.9268
13328TIP3    H261400   2.659   2.389   4.593 -0.3950  0.4921  0.1819
13329TIP3   OH261401   6.323   6.171   5.982 -0.3218  0.3926 -0.0587
13329TIP3    H161402   6.405   6.215   6.003  1.0909 -1.0065 -2.2746
13329TIP3    H261403   6.255   6.237   5.998  1.1042  1.3902  2.4261
13330TIP3   OH261404   4.983   0.259  16.735 -0.1652  0.0981 -0.2805
13330TIP3    H161405   5.026   0.296  16.659  1.1613  1.1546  0.9341
13330TIP3    H261406   4.995   0.165  16.727  2.5182  0.3546  0.0497
13331TIP3   OH261407   5.699   2.134   5.994  0.1751  0.1551 -0.8272
13331TIP3    H161408   5.687   2.050   5.949 -2.2487 -0.2084  0.3416
13331TIP3    H261409   5.686   2.114   6.086 -2.5205  2.0712 -0.6841
13332TIP3   OH261410   0.061   2.546   6.443 -0.0727 -0.4364 -0.1355
13332TIP3    H161411  -0.001   2.614   6.414 -0.4210 -0.7236 -0.0677
13332TIP3    H261412   0.006   2.472   6.466  0.3541 -0.9638 -0.7931
13333TIP3   OH261413   1.922   6.502   4.635  0.4774  0.8339 -0.0690
13333TIP3    H161414   1.931   6.584   4.587  0.4804 -0.5749 -2.6782
13333TIP3    H261415   1.840   6.511   4.684  0.7577  2.5461  0.1314
13334TIP3   OH261416   4.665   5.444  14.746 -0.1406 -0.5425 -0.0111
13334TIP3    H161417   4.716   5.370  14.780  1.0640 -0.5838 -1.7824
13334TIP3    H261418   4.592   5.402  14.700  0.3460 -0.6460 -0.7102
13335TIP3   OH261419   3.985   4.272  15.546 -0.2513  0.3193 -0.0400
13335TIP3    H161420   3.996   4.365  15.569 -3.0822  0.6405  0.4515
13335TIP3    H261421   3.965   4.274  15.452 -0.6637  0.2735  0.0432
13336TIP3   OH261422   5.731   1.129   4.183 -0.1615  0.1772 -0.3202
13336TIP3    H161423   5.737   1.127   4.278 -0.6873 -2.9028 -0.2591
13336TIP3    H261424   5.820   1.151   4.154 -0.1420  1.8008  0.8244
13337TIP3   OH261425   1.388   5.041  13.569  0.3491 -0.2023  0.7352
13337TIP3    H161426   1.455   4.987  13.528  0.9262  0.8200  0.2986
13337TIP3    H261427   1.353   5.094  13.498 -0.4635 -0.2369  1.0884
13338TIP3   OH261428   5.388   6.133  10.623 -0.3592  0.1397  0.2406
13338TIP3    H161429   5.352   6.045  10.614  0.4685 -0.0271 -2.0272
13338TIP3    H261430   5.483   6.121  10.626 -0.2843  0.8303  2.4320
13339TIP3   OH261431   5.021   2.506   3.464 -0.6627  0.3077  0.0715
13339TIP3    H161432   4.946   2.514   3.405  0.0577 -3.4083 -1.6874
13339TIP3    H261433   5.012   2.419   3.503  2.3850 -0.0748  0.2144
13340TIP3   OH261434   6.241   1.217   2.598  0.1757  0.2775 -0.3892
13340TIP3    H161435   6.330   1.200   2.631  0.7247  0.7175 -1.5747
13340TIP3    H261436   6.188   1.146   2.635  1.2769 -0.7286 -0.6515
13341TIP3   OH261437   2.192   1.105  13.040 -0.5213 -0.1446 -0.0790
13341TIP3    H161438   2.152   1.172  13.095 -0.9061 -0.4494  0.0194
13341TIP3    H261439   2.146   1.024  13.064  0.0481 -0.4737 -0.0754
13342TIP3   OH261440   0.946   2.749   0.666  0.2203  0.5559  0.0337
13342TIP3    H161441   0.914   2.768   0.578 -0.1725  0.6201  0.1856
13342TIP3    H261442   0.896   2.672   0.693 -0.2901  1.0533  0.5292
13343TIP3   OH261443   4.121   4.044  16.869 -0.3891  0.2777  0.1592
13343TIP3    H161444   4.185   4.094  16.818 -0.1426  1.0594  1.2179
13343TIP3    H261445   4.172   3.972  16.907 -0.3835  0.2308  0.0642
13344TIP3   OH261446   2.282   1.615  13.333  0.1366  0.5681  0.0593
13344TIP3    H161447   2.375   1.624  13.311  0.6928 -2.9319  0.4032
13344TIP3    H261448   2.281   1.563  13.414 -2.1070 -0.7378 -0.7121
13345TIP3   OH261449   1.320   3.833  11.596  0.1382 -0.0241 -0.0655
13345TIP3    H161450   1.299   3.885  11.518 -1.2595  1.7576  1.4044
13345TIP3    H261451   1.262   3.757  11.590  0.4376 -0.1923 -1.0171
13346TIP3   OH261452   0.165   5.837   0.312  0.0394  0.2884  0.7284
13346TIP3    H161453   0.250   5.820   0.353  0.1251  0.8477  0.7840
13346TIP3    H261454   0.114   5.758   0.332  0.9798 -0.6648 -0.4928
13347TIP3   OH261455   6.492   4.138   3.900  0.3415 -0.1315 -0.2328
13347TIP3    H161456   6.511   4.131   3.994 -0.1403  0.1439 -0.1073
13347TIP3    H261457   6.396   4.138   3.896  0.3400  0.9977 -0.6293
13348TIP3   OH261458   3.731   6.499   5.110  0.9386  0.3905 -0.1267
13348TIP3    H161459   3.770   6.415   5.136 -0.4904 -0.3742 -0.3787
13348TIP3    H261460   3.711   6.488   5.017  0.7848  1.0418 -0.1739
13349TIP3   OH261461   0.628   3.385  14.469 -0.1679  0.2160  0.0832
13349TIP3    H161462   0.716   3.366  14.504  0.1528  2.1244  0.3903
13349TIP3    H261463   0.574   3.399  14.546 -0.8478 -1.2194 -0.0978
13350TIP3   OH261464   6.296   5.600   2.766  0.7993 -0.0360 -0.1716
13350TIP3    H161465   6.316   5.637   2.681 -1.7486  3.5365  0.5523
13350TIP3    H261466   6.349   5.651   2.828 -1.1404  1.0508  0.6885
13351TIP3   OH261467   2.491   5.619   2.791  0.2767 -0.2337  0.0514
13351TIP3    H161468   2.575   5.664   2.801 -0.4057  0.5917  2.8126
13351TIP3    H261469   2.502   5.537   2.838  0.0470 -0.9313 -1.0726
13352TIP3   OH261470   1.759   2.422  12.528  0.3255  0.0971  0.3792
13352TIP3    H161471   1.744   2.327  12.519  2.1304 -0.2370  0.5629
13352TIP3    H261472   1.724   2.443  12.614 -1.5809 -0.0403 -0.3008
13353TIP3   OH261473   4.727   6.256   4.892  0.4670  0.4548  0.2721
13353TIP3    H161474   4.647   6.241   4.843  0.7434  0.4842 -0.1884
13353TIP3    H261475   4.774   6.323   4.842  0.1886  1.3913  1.2177
13354TIP3   OH261476   3.133   5.412  16.312 -0.2932  0.6630  0.7067
13354TIP3    H161477   3.185   5.461  16.375 -0.2853  0.9764  0.4583
13354TIP3    H261478   3.095   5.479  16.255 -1.4923  0.4867  1.2729
13355TIP3   OH261479   5.975   3.963   4.670 -0.2632  0.1949 -0.0637
13355TIP3    H161480   5.942   3.884   4.714  1.3099 -0.0804  0.6682
13355TIP3    H261481   6.009   4.017   4.741 -1.2535  1.5384 -0.5641
13356TIP3   OH261482   1.275   3.631   3.586 -0.0912  0.1517  0.0050
13356TIP3    H161483   1.239   3.652   3.672 -1.5887  0.9851 -0.7778
13356TIP3    H261484   1.277   3.715   3.540 -0.4519 -0.4627 -1.1723
13357TIP3   OH261485   3.224   0.569  14.869 -0.8711 -0.1186  0.4267
13357TIP3    H161486   3.292   0.594  14.807  0.0359  2.1535  2.2223
13357TIP3    H261487   3.207   0.477  14.848  0.4480  0.1042 -2.1435
13358TIP3   OH261488   4.971   6.788   3.654 -0.1020  0.0504 -0.4079
13358TIP3    H161489   5.045   6.787   3.715 -1.0911  0.3717  0.8526
13358TIP3    H261490   5.008   6.820   3.572  1.5034 -1.4576 -0.3201
13359TIP3   OH261491   4.707   2.115   5.702  0.1836  0.1090  0.1118
13359TIP3    H161492   4.803   2.119   5.696  0.1936  1.1219  0.7329
13359TIP3    H261493   4.678   2.205   5.691 -0.6180 -0.0156  1.0185
13360TIP3   OH261494   1.003   0.795  16.525 -0.4779 -0.4210  0.1887
13360TIP3    H161495   1.073   0.860  16.525 -1.3665  0.6120 -1.5501
13360TIP3    H261496   0.994   0.770  16.617  0.8221  0.8828  0.7154
13361TIP3   OH261497   6.444   4.683  11.674  0.3247 -0.5000  0.2175
13361TIP3    H161498   6.523   4.642  11.709  0.6985  0.1902  0.2218
13361TIP3    H261499   6.455   4.776  11.694 -1.3329 -0.5958  1.8284
13362TIP3   OH261500   4.806   4.065  12.782 -0.0772  0.0866  0.4051
13362TIP3    H161501   4.808   3.986  12.729 -6.0197 -0.0499 -0.3844
13362TIP3    H261502   4.775   4.133  12.723 -1.4100  1.3228  2.3717
13363TIP3   OH261503   0.613   1.042  16.711  0.2722  0.5485  0.6902
13363TIP3    H161504   0.587   1.120  16.662 -0.0753  0.2399  0.3763
13363TIP3    H261505   0.693   1.068  16.756  1.4339  0.4481 -1.1682
13364TIP3   OH261506   4.196   2.941   0.357  0.1300  0.6639 -0.3427
13364TIP3    H161507   4.201   2.976   0.447 -0.8827 -0.0123 -0.0163
13364TIP3    H261508   4.110   2.968   0.326  0.1107  0.0868 -0.7820
13365TIP3   OH261509   2.182   1.956  14.229 -0.1210 -0.2675  0.0490
13365TIP3    H161510   2.218   1.977  14.315 -0.4426 -1.3890  0.4673
13365TIP3    H261511   2.256   1.919  14.180  0.3956  1.5336 -0.6234
13366TIP3   OH261512   5.446   5.125  11.343  0.2753 -0.1881 -0.1350
13366TIP3    H161513   5.351   5.117  11.354  0.1634  1.7451  0.7090
13366TIP3    H261514   5.465   5.071  11.266 -1.3982 -1.1078  0.0326
13367TIP3   OH261515   5.934   6.275  15.516  0.4933  0.6485  0.0554
13367TIP3    H161516   5.962   6.246  15.429  1.6035 -1.2028  0.9607
13367TIP3    H261517   6.014   6.303  15.559  0.1873  0.1826  0.9564
13368TIP3   OH261518   0.042   5.573  15.367  0.0470  0.2850 -0.3062
13368TIP3    H161519   0.097   5.509  15.412 -0.7040 -0.6635 -0.7176
13368TIP3    H261520   0.064   5.656  15.410  3.3695  0.3660 -1.8385
13369TIP3   OH261521   0.859   6.143   5.113 -0.1317 -0.2438 -0.7153
13369TIP3    H161522   0.930   6.118   5.172  1.7474 -1.1087 -3.1837
13369TIP3    H261523   0.896   6.210   5.057 -0.7346 -1.6658 -2.9536
13370TIP3   OH261524   1.168   3.519  16.980 -0.3031  0.1521 -0.7003
13370TIP3    H161525   1.099   3.533  16.915 -1.3557  0.0006  0.3519
13370TIP3    H261526   1.126   3.469  17.049  0.2838  1.8124  0.9422
13371TIP3   OH261527   0.895   4.639   5.443 -0.1891 -0.3251 -0.2287
13371TIP3    H161528   0.975   4.605   5.483  1.9025  2.0666 -2.0803
13371TIP3    H261529   0.843   4.673   5.516  2.2541  1.4755  0.7818
13372TIP3   OH261530   1.434   6.743  11.949  0.4203  0.5965 -0.4552
13372TIP3    H161531   1.452   6.832  11.982 -0.7028 -0.2162  2.7264
13372TIP3    H261532   1.509   6.691  11.978 -0.7297 -0.2077  1.2085
13373TIP3   OH261533   4.425   2.204  14.786  0.0701 -0.0147  0.0937
13373TIP3    H161534   4.489   2.273  14.802  1.6656 -1.4527  0.1893
13373TIP3    H261535   4.359   2.245  14.730  0.4760  1.8232  0.8735
13374TIP3   OH261536   5.202   4.262   1.229  0.0276  0.4506 -0.2728
13374TIP3    H161537   5.280   4.278   1.282  0.5732  1.6108 -1.3654
13374TIP3    H261538   5.150   4.201   1.281  0.2418  1.9509  1.8663
13375TIP3   OH261539   2.205   5.287  15.944  0.0742  0.3747  0.2533
13375TIP3    H161540   2.295   5.293  15.977 -0.1585 -1.2524  1.3171
13375TIP3    H261541   2.171   5.376  15.953  1.8747  1.3011 -1.2272
13376TIP3   OH261542   4.958   4.625  12.897 -0.2486  0.3869  0.7059
13376TIP3    H161543   4.871   4.665  12.891  0.2039  1.3010 -0.0140
13376TIP3    H261544   4.941   4.532  12.912 -1.3569  0.4984  0.2371
13377TIP3   OH261545   5.415   5.518  12.167 -0.2712 -0.2107 -0.2569
13377TIP3    H161546   5.434   5.612  12.170  0.2941 -0.2804 -1.1981
13377TIP3    H261547   5.340   5.510  12.107 -2.0920 -0.1353  1.8682
13378TIP3   OH261548   3.938   4.219   2.509 -0.3777  0.3711  0.9293
13378TIP3    H161549   3.893   4.171   2.578 -1.0176 -1.1722 -0.4789
13378TIP3    H261550   4.025   4.178   2.505  0.1593  1.3850  1.6950
13379TIP3   OH261551   2.661   3.976  17.023  0.0793 -0.3848 -0.0162
13379TIP3    H161552   2.671   4.071  17.029 -3.0127  0.0006  0.2694
13379TIP3    H261553   2.607   3.961  16.946  0.2253 -1.9056  0.1304
13380TIP3   OH261554   6.305   2.611   2.210  0.1423  0.9209  0.2117
13380TIP3    H161555   6.366   2.561   2.265  1.0239  0.2476 -1.3090
13380TIP3    H261556   6.351   2.622   2.127 -2.0671 -0.1886 -1.2434
13381TIP3   OH261557   1.289   6.491  14.664 -0.9215  0.1477  0.3943
13381TIP3    H161558   1.348   6.440  14.718 -0.1197  3.0395  2.5134
13381TIP3    H261559   1.343   6.521  14.590  0.2315  2.1805  1.9455
13382TIP3   OH261560   6.711   3.124   1.716 -0.2097 -0.0849  0.2832
13382TIP3    H161561   6.687   3.093   1.804  1.4196 -2.4116  0.0119
13382TIP3    H261562   6.778   3.191   1.732 -0.0239 -0.3958  0.8597
13383TIP3   OH261563   6.025   0.592  12.539  0.5318  0.3499  0.4129
13383TIP3    H161564   5.968   0.658  12.499  0.9855  0.9687  0.7668
13383TIP3    H261565   6.107   0.638  12.555  1.8777 -1.0590 -1.9474
13384TIP3   OH261566   0.940   3.807  16.767 -0.4121 -0.3386 -0.3156
13384TIP3    H161567   0.937   3.718  16.803  1.5218 -0.3364 -0.0491
13384TIP3    H261568   0.902   3.798  16.680 -0.2026 -1.4571 -0.3112
13385TIP3   OH261569   1.487   6.346   2.443  0.1046 -0.0867 -0.5324
13385TIP3    H161570   1.521   6.266   2.402  1.0674  0.0667 -0.0667
13385TIP3    H261571   1.491   6.328   2.537 -0.4728  0.1985 -0.4484
13386TIP3   OH261572   4.943   2.728   2.319  0.4837  0.0863 -0.3673
13386TIP3    H161573   4.969   2.816   2.344 -0.3386 -0.3122  2.1199
13386TIP3    H261574   4.984   2.671   2.384 -0.7229 -1.1758 -0.6646
13387TIP3   OH261575   5.878   5.178  15.852  0.6071 -0.1425 -0.2318
13387TIP3    H161576   5.970   5.192  15.831  0.0786  1.2222 -1.8861
13387TIP3    H261577   5.845   5.123  15.781  0.3236 -1.4011  0.8379
13388TIP3   OH261578   0.953   3.283   6.408 -0.2087  0.8077 -0.0934
13388TIP3    H161579   0.999   3.200   6.393 -0.9158  0.3999 -0.0413
13388TIP3    H261580   1.016   3.337   6.456  0.0341  0.0778  0.4303
13389TIP3   OH261581   5.678   4.191  14.726 -0.0828 -0.4614  0.2229
13389TIP3    H161582   5.738   4.173  14.654  0.7697  0.3145  0.7076
13389TIP3    H261583   5.664   4.286  14.723  1.9428  0.0435  2.4827
13390TIP3   OH261584   6.230   5.781   5.028  0.2000  0.3811  0.2127
13390TIP3    H161585   6.228   5.686   5.038 -2.8832  0.2489 -0.6743
13390TIP3    H261586   6.210   5.815   5.116  3.4455  0.4096  1.0712
13391TIP3   OH261587   5.460   4.551  11.784  0.0330  0.4826  0.5394
13391TIP3    H161588   5.419   4.484  11.840 -0.6552  1.0816  0.7678
13391TIP3    H261589   5.467   4.509  11.699  0.7257 -0.3041  0.9745
13392TIP3   OH261590   5.917   5.126   5.688 -0.2184 -0.2998 -0.3464
13392TIP3    H161591   5.824   5.115   5.666 -0.2618 -0.2726 -0.1826
13392TIP3    H261592   5.959   5.048   5.651 -0.4340 -0.7249  0.2761
13393TIP3   OH261593   5.864   2.719  13.904 -0.5950 -0.4881 -0.0773
13393TIP3    H161594   5.825   2.806  13.898 -1.2305 -0.5947  1.9340
13393TIP3    H261595   5.797   2.660  13.868  0.1022 -0.1390 -2.0778
13394TIP3   OH261596   2.148   1.522  16.512  0.1018 -0.5672 -0.0411
13394TIP3    H161597   2.141   1.588  16.581 -0.6337 -1.0213  0.3245
13394TIP3    H261598   2.089   1.552  16.444  2.4143  1.0493 -1.4874
13395TIP3   OH261599   3.850   1.972  16.691 -0.0621 -0.0599  0.8441
13395TIP3    H161600   3.789   2.006  16.757 -0.1403 -0.8124  1.1611
13395TIP3    H261601   3.871   2.049  16.637  1.0755  0.9167  2.5491
13396TIP3   OH261602   4.721   0.767   2.136 -0.0678 -0.2361 -0.4201
13396TIP3    H161603   4.709   0.728   2.222  0.2271 -0.2101 -0.3686
13396TIP3    H261604   4.781   0.840   2.150  0.3350 -0.5011 -0.7200
13397TIP3   OH261605   3.015   5.537  12.898  0.0291  0.6801 -0.1374
13397TIP3    H161606   3.071   5.615  12.897 -0.1139  0.8219  1.0668
13397TIP3    H261607   2.934   5.565  12.857  0.6474  0.6059 -1.4686
13398TIP3   OH261608   2.143   1.447   0.984 -0.7806  1.3790  0.2308
13398TIP3    H161609   2.076   1.473   1.047 -1.2910  1.4499 -0.3287
13398TIP3    H261610   2.203   1.522   0.980 -1.0175  1.5700  0.2656
13399TIP3   OH261611   0.383   3.009  11.260  0.1265  0.1824  0.0126
13399TIP3    H161612   0.313   2.975  11.204  1.0704 -0.5490 -0.7373
13399TIP3    H261613   0.440   3.058  11.200 -0.2277  1.5845  0.7754
13400TIP3   OH261614   4.431   0.228   5.043  0.5285  0.2541 -0.0432
13400TIP3    H161615   4.398   0.188   4.963  1.3400  1.3796 -0.9666
13400TIP3    H261616   4.490   0.162   5.080 -2.5595 -1.8381  1.6718
13401TIP3   OH261617   5.546   5.587   0.984 -0.5586  0.1517 -0.5166
13401TIP3    H161618   5.612   5.655   0.995  0.1930 -0.7745  1.0903
13401TIP3    H261619   5.535   5.579   0.889 -0.0418  1.8879 -0.7490
13402TIP3   OH261620   6.105   1.183  14.586 -0.2978 -0.1905  0.2060
13402TIP3    H161621   6.043   1.181  14.659 -1.2909  0.0352 -0.6184
13402TIP3    H261622   6.076   1.255  14.530  0.2223 -0.5970 -0.6161
13403TIP3   OH261623   4.505   3.153   4.366  0.0813  0.1277 -0.1877
13403TIP3    H161624   4.436   3.131   4.303 -0.8511  1.6918  0.2303
13403TIP3    H261625   4.555   3.072   4.376 -0.2123 -0.3778 -2.3304
13404TIP3   OH261626   6.027   0.134  16.692  0.0024 -1.1912 -0.6454
13404TIP3    H161627   6.103   0.152  16.747 -0.7424  2.1198 -0.4521
13404TIP3    H261628   5.980   0.065  16.738  0.8954 -0.5485  1.3792
13405TIP3   OH261629   1.581   6.488  11.579  0.4361 -0.2485 -0.2491
13405TIP3    H161630   1.610   6.575  11.608  1.6820 -0.3467 -1.1372
13405TIP3    H261631   1.515   6.463  11.644 -1.3881  2.1543 -1.0210
13406TIP3   OH261632   2.993   3.608  15.534  0.3496  0.0369  0.4449
13406TIP3    H161633   3.048   3.664  15.589  3.1691 -1.1972 -0.8944
13406TIP3    H261634   3.032   3.615  15.447 -1.6498 -0.9833 -0.5837
13407TIP3   OH261635   5.430   0.076  11.861 -0.1697  0.7665 -0.1969
13407TIP3    H161636   5.379   0.025  11.924 -1.2209 -0.0983 -1.7011
13407TIP3    H261637   5.486   0.131  11.915 -1.1461  0.1648  1.4926
13408TIP3   OH261638   0.390   0.755  12.457  0.0404  0.0125  0.5486
13408TIP3    H161639   0.472   0.707  12.469  0.2425  0.0993 -0.3853
13408TIP3    H261640   0.378   0.757  12.362 -0.4982  0.9140  0.6280
13409TIP3   OH261641   2.995   4.641   4.650 -0.5020  0.0450 -0.1902
13409TIP3    H161642   2.927   4.632   4.583  0.0495  3.2883 -1.3955
13409TIP3    H261643   2.946   4.650   4.732 -1.5690  1.6775 -0.9565
13410TIP3   OH261644   6.011   0.466   4.222  0.9054  0.7359 -0.0588
13410TIP3    H161645   6.028   0.374   4.201 -0.4797  0.3203  0.4903
13410TIP3    H261646   6.028   0.473   4.316 -0.4838  0.6261  0.2286
13411TIP3   OH261647   4.400   3.021   4.735  0.5046 -0.4239  0.1933
13411TIP3    H161648   4.424   2.935   4.700  0.8495 -1.2243  2.2470
13411TIP3    H261649   4.312   3.037   4.702  2.0982  0.6790 -4.1202
13412TIP3   OH261650   3.151   4.816   4.526  0.2458  0.3841 -0.1040
13412TIP3    H161651   3.091   4.744   4.544 -2.8309  2.9092  0.6768
13412TIP3    H261652   3.208   4.821   4.602  0.5846 -1.2049 -0.2226
13413TIP3   OH261653   0.124   2.662   4.659  0.1270 -0.0368 -0.2311
13413TIP3    H161654   0.138   2.751   4.626 -2.3129 -0.1075 -1.7210
13413TIP3    H261655   0.108   2.609   4.581  0.6698 -1.6439  0.6854
13414TIP3   OH261656   4.910   1.123  10.762  0.2890 -0.2111  0.0930
13414TIP3    H161657   4.963   1.162  10.692  0.4310  0.0217  0.3272
13414TIP3    H261658   4.953   1.040  10.781 -1.3086 -1.6277 -1.9951
13415TIP3   OH261659   2.240   1.891  16.517  0.0523  0.2445 -0.1279
13415TIP3    H161660   2.294   1.962  16.552  1.5941 -0.5769 -0.7490
13415TIP3    H261661   2.238   1.826  16.587 -0.5089  0.4447  0.0520
13416TIP3   OH261662   6.480   4.475  16.342  0.5150 -0.1106  0.6084
13416TIP3    H161663   6.435   4.557  16.322  1.3332 -0.3688 -2.9639
13416TIP3    H261664   6.493   4.477  16.437 -3.6502  1.6279  1.3435
13417TIP3   OH261665   2.235   2.427   1.907 -0.9485  0.3158 -0.2816
13417TIP3    H161666   2.188   2.475   1.839  1.0005  1.0845 -1.1722
13417TIP3    H261667   2.255   2.494   1.973 -1.2159 -0.0392  0.1709
13418TIP3   OH261668   3.051   2.011   5.639 -0.1135 -0.1413 -0.1780
13418TIP3    H161669   2.998   2.048   5.569 -0.3209  2.3065  1.1903
13418TIP3    H261670   2.996   2.015   5.717  0.8429 -0.8898  0.5739
13419TIP3   OH261671   6.787   1.268   1.980 -0.3763 -0.5828 -0.3364
13419TIP3    H161672   6.850   1.197   1.997 -1.1949 -1.5954 -1.4163
13419TIP3    H261673   6.841   1.346   1.974  0.4447 -0.8711  2.0652
13420TIP3   OH261674   3.144   0.730  14.420  0.0550 -0.0244 -0.4297
13420TIP3    H161675   3.146   0.815  14.463 -1.5668  0.4323 -1.1816
13420TIP3    H261676   3.119   0.669  14.489  0.9205  0.1314  0.0422
13421TIP3   OH261677   1.709   4.745  16.447 -0.1669  0.3465 -0.0634
13421TIP3    H161678   1.650   4.717  16.377 -1.5461 -0.3496  1.3296
13421TIP3    H261679   1.778   4.679  16.448 -0.3218  0.1715 -0.5317
13422TIP3   OH261680   2.235   4.228  11.711 -0.3845 -0.4264 -0.1551
13422TIP3    H161681   2.236   4.137  11.740  0.2799 -0.4259 -0.1682
13422TIP3    H261682   2.251   4.223  11.616  0.2641 -0.2622 -0.0553
13423TIP3   OH261683   4.653   3.825   4.701 -0.0592 -0.3378  0.4518
13423TIP3    H161684   4.676   3.893   4.637 -0.6643  0.0614  0.6425
13423TIP3    H261685   4.709   3.844   4.777 -1.1892  0.8206  1.0350
13424TIP3   OH261686   0.105   4.900  11.459 -0.2157 -0.1826 -0.1479
13424TIP3    H161687   0.060   4.817  11.448 -0.8210  0.3392 -1.8386
13424TIP3    H261688   0.146   4.893  11.545 -0.7828 -1.9631  0.0235
13425TIP3   OH261689   3.179   4.897   1.672 -0.0484  0.1049 -0.0762
13425TIP3    H161690   3.124   4.975   1.664  0.3500  0.3052 -0.9887
13425TIP3    H261691   3.232   4.897   1.593  2.0850  0.5470  1.2709
13426TIP3   OH261692   4.346   3.321   3.473  0.2206 -0.2414 -0.2482
13426TIP3    H161693   4.377   3.375   3.545  0.6952 -1.5077  0.5232
13426TIP3    H261694   4.253   3.343   3.464  0.0144 -0.4850  1.1371
13427TIP3   OH261695   3.232   2.189  13.341  0.3781 -0.3773 -0.2584
13427TIP3    H161696   3.240   2.116  13.280  1.4412  0.1800 -0.8017
13427TIP3    H261697   3.284   2.164  13.417  1.2699  0.0807 -0.7113
13428TIP3   OH261698   4.024   2.105   5.573  0.0855  0.4100 -0.1024
13428TIP3    H161699   3.931   2.126   5.569 -0.8940 -2.7107  2.2953
13428TIP3    H261700   4.063   2.177   5.623 -1.4134  0.7782  0.5879
13429TIP3   OH261701   0.398   0.127  13.858 -0.1034  0.6315  0.0072
13429TIP3    H161702   0.475   0.093  13.904  0.1453  0.7699 -0.3040
13429TIP3    H261703   0.327   0.068  13.884 -0.3952  1.7895  2.0528
13430TIP3   OH261704   2.493   2.511   4.487  0.9920  0.3072 -0.1044
13430TIP3    H161705   2.494   2.585   4.547  0.4196 -1.3013  2.0250
13430TIP3    H261706   2.414   2.524   4.435 -0.3471  0.1264  1.7710
13431TIP3   OH261707   3.171   5.384   0.814 -0.7458  0.4245 -0.5520
13431TIP3    H161708   3.214   5.304   0.783 -0.1646  0.6583 -0.3611
13431TIP3    H261709   3.086   5.384   0.771 -0.3185  0.2625 -1.4132
13432TIP3   OH261710   2.606   5.085   1.905 -0.0706  0.1052 -0.2127
13432TIP3    H161711   2.577   5.041   1.825  0.9437 -2.0447  0.5101
13432TIP3    H261712   2.661   5.157   1.874  1.1274 -1.2834 -1.4935
13433TIP3   OH261713   2.532   2.973  13.861 -0.5385  0.3048 -0.3670
13433TIP3    H161714   2.573   2.943  13.780 -1.1760  0.0635 -0.6107
13433TIP3    H261715   2.546   3.068  13.862  0.0598  0.2162 -0.4201
13434TIP3   OH261716   6.648   2.945   0.019  0.0217 -0.0075  0.5346
13434TIP3    H161717   6.723   3.004   0.014 -0.1713  0.2674  0.8112
13434TIP3    H261718   6.675   2.867  -0.029  0.9565 -0.4230  1.6891
13435TIP3   OH261719   5.473   5.504  15.918 -0.0612 -0.3022  0.2493
13435TIP3    H161720   5.558   5.502  15.875 -0.6043  0.7371 -0.9281
13435TIP3    H261721   5.439   5.591  15.900 -1.3066 -0.6497  0.8305
13436TIP3   OH261722   4.231   5.943  12.354 -0.5233 -0.3383 -0.9938
13436TIP3    H161723   4.205   5.864  12.401  1.0269  0.0865  0.7044
13436TIP3    H261724   4.202   6.015  12.410  2.7117  0.1671  0.2522
13437TIP3   OH261725   4.780   2.944  16.475 -0.2019  0.5195  0.4687
13437TIP3    H161726   4.700   2.914  16.516 -0.4529  1.4553  0.6864
13437TIP3    H261727   4.796   3.031  16.512  0.4114  0.7302 -0.2464
13438TIP3   OH261728   6.521   5.758  11.138 -0.4271 -0.1424 -0.6130
13438TIP3    H161729   6.440   5.708  11.147 -0.0931 -1.0230 -2.1316
13438TIP3    H261730   6.590   5.692  11.138 -0.0624  0.0571 -4.0446
13439TIP3   OH261731   4.928   6.769  16.781  0.0341 -0.2544  0.0153
13439TIP3    H161732   5.003   6.720  16.815 -2.3833 -3.2191  1.5956
13439TIP3    H261733   4.884   6.804  16.858 -0.4308  1.1427 -0.8380
13440TIP3   OH261734   6.788   0.322  11.873  0.1225 -0.2604  0.5740
13440TIP3    H161735   6.827   0.237  11.893  1.0796  0.2671  1.0717
13440TIP3    H261736   6.797   0.371  11.955 -0.9459  0.1289  0.4638
13441TIP3   OH261737   6.054   4.246  14.244 -0.0630 -0.5383  0.0024
13441TIP3    H161738   5.999   4.240  14.166  0.4730 -1.9629 -0.3155
13441TIP3    H261739   6.088   4.335  14.244 -1.4951  0.0233 -0.3868
13442TIP3   OH261740   2.769   4.075   4.107  0.2930 -0.0401 -0.2940
13442TIP3    H161741   2.853   4.087   4.151  0.6964 -0.8298 -0.8163
13442TIP3    H261742   2.775   4.130   4.029 -0.1623  0.8442  0.2791
13443TIP3   OH261743   5.394   1.224  11.158 -0.1909  0.1561 -0.0256
13443TIP3    H161744   5.489   1.207  11.159 -0.3238 -0.6152  1.2850
13443TIP3    H261745   5.356   1.149  11.203 -1.4632  0.3487 -0.7513
13444TIP3   OH261746   4.003   4.282  12.609  0.1920  0.1137  0.1205
13444TIP3    H161747   3.947   4.325  12.673  0.9219 -1.6483  2.0500
13444TIP3    H261748   3.942   4.233  12.553 -0.3991  0.9349  0.0369
13445TIP3   OH261749   6.640   6.294   1.681  0.0780 -0.5739 -0.2172
13445TIP3    H161750   6.622   6.307   1.588  0.2841  0.2926 -0.1434
13445TIP3    H261751   6.610   6.374   1.724  0.9606 -0.5041  0.3198
13446TIP3   OH261752   1.191   0.132   2.421 -0.1380  0.3753 -0.7683
13446TIP3    H161753   1.103   0.171   2.423 -0.3480 -0.0846  1.1805
13446TIP3    H261754   1.183   0.054   2.476  1.9215  1.3173  0.9624
13447TIP3   OH261755   4.135   1.913  11.899  0.5298  0.0386  0.3212
13447TIP3    H161756   4.080   1.991  11.907  1.2853  0.6669 -0.4114
13447TIP3    H261757   4.081   1.851  11.850  0.8117  1.0409 -1.3674
13448TIP3   OH261758   6.182   2.593   6.281  0.6956  0.3543 -0.1371
13448TIP3    H161759   6.130   2.672   6.264  0.1637  0.1430  0.4483
13448TIP3    H261760   6.272   2.621   6.268  0.6088  1.4073  1.2184
13449TIP3   OH261761   4.306   6.013  13.591  0.3836  0.2765  0.3960
13449TIP3    H161762   4.281   6.095  13.633 -0.7147 -0.5647  1.4683
13449TIP3    H261763   4.396   6.027  13.563 -0.3716  2.5198 -1.2412
13450TIP3   OH261764   0.227   5.926  16.759  0.1757 -0.1516 -0.9379
13450TIP3    H161765   0.266   5.842  16.734  0.6700 -0.0405 -0.5680
13450TIP3    H261766   0.300   5.987  16.755 -0.0292  0.1207 -0.5113
13451TIP3   OH261767   3.437   5.783  13.478 -0.0508 -0.0773  0.5046
13451TIP3    H161768   3.522   5.826  13.487  0.0170  0.7958 -2.8983
13451TIP3    H261769   3.374   5.854  13.488 -0.3961 -0.5900  2.2480
13452TIP3   OH261770   1.104   3.491   3.421 -0.3443 -0.4809 -0.5570
13452TIP3    H161771   1.178   3.520   3.475  1.3931 -2.4790 -1.7110
13452TIP3    H261772   1.026   3.515   3.471  0.9533  3.1488  0.0233
13453TIP3   OH261773   4.679   3.024   4.029  0.2196 -0.1538  0.1060
13453TIP3    H161774   4.679   2.965   4.104  1.9519 -0.0019  0.2506
13453TIP3    H261775   4.673   2.967   3.952 -2.6457 -0.2761  0.2893
13454TIP3   OH261776   0.608   5.078   0.450 -0.5914 -0.4266 -0.0244
13454TIP3    H161777   0.662   5.155   0.430 -1.0311  0.5041  2.1182
13454TIP3    H261778   0.641   5.010   0.392  1.1627  0.8120 -0.5696
13455TIP3   OH261779   3.969   6.209   6.225  0.1795 -0.5713 -0.0476
13455TIP3    H161780   3.956   6.116   6.241  2.3048 -1.2974 -2.0675
13455TIP3    H261781   3.927   6.226   6.141  0.4742  0.1126 -0.0713
13456TIP3   OH261782   3.983   6.306  12.940  0.1457  0.0999 -0.0774
13456TIP3    H161783   3.999   6.358  12.861  0.1266  1.0357  0.5164
13456TIP3    H261784   4.057   6.327  12.997  2.1736 -3.3346 -1.1617
13457TIP3   OH261785   5.250   4.504   4.622  0.1943  0.2624  0.3779
13457TIP3    H161786   5.315   4.568   4.593 -0.8517  0.1565 -2.6007
13457TIP3    H261787   5.244   4.441   4.549 -1.3626 -1.2183  1.6848
13458TIP3   OH261788   4.490   0.175  15.877 -0.3056 -0.0698 -0.5840
13458TIP3    H161789   4.448   0.163  15.962  1.3570 -0.3785  0.2332
13458TIP3    H261790   4.421   0.211  15.822 -1.4245  0.1826  0.8978
13459TIP3   OH261791   4.482   2.845   1.049 -0.5194  0.8882  0.2815
13459TIP3    H161792   4.552   2.844   1.114 -0.6683  2.1178  0.4861
13459TIP3    H261793   4.508   2.779   0.985 -0.1249  0.0122  1.3308
13460TIP3   OH261794   4.121   0.118  15.661 -0.0358  0.4814 -0.4799
13460TIP3    H161795   4.031   0.090  15.644 -0.2451  1.2564 -0.6992
13460TIP3    H261796   4.140   0.087  15.749 -0.3634 -0.0650 -0.5951
13461TIP3   OH261797   3.731   1.075   3.065 -0.3168 -0.1932  0.0488
13461TIP3    H161798   3.817   1.048   3.034 -0.0427  0.0864  0.5399
13461TIP3    H261799   3.671   1.054   2.994 -0.3259 -3.2027  0.7961
13462TIP3   OH261800   0.664   0.271   5.007 -0.3390 -0.0022 -0.2177
13462TIP3    H161801   0.614   0.280   4.926  1.1322 -0.6878 -1.2431
13462TIP3    H261802   0.662   0.178   5.027  1.0157 -0.1535 -0.6444
13463TIP3   OH261803   0.781   5.871   1.715 -0.5036  0.1635 -0.0043
13463TIP3    H161804   0.735   5.859   1.632 -0.5015 -0.5473  0.0898
13463TIP3    H261805   0.724   5.830   1.780 -0.7020  1.0814  0.4081
13464TIP3   OH261806   5.048   1.945  12.750  0.0371  0.3034  0.5061
13464TIP3    H161807   5.017   2.009  12.814 -0.2416  1.5414 -0.8110
13464TIP3    H261808   5.000   1.967  12.670  1.3615 -0.3372 -0.4875
13465TIP3   OH261809   2.997   6.424   5.153  0.1415  0.8760  0.4628
13465TIP3    H161810   2.983   6.412   5.059  2.7307  1.9270 -0.1357
13465TIP3    H261811   2.979   6.338   5.191 -0.2572  0.2353 -1.0779
13466TIP3   OH261812   3.221   5.619  15.482 -0.4962 -0.2701 -0.0304
13466TIP3    H161813   3.280   5.664  15.422 -0.2338  1.2368  1.2991
13466TIP3    H261814   3.134   5.653  15.460 -0.8614 -2.0818 -1.6207
13467TIP3   OH261815   6.751   5.771  12.939 -0.0764  0.3096  0.1814
13467TIP3    H161816   6.763   5.718  13.017 -0.4398 -0.7018 -0.4286
13467TIP3    H261817   6.811   5.845  12.950 -0.2334  0.2598  1.4650
13468TIP3   OH261818   2.497   6.638  16.413  0.0450 -0.2837 -0.0533
13468TIP3    H161819   2.565   6.570  16.407  1.0514  0.6359  0.6063
13468TIP3    H261820   2.529   6.698  16.479 -0.9232  0.7446 -0.4918
13469TIP3   OH261821   5.489   4.924  14.811  0.1849 -0.1546 -0.1154
13469TIP3    H161822   5.460   4.875  14.889 -0.9141 -1.3308 -1.2162
13469TIP3    H261823   5.506   5.012  14.844 -0.7111 -0.4941  1.3835
13470TIP3   OH261824   6.053   2.052  11.144  0.4689 -0.1465 -0.3017
13470TIP3    H161825   6.047   2.116  11.072  1.2302 -1.0022 -1.1503
13470TIP3    H261826   6.056   1.967  11.101 -0.2545 -0.7565  0.8102
13471TIP3   OH261827   5.111   0.357  11.137  0.4631 -1.0969  0.6648
13471TIP3    H161828   5.205   0.353  11.123  0.5097  0.6250  0.2240
13471TIP3    H261829   5.101   0.420  11.209 -0.4019  0.2729 -0.5825
13472TIP3   OH261830   6.527   5.719   1.062  0.5738  0.0086 -0.3529
13472TIP3    H161831   6.526   5.805   1.103 -0.1963  0.3561 -1.0539
13472TIP3    H261832   6.619   5.695   1.058  0.8093  0.8669 -0.2757
13473TIP3   OH261833   2.742   3.679  13.301 -0.0164 -0.9761 -0.1471
13473TIP3    H161834   2.784   3.755  13.341  1.4941 -2.0095  0.2957
13473TIP3    H261835   2.648   3.693  13.317  0.3032  0.2565  0.8625
13474TIP3   OH261836   1.450   3.457  16.031  0.5449 -0.2843  0.3980
13474TIP3    H161837   1.491   3.406  15.961  1.1673  1.1812 -0.3480
13474TIP3    H261838   1.377   3.502  15.988 -0.6315 -1.3181  1.2757
13475TIP3   OH261839   2.959   0.366  10.723 -0.2306  0.4766  0.1015
13475TIP3    H161840   2.986   0.311  10.649 -0.9706 -1.9982  1.5853
13475TIP3    H261841   3.041   0.387  10.768 -0.0035 -0.0603 -0.0560
13476TIP3   OH261842   1.445   4.893  11.937  0.3844  0.5853 -0.1368
13476TIP3    H161843   1.469   4.801  11.951  1.2160  0.6632 -0.9534
13476TIP3    H261844   1.466   4.935  12.020  0.7749  0.1811 -0.0217
13477TIP3   OH261845   2.056   0.772   3.262  0.3809 -0.1067  0.1558
13477TIP3    H161846   2.066   0.820   3.344 -0.2220 -0.2128  0.2950
13477TIP3    H261847   2.033   0.683   3.290  1.1086 -0.3850 -0.1080
13478TIP3   OH261848   0.249   4.145   1.936  0.6723  0.3149  0.6283
13478TIP3    H161849   0.229   4.230   1.977  0.3818  0.8584 -0.6031
13478TIP3    H261850   0.266   4.166   1.844  0.2600 -1.0160  0.2314
13479TIP3   OH261851   5.122   0.356  12.604  0.9325 -0.2978  1.1001
13479TIP3    H161852   5.117   0.290  12.673 -1.2608  0.1839  1.4728
13479TIP3    H261853   5.195   0.328  12.550  1.4313 -1.8200  2.4641
13480TIP3   OH261854   1.119   4.635  12.097 -0.2728  0.3115 -0.8214
13480TIP3    H161855   1.151   4.701  12.158  0.4140 -0.4848 -0.3082
13480TIP3    H261856   1.197   4.589  12.068 -0.8115 -0.8162 -0.5397
13481TIP3   OH261857   1.479   1.147   3.660  0.0267 -0.6333 -0.7896
13481TIP3    H161858   1.542   1.196   3.607  0.1781 -0.2133 -0.2267
13481TIP3    H261859   1.403   1.137   3.603 -1.7577  3.9638  0.3717
13482TIP3   OH261860   6.010   2.055   2.285  0.4069 -0.8122  0.2813
13482TIP3    H161861   6.082   2.081   2.343 -1.5540 -0.6890  2.8224
13482TIP3    H261862   5.932   2.094   2.324 -0.9420  0.5064 -3.2945
13483TIP3   OH261863   5.170   3.153   6.700  0.3103  0.0480  0.8610
13483TIP3    H161864   5.194   3.244   6.684  1.0616 -0.4623 -1.3155
13483TIP3    H261865   5.245   3.115   6.745  1.2806 -0.1621 -0.8561
13484TIP3   OH261866   4.673   0.817  14.992 -0.0595 -0.7172  0.1135
13484TIP3    H161867   4.684   0.909  14.970 -0.4302 -0.4408  1.0211
13484TIP3    H261868   4.708   0.770  14.917  1.1131  0.1563  0.0830
13485TIP3   OH261869   1.557   0.956  13.837 -0.0241  0.0296 -0.1236
13485TIP3    H161870   1.644   0.982  13.807  0.4143  0.2429  1.2684
13485TIP3    H261871   1.516   1.037  13.867 -0.0087 -0.3092  0.8734
13486TIP3   OH261872   3.064   2.833   6.115  0.6269 -0.3487  0.4295
13486TIP3    H161873   3.066   2.766   6.047  2.0885  2.5001 -2.6353
13486TIP3    H261874   3.152   2.831   6.153  0.1356 -1.2431  1.5638
13487TIP3   OH261875   3.296   3.855  15.206 -0.2068  0.2761  0.8682
13487TIP3    H161876   3.356   3.902  15.148  1.2843 -0.8849  1.4005
13487TIP3    H261877   3.353   3.814  15.271 -1.4123 -2.0442  0.5758
13488TIP3   OH261878   3.947   5.045  11.253  0.1601  0.4900 -0.5054
13488TIP3    H161879   3.994   5.054  11.170 -2.1969 -0.4224 -2.0412
13488TIP3    H261880   3.936   5.135  11.283  1.2325  0.8296 -1.0641
13489TIP3   OH261881   1.786   5.448   4.289 -0.5526  0.0220  0.0952
13489TIP3    H161882   1.706   5.471   4.242  0.0235  1.1090 -0.4068
13489TIP3    H261883   1.817   5.368   4.246 -1.3647 -0.4076  0.2959
13490TIP3   OH261884   4.854   5.107   2.170  0.4656  0.3191 -0.2682
13490TIP3    H161885   4.766   5.104   2.208  1.6073 -1.4076  2.5655
13490TIP3    H261886   4.881   5.198   2.182 -0.6151  0.6687 -0.3781
13491TIP3   OH261887   5.142   1.298   3.870 -0.0348  0.4905  0.3540
13491TIP3    H161888   5.152   1.324   3.779  0.9062 -2.2001 -0.3808
13491TIP3    H261889   5.052   1.323   3.892  0.1728  2.4764 -0.8033
13492TIP3   OH261890   5.976   2.455   1.214 -0.2903 -0.3513  0.2214
13492TIP3    H161891   5.972   2.526   1.277  0.0645 -0.1645  0.0410
13492TIP3    H261892   5.966   2.375   1.266  3.6519 -0.4780  1.1370
13493TIP3   OH261893   3.342   1.595   2.244  0.5390 -0.6607 -0.1712
13493TIP3    H161894   3.293   1.555   2.315  1.5448 -0.6657  0.5253
13493TIP3    H261895   3.413   1.534   2.225  0.8012 -0.2375 -0.5851
13494TIP3   OH261896   3.250   6.448  16.242  0.1066  0.1414 -0.1764
13494TIP3    H161897   3.170   6.416  16.200 -1.3864  2.2867  0.8259
13494TIP3    H261898   3.259   6.395  16.321  0.5528 -1.1013 -1.0354
13495TIP3   OH261899   5.319   0.012   4.446  0.0160 -0.0871  0.2129
13495TIP3    H161900   5.413   0.019   4.465  0.0002  1.7232 -0.2524
13495TIP3    H261901   5.297  -0.079   4.470  1.4251  0.0502  2.3388
13496TIP3   OH261902   1.216   5.028   3.629  0.3992 -0.2305 -0.3428
13496TIP3    H161903   1.137   5.012   3.681  1.6542 -1.3705  1.2894
13496TIP3    H261904   1.209   5.120   3.603 -0.4092  0.3130  1.6362
13497TIP3   OH261905   2.069   6.187   6.151  0.6671  0.0889 -0.0689
13497TIP3    H161906   2.144   6.216   6.204  1.8258  0.3098 -1.7571
13497TIP3    H261907   2.051   6.098   6.182  0.8165  0.4729  1.1902
13498TIP3   OH261908   4.201   4.166   3.675  0.7764 -0.3040  0.4088
13498TIP3    H161909   4.234   4.092   3.624 -0.4303 -0.3185 -0.3947
13498TIP3    H261910   4.232   4.149   3.764  1.3188 -1.2794  0.0532
13499TIP3   OH261911   0.370   0.102   4.101  0.0774 -0.1420  0.0622
13499TIP3    H161912   0.407   0.167   4.041  0.5268 -0.8808 -0.4769
13499TIP3    H261913   0.291   0.144   4.135  0.9541  1.1335  0.6042
13500TIP3   OH261914   1.846   4.231  13.009 -0.3286  0.3370  0.1268
13500TIP3    H161915   1.913   4.187  13.061 -1.0807 -1.9050 -0.6530
13500TIP3    H261916   1.775   4.167  13.004 -1.0172  1.1973 -2.1179
13501TIP3   OH261917   2.525   5.631   4.498 -0.5227 -0.3334  0.0172
13501TIP3    H161918   2.448   5.681   4.471 -0.9110 -1.3994 -0.9353
13501TIP3    H261919   2.490   5.562   4.555 -0.1199 -0.1211  0.5286
13502TIP3   OH261920   2.584   2.180   3.701  0.1300 -0.0998 -0.6599
13502TIP3    H161921   2.507   2.128   3.723  1.4158 -1.6626  0.4723
13502TIP3    H261922   2.653   2.115   3.687  1.4910  1.2639 -0.5686
13503TIP3   OH261923   2.391   0.136   5.729 -0.2353  0.1687  0.3493
13503TIP3    H161924   2.477   0.104   5.702  0.0418 -0.2540  1.6413
13503TIP3    H261925   2.381   0.105   5.819 -1.6562  0.3973  0.2958
13504TIP3   OH261926   2.545   2.574   0.699  0.0639  0.4839 -0.3885
13504TIP3    H161927   2.618   2.635   0.702  0.8008 -0.4277  1.5425
13504TIP3    H261928   2.556   2.518   0.776 -0.7191 -1.9338 -1.9094
13505TIP3   OH261929   1.083   3.379   4.256  0.8494 -0.0790 -0.0145
13505TIP3    H161930   1.146   3.316   4.220  0.9557  1.0318 -1.9331
13505TIP3    H261931   1.001   3.330   4.264  1.0136 -0.5597 -1.1487
13506TIP3   OH261932   2.914   6.489   2.648 -0.1892  0.4709 -0.4376
13506TIP3    H161933   2.821   6.504   2.629 -0.0994  1.4312 -0.1908
13506TIP3    H261934   2.929   6.533   2.731  0.2508 -0.6076  0.0666
13507TIP3   OH261935   4.788   4.118  11.475 -0.4613  0.8332 -0.7018
13507TIP3    H161936   4.845   4.121  11.398 -0.1701  0.0216 -0.5316
13507TIP3    H261937   4.846   4.091  11.546 -1.0626 -0.0623 -0.5374
13508TIP3   OH261938   2.595   6.524  12.199  0.3439 -0.1005  0.7989
13508TIP3    H161939   2.656   6.454  12.224  0.7085 -0.3778 -0.7172
13508TIP3    H261940   2.630   6.556  12.116 -1.1208  0.3147  0.3215
13509TIP3   OH261941   6.495   1.803   2.931  0.3594 -0.1187  0.1318
13509TIP3    H161942   6.563   1.871   2.931 -0.1564  0.4162 -0.3401
13509TIP3    H261943   6.536   1.727   2.890  0.3095  0.5885 -1.2844
13510TIP3   OH261944   4.333   2.338  14.145 -0.5809 -0.3708  0.4287
13510TIP3    H161945   4.345   2.292  14.228  0.2066  0.3740  0.7458
13510TIP3    H261946   4.325   2.430  14.169  1.0138  0.0201 -0.3829
13511TIP3   OH261947   5.376   6.179  16.225 -0.7064 -0.2526 -0.2031
13511TIP3    H161948   5.401   6.245  16.288  0.4762 -1.1995  0.3534
13511TIP3    H261949   5.322   6.226  16.161 -0.3073  1.1163  0.4357
13512TIP3   OH261950   3.250   0.189   2.109 -0.0960  0.5809  0.2877
13512TIP3    H161951   3.155   0.198   2.099  0.1828  2.5259 -1.2339
13512TIP3    H261952   3.262   0.100   2.142 -2.3819 -0.1305 -0.5660
13513TIP3   OH261953   4.939   3.253   1.471 -0.4206 -0.0064 -0.1489
13513TIP3    H161954   4.993   3.188   1.425 -0.6411  1.0009 -1.9148
13513TIP3    H261955   4.875   3.281   1.405 -0.4885  1.8028  0.6481
13514TIP3   OH261956   3.567   1.077   0.889 -0.5325 -0.1820  0.4939
13514TIP3    H161957   3.587   1.041   0.802  2.0833  1.3507  0.3673
13514TIP3    H261958   3.581   1.004   0.949  1.2022 -0.3736 -0.0793
13515TIP3   OH261959   4.830   5.800  13.137 -0.0804 -0.1648 -0.3149
13515TIP3    H161960   4.855   5.841  13.054 -0.5491  2.0117  0.5569
13515TIP3    H261961   4.819   5.873  13.198 -0.3431 -1.6573  1.5252
13516TIP3   OH261962   3.785   6.512   1.712 -0.5402 -0.3703 -0.5222
13516TIP3    H161963   3.878   6.533   1.713 -0.4328 -0.8079 -0.8239
13516TIP3    H261964   3.778   6.440   1.649 -1.1453 -0.0250 -0.8584
13517TIP3   OH261965   1.520   2.429   4.897  0.0094 -0.6987  0.9736
13517TIP3    H161966   1.598   2.376   4.911 -0.4591 -1.9457 -0.7319
13517TIP3    H261967   1.449   2.365   4.892 -0.4786 -0.0498 -1.9404
13518TIP3   OH261968   3.278   1.890   3.300  0.3228  1.0138  0.1264
13518TIP3    H161969   3.327   1.810   3.283 -1.5728 -0.3458  0.7634
13518TIP3    H261970   3.229   1.871   3.381 -0.5344  2.6296  0.0219
13519TIP3   OH261971   6.110   6.668   0.788 -0.3334  0.4822  0.3076
13519TIP3    H161972   6.166   6.624   0.852 -0.6665 -0.2055  0.1400
13519TIP3    H261973   6.049   6.720   0.841 -0.1455  0.4807  0.5250
13520TIP3   OH261974   0.772   5.975  10.947 -0.1276 -0.2775  0.4158
13520TIP3    H161975   0.708   6.004  10.882 -0.6909  1.5313  1.6845
13520TIP3    H261976   0.795   5.886  10.920 -0.4633  0.3171 -2.1072
13521TIP3   OH261977   1.216   2.245   3.374  0.4707 -0.0327  0.2234
13521TIP3    H161978   1.261   2.279   3.297 -1.2778  1.0603 -0.3605
13521TIP3    H261979   1.236   2.307   3.444  1.0241 -0.3427  0.3501
13522TIP3   OH261980   0.733   3.411  12.971 -0.5680 -0.4374 -0.0617
13522TIP3    H161981   0.785   3.349  13.022 -2.4831 -2.0789  0.0165
13522TIP3    H261982   0.658   3.432  13.027  0.6440  3.0910  0.4702
13523TIP3   OH261983   5.148   0.581   0.144 -0.2839  0.1025  0.4868
13523TIP3    H161984   5.103   0.600   0.226  2.1843  2.0338  1.5218
13523TIP3    H261985   5.193   0.498   0.160  0.0407  0.3811  1.0070
13524TIP3   OH261986   0.502   4.838  15.299 -0.1850 -0.8953  0.1955
13524TIP3    H161987   0.595   4.818  15.289  0.1360  0.0264  1.1538
13524TIP3    H261988   0.490   4.851  15.393 -0.7654  1.3670 -0.1368
13525TIP3   OH261989   2.988   2.759  12.928  0.5972  0.5227  0.0292
13525TIP3    H161990   3.024   2.832  12.878 -1.3820  1.7222  0.2500
13525TIP3    H261991   2.979   2.793  13.017  0.7441 -0.3932  0.4055
13526TIP3   OH261992   5.066   0.124   1.265 -0.0468  0.1225 -0.0001
13526TIP3    H161993   5.055   0.110   1.359 -1.1428 -0.3836 -0.1896
13526TIP3    H261994   5.031   0.044   1.225  0.1018  0.4760 -0.8479
13527TIP3   OH261995   5.484   6.327  10.881 -0.4414 -0.1273  0.3975
13527TIP3    H161996   5.557   6.336  10.820  0.3611 -0.6289  1.2690
13527TIP3    H261997   5.410   6.368  10.836  0.2390 -0.1062 -0.7261
13528TIP3   OH261998   1.046   2.607  11.965  0.0111  0.0808  0.1910
13528TIP3    H161999   1.061   2.512  11.967  0.0073  0.0734 -0.1188
13528TIP3    H262000   1.132   2.644  11.949 -0.3398  0.0110 -2.2443
13529TIP3   OH262001   0.269   1.795   6.295  0.1248  0.2058 -0.1980
13529TIP3    H162002   0.252   1.814   6.387 -2.6898  0.6480 -0.7256
13529TIP3    H262003   0.254   1.878   6.250 -0.0011 -0.3477 -1.2193
13530TIP3   OH262004   0.608   3.154  13.972 -0.1693 -0.0582  0.4769
13530TIP3    H162005   0.616   3.174  14.065 -0.1330  1.1572  0.2323
13530TIP3    H262006   0.667   3.080  13.958 -1.4086 -1.3462  1.7142
13531TIP3   OH262007   5.285   2.807  11.301 -0.1511  0.3163  0.1805
13531TIP3    H162008   5.262   2.897  11.278 -0.2591  0.4192  0.6839
13531TIP3    H262009   5.264   2.800  11.394  0.7900  0.0739  0.3891
13532TIP3   OH262010   6.381   0.486   3.518  0.1767  0.4831  0.2299
13532TIP3    H162011   6.381   0.545   3.593 -1.2088 -0.5194  1.0671
13532TIP3    H262012   6.291   0.490   3.485  0.5748  0.3263 -0.9162
13533TIP3   OH262013   4.529   5.477  11.267 -0.3564  0.2769 -0.2760
13533TIP3    H162014   4.505   5.568  11.283 -0.6247  0.0412  0.7841
13533TIP3    H262015   4.622   5.472  11.289  0.4916  0.9420 -3.3047
13534TIP3   OH262016   2.230   2.237  10.727 -0.2415 -0.5437 -0.0428
13534TIP3    H162017   2.186   2.194  10.800  1.3333 -0.8384  0.7712
13534TIP3    H262018   2.300   2.177  10.702 -1.3502 -0.9360 -2.5083
13535TIP3   OH262019   4.955   6.171  12.619  0.6854  0.0039  0.3270
13535TIP3    H162020   4.966   6.220  12.538  1.4361  0.6619  0.8010
13535TIP3    H262021   4.887   6.107  12.600  0.8833  0.1116 -0.8317
13536TIP3   OH262022   3.544   6.103  10.906  0.2222  0.3333 -0.7357
13536TIP3    H162023   3.454   6.127  10.929 -0.5707 -0.2706 -2.9842
13536TIP3    H262024   3.540   6.009  10.887  1.9960 -0.4107  1.9501
13537TIP3   OH262025   0.453   2.022   0.416 -0.3753  0.0996 -0.0840
13537TIP3    H162026   0.364   1.988   0.409 -0.1415 -0.8256  1.2988
13537TIP3    H262027   0.506   1.948   0.444  0.6601  0.8832  0.1000
13538TIP3   OH262028   1.249   4.592   5.309 -0.4307 -0.5106 -0.6725
13538TIP3    H162029   1.186   4.554   5.248 -0.7756  1.2189 -1.4632
13538TIP3    H262030   1.243   4.538   5.388 -1.8177 -1.2596 -1.2637
13539TIP3   OH262031   4.122   6.286   2.473 -0.3796  0.5183 -0.3980
13539TIP3    H162032   4.111   6.307   2.566 -1.2707  2.1604 -0.8235
13539TIP3    H262033   4.081   6.360   2.427 -0.6644 -0.6442 -2.0977
13540TIP3   OH262034   0.923   2.497   5.887 -0.0650 -0.0685  0.3306
13540TIP3    H162035   0.965   2.549   5.819 -1.2021 -0.1081 -0.4338
13540TIP3    H262036   0.980   2.422   5.900 -0.0629 -0.3029 -0.9299
13541TIP3   OH262037   3.374   6.578  15.290 -0.3746  0.1325  0.1585
13541TIP3    H162038   3.367   6.671  15.268 -0.6899 -0.2168 -1.3524
13541TIP3    H262039   3.456   6.549  15.251 -1.0214 -0.5505 -0.7466
13542TIP3   OH262040   1.795   4.980  12.059 -0.8319 -0.1130  0.2483
13542TIP3    H162041   1.769   5.047  11.996  2.6011  0.6404 -0.5663
13542TIP3    H262042   1.791   4.898  12.010 -1.4073 -0.0082  0.1099
13543TIP3   OH262043   0.393   2.582  16.026  0.0003  0.0208  0.5677
13543TIP3    H162044   0.303   2.561  16.049  0.6047 -1.8989  1.3867
13543TIP3    H262045   0.429   2.622  16.105  0.0844  0.0771  0.5019
13544TIP3   OH262046   2.187   0.337  14.556 -0.3468  0.3169  0.2864
13544TIP3    H162047   2.203   0.345  14.650 -1.7038 -0.2316  0.5712
13544TIP3    H262048   2.155   0.248  14.544 -0.8957  0.6195 -0.5891
13545TIP3   OH262049   3.784   6.526   2.459  0.2033  0.0193 -0.5837
13545TIP3    H162050   3.873   6.490   2.458  0.1169 -0.3390  1.2185
13545TIP3    H262051   3.777   6.569   2.544 -1.5154 -0.3897 -0.4963
13546TIP3   OH262052   3.774   5.070  16.267  0.1195  0.3887  0.6081
13546TIP3    H162053   3.837   5.071  16.194 -0.1183 -1.5925  0.3127
13546TIP3    H262054   3.691   5.094  16.227  0.1045 -0.1012  0.3391
13547TIP3   OH262055   3.480   5.617   4.553  0.1021 -0.7243 -0.1876
13547TIP3    H162056   3.464   5.549   4.488  1.9659 -0.8643 -0.5456
13547TIP3    H262057   3.413   5.683   4.536 -0.3490 -1.4415 -1.2764
13548TIP3   OH262058   5.444   4.075  14.754 -0.5259 -0.2170 -0.4110
13548TIP3    H162059   5.537   4.099  14.756 -0.3730 -0.7279  1.7753
13548TIP3    H262060   5.421   4.075  14.661  1.5838  0.1700 -0.9963
13549TIP3   OH262061   1.268   2.246  13.925 -0.1009 -0.1029  0.4417
13549TIP3    H162062   1.307   2.291  14.001  0.7069 -0.0559  0.0129
13549TIP3    H262063   1.306   2.158  13.927  0.0110 -0.0659  0.0351
13550TIP3   OH262064   3.265   6.305   5.372 -0.0357  0.3926 -0.3880
13550TIP3    H162065   3.223   6.341   5.294  0.5186 -0.2848 -1.0074
13550TIP3    H262066   3.207   6.234   5.400  0.4367 -0.2219 -0.9563
13551TIP3   OH262067   1.032   5.102  15.239  0.3642  0.2199 -0.2645
13551TIP3    H162068   1.040   5.039  15.168 -0.4393  0.7091 -0.7986
13551TIP3    H262069   1.043   5.049  15.319  3.2805 -0.0349 -0.7237
13552TIP3   OH262070   5.876   1.082   2.095 -0.0567  0.2438 -0.4538
13552TIP3    H162071   5.938   1.146   2.060  1.3080  0.8190  2.6244
13552TIP3    H262072   5.858   1.113   2.184 -3.9694 -0.5573 -0.7719
13553TIP3   OH262073   1.966   5.152   5.664 -0.1349 -0.1476  0.4398
13553TIP3    H162074   1.958   5.059   5.645  0.1003  0.1477 -1.3381
13553TIP3    H262075   1.885   5.190   5.629 -0.4867  0.2644  1.6539
13554TIP3   OH262076   4.341   4.610   0.072  0.1721 -0.5294  0.1452
13554TIP3    H162077   4.365   4.602   0.165 -0.0242 -2.1440  0.0795
13554TIP3    H262078   4.425   4.618   0.026  0.3568 -1.2489  0.3423
13555TIP3   OH262079   3.143   6.034   5.376 -0.2559 -0.5978  0.2512
13555TIP3    H162080   3.169   5.989   5.456 -1.9587 -1.6913  0.2258
13555TIP3    H262081   3.215   6.016   5.315 -0.1835 -2.0303  0.7161
13556TIP3   OH262082   5.980   2.432   6.387  0.6383  0.1943  0.1288
13556TIP3    H162083   6.051   2.491   6.360  3.3995 -1.2323  3.5512
13556TIP3    H262084   6.023   2.348   6.404 -2.2103 -1.2749  0.7337
13557TIP3   OH262085   1.573   6.235   4.017  0.8289 -1.1990  0.0927
13557TIP3    H162086   1.525   6.236   4.100 -0.3970 -1.7735 -0.5818
13557TIP3    H262087   1.609   6.146   4.011  1.4040 -0.9798  0.2764
13558TIP3   OH262088   2.081   0.052   4.648  0.4468 -0.4339 -0.1009
13558TIP3    H162089   2.129   0.099   4.579  0.5897 -2.0570 -1.1515
13558TIP3    H262090   2.145   0.038   4.717  0.2566  1.3728  0.5055
13559TIP3   OH262091   6.772   1.448   4.747  0.0178 -0.1040  0.0362
13559TIP3    H162092   6.807   1.363   4.721  0.3561  0.5053 -1.6142
13559TIP3    H262093   6.841   1.486   4.802  1.1346  0.2432 -1.5401
13560TIP3   OH262094   4.844   6.243  13.819 -0.0627  0.5187 -0.0468
13560TIP3    H162095   4.850   6.174  13.753 -0.9464  0.2608  0.1257
13560TIP3    H262096   4.894   6.316  13.781  0.4631 -0.0383 -0.4502
13561TIP3   OH262097   2.332   2.337  11.064 -0.0924 -0.0588  0.0833
13561TIP3    H162098   2.264   2.357  11.129 -0.0508 -1.2097  0.5161
13561TIP3    H262099   2.377   2.420  11.050 -1.6734  0.7786 -0.3369
13562TIP3   OH262100   4.567   6.458   4.080  0.3355 -0.1798 -0.3984
13562TIP3    H162101   4.521   6.498   4.006  2.9462 -0.3514 -2.2572
13562TIP3    H262102   4.523   6.374   4.093 -3.6198  1.9904  1.9164
13563TIP3   OH262103   6.398   6.052   0.855  0.3427  0.0109  0.1093
13563TIP3    H162104   6.487   6.036   0.823  0.7733  1.3609  0.5336
13563TIP3    H262105   6.355   5.967   0.853  2.4253 -1.2288  2.3049
13564TIP3   OH262106   3.938   5.722   1.006  0.1776 -0.2774 -0.1558
13564TIP3    H162107   3.931   5.640   0.958  2.2189 -0.4614 -0.2215
13564TIP3    H262108   4.001   5.705   1.076  0.4537  1.1537 -0.0090
13565TIP3   OH262109   3.929   2.619  16.442  0.1288  0.5539 -0.0104
13565TIP3    H162110   3.912   2.549  16.380  0.1198  0.8128 -0.3012
13565TIP3    H262111   3.992   2.676  16.398 -0.3481  1.0737 -0.0335
13566TIP3   OH262112   2.796   2.478  13.129  0.4687  0.2366 -0.4454
13566TIP3    H162113   2.822   2.490  13.220  0.5617 -0.0211 -0.4381
13566TIP3    H262114   2.789   2.567  13.095 -2.0662  0.4920  0.5087
13567TIP3   OH262115   1.845   0.563   3.959  0.1866 -0.6683  0.3640
13567TIP3    H162116   1.776   0.600   3.903  1.1694 -0.2538 -0.6062
13567TIP3    H262117   1.922   0.616   3.940  0.6592 -0.8055  1.8067
13568TIP3   OH262118   6.122   4.980  13.553 -0.3458  0.5429 -0.5744
13568TIP3    H162119   6.059   5.009  13.487 -0.1837  1.0181 -0.5258
13568TIP3    H262120   6.141   4.889  13.529  1.7860  1.4845 -2.8523
13569TIP3   OH262121   0.634   4.947   3.324  0.2383 -0.0090  0.0268
13569TIP3    H162122   0.710   4.890   3.316  0.3769  0.2098 -0.2589
13569TIP3    H262123   0.653   5.003   3.399  1.0852  1.1001 -0.9594
13570TIP3   OH262124   4.274   1.708  14.405 -0.2729 -0.5616 -0.1795
13570TIP3    H162125   4.339   1.712  14.336 -0.2106  0.5002 -0.0747
13570TIP3    H262126   4.214   1.638  14.378 -0.6999  0.3675 -1.7073
13571TIP3   OH262127   3.930   5.233   0.940  0.2185 -0.4569 -0.0338
13571TIP3    H162128   3.919   5.214   1.033  0.4368  0.9266  0.2885
13571TIP3    H262129   4.018   5.202   0.919  0.7471  0.5858  0.5905
13572TIP3   OH262130   4.418   2.771   0.327 -0.2356  0.3370 -0.0113
13572TIP3    H162131   4.477   2.825   0.380  0.5462  1.4519 -1.9301
13572TIP3    H262132   4.338   2.823   0.321 -0.9726 -0.5652  1.4508
13573TIP3   OH262133   4.670   1.696  13.200  0.1625  0.6663 -0.1942
13573TIP3    H162134   4.747   1.669  13.250 -0.0520 -0.2868 -0.3701
13573TIP3    H262135   4.681   1.791  13.190  0.2242  0.8854  1.6247
13574TIP3   OH262136   3.191   4.004  15.532  0.4184 -0.4728  0.0820
13574TIP3    H162137   3.122   3.953  15.490 -1.0977  0.9327  0.7578
13574TIP3    H262138   3.146   4.054  15.600  1.7316  2.0071 -0.7574
13575TIP3   OH262139   3.628   4.345  15.220 -0.0837  0.2738  0.5098
13575TIP3    H162140   3.614   4.338  15.315 -0.7602 -0.2713  0.3773
13575TIP3    H262141   3.722   4.332  15.209 -0.1489 -0.7351  1.0169
13576TIP3   OH262142   6.565   4.291   3.252 -0.2961 -0.2727 -0.2768
13576TIP3    H162143   6.583   4.285   3.346  1.1593  2.1364 -0.3208
13576TIP3    H262144   6.581   4.383   3.231  0.2443 -0.9322 -3.0559
13577TIP3   OH262145   3.614   3.065   2.115 -0.1470 -0.6340  0.3639
13577TIP3    H162146   3.574   2.999   2.172  0.7329 -0.8546  0.7347
13577TIP3    H262147   3.707   3.046   2.117 -0.0503 -0.3726 -0.8201
13578TIP3   OH262148   2.855   0.650   1.666 -0.5353 -0.2154 -0.0208
13578TIP3    H162149   2.782   0.635   1.726 -0.4161  0.2753  0.2572
13578TIP3    H262150   2.930   0.609   1.709 -0.5441 -0.2702 -0.0580
13579TIP3   OH262151   5.760   6.389  15.898  0.4576 -0.4769  0.0280
13579TIP3    H162152   5.851   6.359  15.889  1.0380  0.7949  1.3759
13579TIP3    H262153   5.761   6.478  15.864 -0.2706 -0.4350  0.1165
13580TIP3   OH262154   4.656   0.360   0.983 -0.6019 -0.7364 -0.0336
13580TIP3    H162155   4.641   0.361   0.888 -0.6947 -0.2564 -0.0167
13580TIP3    H262156   4.712   0.284   0.997 -1.8347 -1.7237 -0.2792
13581TIP3   OH262157   6.080   1.697  15.348  0.1629  0.0789  0.0531
13581TIP3    H162158   6.050   1.690  15.258  0.5145  3.1509 -0.4175
13581TIP3    H262159   6.000   1.694  15.400 -0.2673  0.5219 -0.5695
13582TIP3   OH262160   5.744   5.841  14.028 -0.3974  0.6399 -0.4612
13582TIP3    H162161   5.808   5.910  14.046 -0.4873  0.1428  2.0322
13582TIP3    H262162   5.778   5.798  13.949  2.1579  0.6303  0.5362
13583TIP3   OH262163   2.083   6.263   5.261  0.0493  0.6971  0.1249
13583TIP3    H162164   2.100   6.276   5.168 -0.5165  0.6364  0.0084
13583TIP3    H262165   2.063   6.170   5.270  2.9244  0.0425  0.7755
13584TIP3   OH262166   5.694   2.581   4.204  0.6353 -0.4520 -0.6947
13584TIP3    H162167   5.779   2.544   4.229  0.9986 -1.6867 -3.3683
13584TIP3    H262168   5.651   2.601   4.287  3.2175 -0.4925  0.7565
13585TIP3   OH262169   6.411   0.560   4.207 -0.2236  0.5490  0.5213
13585TIP3    H162170   6.500   0.535   4.179 -0.2148  0.5602  0.5393
13585TIP3    H262171   6.360   0.560   4.126 -1.0524 -2.9465  0.8954
13586TIP3   OH262172   3.186   5.007   3.394  0.2019 -0.1009 -0.1013
13586TIP3    H162173   3.231   4.923   3.392 -0.1295 -0.2626 -0.7860
13586TIP3    H262174   3.105   4.990   3.441  2.0374  0.8041  3.8079
13587TIP3   OH262175   3.125   2.966   6.495 -0.0753  1.0282 -0.4014
13587TIP3    H162176   3.145   3.038   6.436  2.4417 -0.2439 -1.2464
13587TIP3    H262177   3.211   2.932   6.521 -1.1519 -1.5394  0.0990
13588TIP3   OH262178   5.393   4.617  15.076 -0.0064 -0.0528 -0.2920
13588TIP3    H162179   5.392   4.713  15.079  0.1601 -0.0609 -0.0360
13588TIP3    H262180   5.336   4.596  15.001  2.8586  0.3346 -2.7729
13589TIP3   OH262181   5.931   3.930  11.721 -0.4421  0.0277 -0.2072
13589TIP3    H162182   5.975   3.847  11.736 -0.3967 -0.2058 -1.4984
13589TIP3    H262183   5.870   3.939  11.794 -1.1850 -1.6362 -0.5824
13590TIP3   OH262184   5.399   3.234   6.187 -0.0744  0.4862 -0.8401
13590TIP3    H162185   5.370   3.219   6.277 -2.7575  1.3436 -1.4691
13590TIP3    H262186   5.362   3.319   6.163 -0.8215 -0.4130 -3.2365
13591TIP3   OH262187   2.098   2.456  15.356 -0.1078  0.4172  0.3048
13591TIP3    H162188   2.194   2.453  15.346 -0.1899  1.1249 -0.8382
13591TIP3    H262189   2.077   2.378  15.408  0.9755 -0.3722 -0.4040
13592TIP3   OH262190   5.099   0.569   0.414 -0.6297  0.2108 -0.1956
13592TIP3    H162191   5.194   0.566   0.400 -0.4956 -0.5402  0.7353
13592TIP3    H262192   5.086   0.647   0.467 -0.3440 -0.4001  0.8110
13593TIP3   OH262193   1.896   5.551  14.236  0.0200 -0.0454  0.0524
13593TIP3    H162194   1.990   5.537  14.223 -0.4347 -3.3192 -0.7803
13593TIP3    H262195   1.864   5.577  14.149 -0.0306 -0.3028 -0.0057
13594TIP3   OH262196   4.666   0.318   4.539 -0.4970 -0.1898  0.2454
13594TIP3    H162197   4.633   0.228   4.536  0.1087 -0.3981 -0.3693
13594TIP3    H262198   4.748   0.312   4.588 -0.5480  0.0583  0.3620
13595TIP3   OH262199   3.600   1.662   3.954 -0.6218 -0.0345 -0.1120
13595TIP3    H162200   3.688   1.653   3.917 -0.2052  0.4591  0.7124
13595TIP3    H262201   3.541   1.643   3.882  0.1457  2.0012 -1.3581
13596TIP3   OH262202   4.756   3.002   1.497 -0.3450  0.0777  0.1938
13596TIP3    H162203   4.762   3.021   1.591 -0.0008 -0.0260  0.1907
13596TIP3    H262204   4.720   2.913   1.493 -0.6646  0.2028  0.2213
13597TIP3   OH262205   3.532   0.785  15.362  0.2967 -0.2788  0.5406
13597TIP3    H162206   3.595   0.797  15.432  1.4334 -1.7442 -0.1588
13597TIP3    H262207   3.473   0.860  15.368  0.5583 -0.1956  2.8200
13598TIP3   OH262208   5.076   2.814   5.201  0.0073  0.8594 -0.0038
13598TIP3    H162209   5.130   2.736   5.213 -1.4077 -0.2925 -0.6386
13598TIP3    H262210   4.997   2.796   5.253  0.1716  2.4450  0.8354
13599TIP3   OH262211   6.356   5.109   0.786 -0.0087 -0.2385  0.5743
13599TIP3    H162212   6.381   5.024   0.823 -0.0356 -0.8470 -0.7554
13599TIP3    H262213   6.360   5.096   0.691 -0.9767  0.9601  0.3449
13600TIP3   OH262214   4.151   6.324  11.259 -0.2022  0.2876 -0.0310
13600TIP3    H162215   4.113   6.393  11.204 -0.1192 -0.2514 -0.7678
13600TIP3    H262216   4.093   6.249  11.248 -0.0875  0.1184  0.4852
13601TIP3   OH262217   2.026   3.070   0.662  0.0078  0.5855 -0.4507
13601TIP3    H162218   2.030   3.122   0.742 -0.9094  1.6948 -1.0853
13601TIP3    H262219   2.056   2.983   0.688 -0.6053  0.8227  1.1761
13602TIP3   OH262220   3.815   6.444  14.842 -0.2058 -0.0727  0.1606
13602TIP3    H162221   3.784   6.401  14.922  0.8939 -0.0182  0.6382
13602TIP3    H262222   3.825   6.536  14.866  1.3042 -0.2555  0.3567
13603TIP3   OH262223   2.244   2.907  16.281 -0.2334 -0.6505  0.2671
13603TIP3    H162224   2.296   2.834  16.315  2.9354  1.5849  0.6820
13603TIP3    H262225   2.212   2.877  16.197 -0.0065 -2.8992  0.9320
13604TIP3   OH262226   4.308   0.344  14.113 -0.5783  0.5049 -0.7404
13604TIP3    H162227   4.234   0.329  14.170  0.0521  1.4339  0.3653
13604TIP3    H262228   4.319   0.439  14.111  0.7594  0.3812 -0.6220
13605TIP3   OH262229   3.432   3.885  12.294 -0.2952  0.7637 -0.1816
13605TIP3    H162230   3.424   3.887  12.198 -0.8280 -0.6994 -0.1958
13605TIP3    H262231   3.476   3.802  12.312 -0.2459  1.0088  0.8547
13606TIP3   OH262232   4.713   6.671  15.950 -0.5105 -0.5276 -0.0471
13606TIP3    H162233   4.806   6.657  15.967 -0.9420 -0.3969  3.0620
13606TIP3    H262234   4.710   6.709  15.862  2.2432 -1.5281 -0.6733
13607TIP3   OH262235   0.761   5.823  13.015 -0.0127 -0.0212  0.3073
13607TIP3    H162236   0.845   5.867  13.025  0.3201 -0.2000 -1.3646
13607TIP3    H262237   0.700   5.893  12.994  0.0240 -0.0632  0.0575
13608TIP3   OH262238   1.796   3.278   3.463 -0.0031  0.2028 -0.3867
13608TIP3    H162239   1.885   3.258   3.433  0.0284  0.4437 -0.4581
13608TIP3    H262240   1.776   3.210   3.527  0.7941  0.9634  0.7078
13609TIP3   OH262241   6.446   5.822  14.198  0.3379  0.3433  0.1450
13609TIP3    H162242   6.375   5.809  14.261 -2.1182  1.3042 -2.2171
13609TIP3    H262243   6.434   5.912  14.168  1.6586  0.0380 -1.3943
13610TIP3   OH262244   2.781   0.248  13.128 -0.7018 -0.4547  0.0985
13610TIP3    H162245   2.734   0.248  13.212  1.3066 -1.4889  1.3235
13610TIP3    H262246   2.871   0.226  13.152  0.2855  0.8143 -2.1846
13611TIP3   OH262247   2.537   0.235  14.265  1.1360  0.0154 -0.1699
13611TIP3    H162248   2.573   0.274  14.345  1.9682 -1.1931  0.0719
13611TIP3    H262249   2.477   0.168  14.297 -0.4186  1.1678 -0.5819
13612TIP3   OH262250   4.795   1.546   2.529  1.2681 -0.2274 -0.4564
13612TIP3    H162251   4.771   1.501   2.448  2.9483 -1.4995 -0.2916
13612TIP3    H262252   4.711   1.559   2.574  0.4175 -0.4604 -1.8892
13613TIP3   OH262253   3.883   4.115   2.188  0.9559  0.1090 -0.5760
13613TIP3    H162254   3.942   4.188   2.206 -0.2611  1.1040 -0.4712
13613TIP3    H262255   3.933   4.057   2.130  1.6420  1.4331 -1.3433
13614TIP3   OH262256   3.527   2.988  13.825  0.1541 -0.3195  0.1987
13614TIP3    H162257   3.540   3.079  13.797 -0.4730  0.0946  1.2099
13614TIP3    H262258   3.613   2.959  13.854 -0.1176  0.8261  2.3383
13615TIP3   OH262259   2.454   1.023   1.692 -0.0846 -0.5963  1.0080
13615TIP3    H162260   2.439   1.065   1.607 -0.9469  0.4913  1.6677
13615TIP3    H262261   2.548   1.032   1.706  0.4692 -2.7373 -0.7847
13616TIP3   OH262262   0.535   0.178  16.219  0.3338 -0.6315  0.0812
13616TIP3    H162263   0.459   0.229  16.245 -0.5337 -0.6024 -2.2762
13616TIP3    H262264   0.605   0.242  16.210  0.0572 -0.3180  0.1393
13617TIP3   OH262265   2.650   4.940   0.549 -0.0036  0.3628 -0.3754
13617TIP3    H162266   2.733   4.981   0.572  0.8343 -1.2083 -0.4533
13617TIP3    H262267   2.653   4.854   0.592 -1.1904 -0.0690 -1.1080
13618TIP3   OH262268   5.018   0.737  13.969 -0.2605 -0.3794 -0.2127
13618TIP3    H162269   4.964   0.663  13.941 -1.6798  0.1372  1.0143
13618TIP3    H262270   4.977   0.813  13.928 -1.2265  0.1538  1.6540
13619TIP3   OH262271   4.808   2.405  15.955 -0.3044  0.5491  0.1246
13619TIP3    H162272   4.861   2.456  15.894  1.1659 -0.6090  0.3777
13619TIP3    H262273   4.867   2.383  16.027 -0.5779 -2.1537 -0.3449
13620TIP3   OH262274   0.897   4.822   0.044 -0.4182  0.3251  0.4228
13620TIP3    H162275   0.985   4.839   0.011  0.0806 -1.2390  0.8274
13620TIP3    H262276   0.846   4.797  -0.034 -0.1795  0.0771  0.3439
13621TIP3   OH262277   2.747   5.039   5.458 -0.7681  0.3304  0.0297
13621TIP3    H162278   2.746   4.946   5.482 -0.2481 -0.3328 -2.2718
13621TIP3    H262279   2.715   5.084   5.536  0.2249 -1.6500  1.6745
13622TIP3   OH262280   5.444   2.041   2.766 -0.3605  0.0018  0.6731
13622TIP3    H162281   5.486   1.960   2.737 -1.8864 -0.2444 -1.0052
13622TIP3    H262282   5.507   2.110   2.742  0.4004 -0.5679  0.9755
13623TIP3   OH262283   5.835   6.665   4.358 -0.1926  0.1025  0.5247
13623TIP3    H162284   5.827   6.673   4.453  0.1075  0.5959  0.5118
13623TIP3    H262285   5.929   6.659   4.342 -0.2993 -3.1136  0.4867
13624TIP3   OH262286   4.416   5.996   4.337 -0.3120 -0.0112  0.2253
13624TIP3    H162287   4.381   5.923   4.388 -0.8898  0.1943  0.1387
13624TIP3    H262288   4.501   5.966   4.306 -1.4775 -1.5485 -1.6951
13625TIP3   OH262289   4.890   4.928  13.357 -0.1877  0.1453 -0.5150
13625TIP3    H162290   4.973   4.918  13.404 -0.7264  0.5096  0.5662
13625TIP3    H262291   4.849   5.005  13.397 -0.7292  0.3969 -1.5277
13626TIP3   OH262292   5.148   4.696  14.343 -0.0308 -0.4535 -0.4947
13626TIP3    H162293   5.145   4.789  14.364 -0.7293 -1.1922  3.5376
13626TIP3    H262294   5.208   4.689  14.269  2.6244  2.9072  1.0784
13627TIP3   OH262295   0.564   0.751   0.274  0.1853  0.5718 -0.9916
13627TIP3    H162296   0.598   0.702   0.198  1.1567  1.6529 -1.2848
13627TIP3    H262297   0.470   0.731   0.275  0.0374  0.9794 -2.8427
13628TIP3   OH262298   5.101   4.511   5.680 -0.1037 -0.0502  0.0228
13628TIP3    H162299   5.031   4.526   5.744 -0.2856 -1.5508  0.2111
13628TIP3    H262300   5.151   4.592   5.681 -0.8168  0.4124  1.1804
13629TIP3   OH262301   2.582   1.446   1.384 -0.5326  0.4487 -0.0167
13629TIP3    H162302   2.519   1.510   1.417  0.3322  0.4982  1.6306
13629TIP3    H262303   2.528   1.383   1.335 -1.8738  0.5421  1.2560
13630TIP3   OH262304   3.423   2.278  13.863  0.3070  0.5814 -0.4424
13630TIP3    H162305   3.409   2.190  13.828  0.5502  0.6187 -0.6310
13630TIP3    H262306   3.337   2.321  13.855  0.2424  0.4328 -0.5456
13631TIP3   OH262307   5.763   6.022  11.954  0.3944 -0.3685  0.5160
13631TIP3    H162308   5.792   6.101  12.001  0.2988  0.2630 -0.4722
13631TIP3    H262309   5.677   6.044  11.921  0.8606 -0.4526 -0.7896
13632TIP3   OH262310   6.369   1.610   6.572  0.7416 -0.3359 -0.4654
13632TIP3    H162311   6.408   1.561   6.645 -0.3317  0.3360  0.6024
13632TIP3    H262312   6.324   1.544   6.520 -1.5537 -0.4489  1.5165
13633TIP3   OH262313   3.529   1.949  16.657  0.0786  0.2248 -0.0771
13633TIP3    H162314   3.467   1.902  16.602 -0.1645  1.2051 -0.6705
13633TIP3    H262315   3.547   2.031  16.609  2.4154 -0.3349 -0.3108
13634TIP3   OH262316   5.254   3.825  15.264 -0.0655 -0.0380  0.4159
13634TIP3    H162317   5.212   3.742  15.239  0.9855 -0.0995 -1.3735
13634TIP3    H262318   5.279   3.865  15.180  2.3766  0.5162  1.3083
13635TIP3   OH262319   5.264   4.688  15.627 -0.3545  0.4398  0.2401
13635TIP3    H162320   5.266   4.689  15.722 -2.1509 -1.0213  0.3498
13635TIP3    H262321   5.310   4.608  15.602 -0.2253  0.6153 -0.0867
13636TIP3   OH262322   4.881   1.137   4.125 -0.0288  0.3867 -0.1619
13636TIP3    H162323   4.925   1.124   4.040  0.0239 -0.0850 -0.0635
13636TIP3    H262324   4.847   1.226   4.120  0.5186  0.5886 -0.4347
13637TIP3   OH262325   3.031   0.593  11.900 -0.3929 -0.0489  1.5378
13637TIP3    H162326   3.126   0.581  11.903 -0.1120  1.7784  0.7954
13637TIP3    H262327   3.009   0.631  11.985  0.1770  3.2387  0.3595
13638TIP3   OH262328   3.545   4.609  12.625  0.3544  0.5107 -0.2357
13638TIP3    H162329   3.581   4.667  12.692 -1.5674  1.5670 -0.0388
13638TIP3    H262330   3.598   4.626  12.547  0.4417  1.8414  0.0957
13639TIP3   OH262331   4.976   4.003   2.278  0.2035  0.1218 -0.4194
13639TIP3    H162332   4.906   3.941   2.261 -0.0965  0.8989 -2.2414
13639TIP3    H262333   5.053   3.964   2.236  1.0860 -1.0141  2.0668
13640TIP3   OH262334   5.573   6.713   0.100 -0.3831  0.3117  0.0883
13640TIP3    H162335   5.572   6.620   0.121 -0.3615  0.2379 -0.2252
13640TIP3    H262336   5.496   6.725   0.043  0.4637  0.1782 -1.1195
13641TIP3   OH262337   6.161   4.568  15.174 -0.2365  0.1995 -0.1807
13641TIP3    H162338   6.202   4.653  15.193  0.8044 -0.3634  0.1614
13641TIP3    H262339   6.232   4.504  15.185 -0.2126 -0.4861 -3.2976
13642TIP3   OH262340   0.415   3.446   0.685  0.4829  0.4152  0.2537
13642TIP3    H162341   0.486   3.398   0.729  1.0553  1.3395  0.3747
13642TIP3    H262342   0.370   3.379   0.634  0.8257 -0.3831  0.9492
13643TIP3   OH262343   1.712   0.570   4.603  0.4049 -0.0558  0.4935
13643TIP3    H162344   1.697   0.651   4.554 -1.5725 -0.7804 -0.1975
13643TIP3    H262345   1.702   0.501   4.537 -0.6863 -0.9798  1.5856
13644TIP3   OH262346   0.702   3.292   1.539 -0.0925  0.2661  0.2967
13644TIP3    H162347   0.628   3.351   1.556  1.4067  1.9654  1.2565
13644TIP3    H262348   0.727   3.311   1.449  0.8185  1.6583  0.8206
13645TIP3   OH262349   6.091   4.731  16.431  0.0717 -0.5386 -0.1012
13645TIP3    H162350   6.121   4.772  16.512  1.3274 -0.3499 -0.6362
13645TIP3    H262351   6.031   4.795  16.393 -0.7853 -0.7716  0.8366
13646TIP3   OH262352   5.009   3.606   5.107 -0.2632  0.1717 -0.4336
13646TIP3    H162353   5.043   3.621   5.019 -0.3392  0.1010 -0.4759
13646TIP3    H262354   5.062   3.534   5.141 -0.2823  0.1501 -0.4497
13647TIP3   OH262355   6.283   4.195  16.984  0.3465 -0.2252  0.6494
13647TIP3    H162356   6.291   4.115  16.933  1.5126 -0.8093  1.6667
13647TIP3    H262357   6.320   4.263  16.928  0.4821 -0.6274  0.2417
13648TIP3   OH262358   4.446   2.430  10.564  0.9255 -0.2738  0.4051
13648TIP3    H162359   4.494   2.465  10.640  1.7658 -0.3926 -0.0584
13648TIP3    H262360   4.482   2.342  10.551 -0.0402 -0.7075  0.5725
13649TIP3   OH262361   1.995   4.916   4.964  0.2243 -0.7186  0.1311
13649TIP3    H162362   2.050   4.906   5.041  0.2756 -0.0064  0.1912
13649TIP3    H262363   1.913   4.872   4.987 -0.5649  1.2913  1.4173
13650TIP3   OH262364   6.388   1.581  16.651 -0.1706  0.5364  0.5699
13650TIP3    H162365   6.378   1.596  16.557 -0.4818  2.7071  0.9051
13650TIP3    H262366   6.320   1.634  16.692 -2.4461 -3.0894  1.9794
13651TIP3   OH262367   5.879   2.252  16.366  0.7352 -0.1656  0.0692
13651TIP3    H162368   5.921   2.195  16.430 -0.1550  0.2701  1.0875
13651TIP3    H262369   5.951   2.292  16.317  1.4419 -0.4022  0.8940
13652TIP3   OH262370   0.773   5.379   5.446 -0.0520 -0.1183 -0.7462
13652TIP3    H162371   0.710   5.367   5.517  0.8213  0.2218  0.1147
13652TIP3    H262372   0.750   5.311   5.382 -1.3322  0.0625 -0.4980
13653TIP3   OH262373   1.778   3.112  16.168 -0.4014 -0.4139 -0.1192
13653TIP3    H162374   1.710   3.137  16.230 -0.8478 -0.5430 -0.5482
13653TIP3    H262375   1.730   3.082  16.091  0.1382  0.4371 -0.8097
13654TIP3   OH262376   6.199   5.464  16.218  0.3547 -0.3739  0.0046
13654TIP3    H162377   6.170   5.502  16.136 -0.7473  1.6446  1.2728
13654TIP3    H262378   6.180   5.370  16.209 -0.5793 -0.0593 -1.6583
13655TIP3   OH262379   1.254   2.985  16.506  0.0339 -0.1195  0.0707
13655TIP3    H162380   1.198   2.915  16.539 -0.9307  1.6480  2.5582
13655TIP3    H262381   1.343   2.950  16.512 -0.4877 -1.4684  0.2365
13656TIP3   OH262382   2.252   6.722  16.580  0.2526  0.4327  0.0974
13656TIP3    H162383   2.180   6.661  16.566 -0.0294  0.9204 -0.6480
13656TIP3    H262384   2.326   6.667  16.604  0.4089 -0.3844 -2.0274
13657TIP3   OH262385   6.020   0.192  16.403  0.1027 -0.1528  0.6382
13657TIP3    H162386   6.030   0.098  16.392 -0.9429 -0.3708  1.4619
13657TIP3    H262387   6.006   0.205  16.497  1.6068  0.9679  0.7578
13658TIP3   OH262388   3.890   4.053  12.214  0.3565  0.1825 -0.0187
13658TIP3    H162389   3.916   3.987  12.149  0.9845 -0.1988  0.6137
13658TIP3    H262390   3.795   4.043  12.221  0.6109 -1.9144  1.3778
13659TIP3   OH262391   2.514   2.641   3.275  0.1655 -0.2965 -0.3999
13659TIP3    H162392   2.432   2.678   3.243  0.5410  0.5677 -0.3843
13659TIP3    H262393   2.559   2.714   3.318  1.3456 -0.5097 -1.2109
13660TIP3   OH262394   4.997   6.439   5.255 -1.0264 -0.0476 -0.2096
13660TIP3    H162395   4.920   6.415   5.203 -0.9791  0.6066 -0.5951
13660TIP3    H262396   5.068   6.445   5.191 -1.3261  2.5666 -0.4367
13661TIP3   OH262397   6.504   5.780  12.723 -0.0306  0.2422 -0.4193
13661TIP3    H162398   6.569   5.764  12.791 -0.7948 -0.0442  0.2719
13661TIP3    H262399   6.554   5.783  12.641  0.8414  0.0517  0.0933
13662TIP3   OH262400   5.282   2.273   4.679  0.6407  0.3345 -0.3719
13662TIP3    H162401   5.229   2.248   4.756  0.3096  2.9684  0.3501
13662TIP3    H262402   5.218   2.282   4.609  0.5404  0.6436 -0.2429
13663TIP3   OH262403   3.520   4.113   2.693  0.2316  0.1353 -0.0414
13663TIP3    H162404   3.506   4.123   2.599 -0.5771 -0.3658  0.0167
13663TIP3    H262405   3.478   4.189   2.733  0.9408  0.5680 -0.1055
13664TIP3   OH262406   1.548   4.599  13.372  0.7464  0.0080  0.2084
13664TIP3    H162407   1.547   4.689  13.406  0.4326 -0.3241  1.1209
13664TIP3    H262408   1.491   4.550  13.432  0.2739 -0.6371 -0.7451
13665TIP3   OH262409   2.677   0.683  13.571  0.2289 -0.1600 -0.2043
13665TIP3    H162410   2.706   0.630  13.497  0.4120 -0.0945 -0.1809
13665TIP3    H262411   2.757   0.723  13.604  0.5217 -1.9112  1.3983
13666TIP3   OH262412   2.289   6.730   5.021 -0.0515  0.4353 -0.7067
13666TIP3    H162413   2.300   6.811   4.972  0.1772  0.6284 -0.3451
13666TIP3    H262414   2.329   6.748   5.106  0.0914 -0.0912 -0.6581
13667TIP3   OH262415   6.457   0.978   5.803  0.3248 -0.1719  0.0558
13667TIP3    H162416   6.471   0.932   5.720  0.2671  0.1428 -0.1306
13667TIP3    H262417   6.382   0.934   5.842 -0.1564  0.1992 -0.4402
13668TIP3   OH262418   3.815   4.549   4.524  0.1293 -0.7440 -0.3120
13668TIP3    H162419   3.867   4.471   4.541 -1.5107 -1.9977 -0.8765
13668TIP3    H262420   3.821   4.600   4.605  4.2966  0.4772 -1.1499
13669TIP3   OH262421   2.548   0.398   5.350 -0.4443  0.6132 -0.2752
13669TIP3    H162422   2.595   0.482   5.350  1.3141 -0.2657 -2.5688
13669TIP3    H262423   2.457   0.422   5.366  0.2721  2.7362  1.1584
13670TIP3   OH262424   4.145   5.230   3.307 -0.3878  0.1198 -0.0771
13670TIP3    H162425   4.179   5.186   3.229  2.6586 -1.7514  2.1016
13670TIP3    H262426   4.138   5.322   3.281 -1.0308 -0.6497 -2.9793
13671TIP3   OH262427   0.591   0.815   0.729  0.3339  0.4617 -0.3125
13671TIP3    H162428   0.563   0.906   0.719 -0.1530  0.2703 -0.7048
13671TIP3    H262429   0.524   0.764   0.685  0.9074 -0.0574 -0.5970
13672TIP3   OH262430   5.256   4.805  11.623 -0.3577  0.0321 -0.5217
13672TIP3    H162431   5.305   4.735  11.579 -0.8997 -2.0227  1.9045
13672TIP3    H262432   5.292   4.886  11.586  2.6518 -1.4168 -1.1061
13673TIP3   OH262433   2.959   6.332   4.027  0.2466  0.3850 -0.0531
13673TIP3    H162434   2.865   6.343   4.015 -0.1681 -0.9879  1.5665
13673TIP3    H262435   2.991   6.419   4.051 -0.8713  0.5604  0.8505
13674TIP3   OH262436   5.962   0.729  12.949  0.0515 -0.2290 -0.0845
13674TIP3    H162437   5.996   0.641  12.932  1.9514 -0.2497  2.9722
13674TIP3    H262438   6.000   0.783  12.880 -1.3643 -1.7570 -2.1727
13675TIP3   OH262439   2.929   1.197  16.369  0.2555  0.6814 -0.0402
13675TIP3    H162440   3.010   1.175  16.415  0.2517 -0.8459 -0.6806
13675TIP3    H262441   2.931   1.141  16.291 -2.1368 -0.5795  0.7102
13676TIP3   OH262442   6.442   1.841  13.877  0.0746  0.3034 -0.2045
13676TIP3    H162443   6.491   1.809  13.802 -0.1582  0.8098 -0.5873
13676TIP3    H262444   6.385   1.768  13.902 -0.3278  0.3457 -0.9500
13677TIP3   OH262445   3.905   1.128   0.589 -0.0190 -0.3862  0.3134
13677TIP3    H162446   3.953   1.160   0.665  1.0804 -2.3497  0.5224
13677TIP3    H262447   3.829   1.083   0.625 -0.6188  0.4323  0.1111
13678TIP3   OH262448   1.307   5.594  11.212  0.2807 -0.2804  0.3732
13678TIP3    H162449   1.386   5.545  11.232  0.7638  1.4058  3.1111
13678TIP3    H262450   1.247   5.575  11.284 -0.7514  0.6302 -0.2066
13679TIP3   OH262451   5.051   6.249   9.888  0.5466 -0.3165 -0.1085
13679TIP3    H162452   4.967   6.267   9.929  0.1916 -1.1330 -0.4546
13679TIP3    H262453   5.032   6.183   9.821  1.3689 -0.1332 -0.5439
13680TIP3   OH262454   3.980   1.474  11.405  0.3231 -1.1289 -0.0388
13680TIP3    H162455   3.994   1.478  11.310 -0.6750 -1.3419 -0.2103
13680TIP3    H262456   4.010   1.386  11.429  1.1279 -0.8654 -0.0511
13681TIP3   OH262457   0.517   5.422  15.195 -0.2895 -0.2983  0.0109
13681TIP3    H162458   0.610   5.432  15.214 -0.3116 -0.2843  0.1141
13681TIP3    H262459   0.489   5.349  15.251 -0.1439 -0.8999 -0.6854
13682TIP3   OH262460   1.981   2.034  10.612 -0.3405 -0.3399  0.3287
13682TIP3    H162461   2.021   2.066  10.692  0.9042 -1.7244  0.2955
13682TIP3    H262462   1.989   2.107  10.550 -1.5658  0.8407  1.5019
13683TIP3   OH262463   2.948   0.129  13.954 -0.1285 -0.2009 -0.0632
13683TIP3    H162464   3.013   0.178  14.004  0.3951 -2.4392  1.6162
13683TIP3    H262465   2.872   0.123  14.012 -0.0927 -1.5163 -0.1116
13684TIP3   OH262466   3.006   1.426  12.166 -0.0901 -0.0754  0.3503
13684TIP3    H162467   2.977   1.458  12.081 -1.5355 -0.1761  0.7716
13684TIP3    H262468   3.073   1.361  12.146  0.9532  1.2310 -0.6201
13685TIP3   OH262469   6.296   5.662   2.489 -0.4498  0.2397  0.3889
13685TIP3    H162470   6.212   5.685   2.530 -0.5589 -0.3577  0.5127
13685TIP3    H262471   6.279   5.579   2.446  0.8496 -1.4427  2.8962
13686TIP3   OH262472   3.517   0.810  17.139 -0.0472 -0.2828  0.9831
13686TIP3    H162473   3.590   0.864  17.170  0.6604 -0.9244  0.4577
13686TIP3    H262474   3.454   0.873  17.105  0.1624  0.2925  1.6451
13687TIP3   OH262475   4.502   4.303  15.056 -0.0637  0.0308  0.0083
13687TIP3    H162476   4.436   4.368  15.078 -2.0583 -1.4989 -1.0667
13687TIP3    H262477   4.516   4.313  14.962  1.9654  0.8903  0.3436
13688TIP3   OH262478   3.073   4.209   2.137  0.4082  0.8128 -0.5787
13688TIP3    H162479   3.033   4.296   2.147 -3.1543 -0.5226 -1.5772
13688TIP3    H262480   3.057   4.186   2.045 -2.9671 -2.5629  0.5599
13689TIP3   OH262481   2.186   2.311   2.346 -0.0441  0.5718  0.2029
13689TIP3    H162482   2.126   2.342   2.279 -0.0221  1.2464  0.4823
13689TIP3    H262483   2.163   2.219   2.360  0.8028  0.0433 -1.6339
13690TIP3   OH262484   4.021   4.933  14.643 -0.0515  0.3962  0.5260
13690TIP3    H162485   3.984   4.926  14.732 -0.7214  2.4956  0.4800
13690TIP3    H262486   4.023   5.027  14.626  2.3297  0.1743 -0.7837
13691TIP3   OH262487   0.619   6.559  11.273 -0.0837 -0.1623 -0.3672
13691TIP3    H162488   0.705   6.598  11.259 -0.6678  0.3207 -3.1599
13691TIP3    H262489   0.567   6.585  11.197 -2.4428 -1.2150  0.7557
13692TIP3   OH262490   1.456   4.801  17.072 -0.6267  0.1395 -0.1125
13692TIP3    H162491   1.549   4.796  17.093  0.0547 -0.0082 -2.8248
13692TIP3    H262492   1.416   4.840  17.150  1.4770 -0.8970  1.6009
13693TIP3   OH262493   0.716   4.823  11.843  0.7500 -0.3266 -0.0642
13693TIP3    H162494   0.719   4.732  11.815  1.4949 -0.0537 -0.9382
13693TIP3    H262495   0.806   4.855  11.831  0.4212  0.6204 -0.1214
13694TIP3   OH262496   4.509   1.518  15.198 -0.3432 -0.4829  0.0085
13694TIP3    H162497   4.563   1.560  15.132 -1.1850  1.1270  0.2858
13694TIP3    H262498   4.511   1.578  15.273  0.3210 -2.0903  1.3439
13695TIP3   OH262499   2.636   1.750  17.076 -0.1495  0.5663 -0.4950
13695TIP3    H162500   2.710   1.703  17.115  0.7932  1.3081 -1.3436
13695TIP3    H262501   2.613   1.816  17.142 -0.6497 -0.2278  0.1488
13696TIP3   OH262502   2.507   1.291  13.122  0.3528  0.0261 -0.0949
13696TIP3    H162503   2.596   1.325  13.115  0.5745 -0.5560 -0.1231
13696TIP3    H262504   2.492   1.247  13.039  0.0287  0.1421 -0.0977
13697TIP3   OH262505   3.695   3.623  11.510 -0.2621 -0.2922  0.0179
13697TIP3    H162506   3.777   3.611  11.558 -0.2550 -1.4044 -0.2545
13697TIP3    H262507   3.720   3.670  11.431  0.2503 -1.2593 -0.4159
13698TIP3   OH262508   4.575   1.339  12.390  0.2889  0.0446 -0.3190
13698TIP3    H162509   4.513   1.270  12.413 -0.6455  0.3891 -1.6967
13698TIP3    H262510   4.661   1.301  12.407 -0.2600 -0.3896  1.7656
13699TIP3   OH262511   2.361   5.572   5.921 -0.0947  0.1433 -0.1609
13699TIP3    H162512   2.366   5.656   5.966  0.9957 -1.0590  2.1249
13699TIP3    H262513   2.306   5.518   5.978  1.3778 -1.4585 -0.1800
13700TIP3   OH262514   4.373   4.056   4.261  0.1917 -0.1023 -0.3358
13700TIP3    H162515   4.418   3.985   4.306  1.5773 -0.0009 -1.5193
13700TIP3    H262516   4.436   4.090   4.198 -1.6612 -0.2375 -2.3964
13701TIP3   OH262517   1.143   1.558   2.471  0.2844  0.0015  0.0070
13701TIP3    H162518   1.070   1.559   2.409  0.8949  0.6386 -0.7288
13701TIP3    H262519   1.208   1.502   2.429  0.6053  0.2439  0.1784
13702TIP3   OH262520   1.314   3.083  14.112  0.1932  0.2486 -0.0302
13702TIP3    H162521   1.265   3.002  14.105  0.7236  0.0371 -1.6206
13702TIP3    H262522   1.389   3.060  14.168 -0.4303  0.0646  0.7593
13703TIP3   OH262523   1.213   5.228   0.511  0.4489  1.2454 -0.1316
13703TIP3    H162524   1.132   5.179   0.527  0.6643 -0.4929 -3.4077
13703TIP3    H262525   1.272   5.201   0.582 -0.4802 -0.9011 -0.0834
13704TIP3   OH262526   5.492   4.858  15.986  0.0882 -0.5913 -0.3197
13704TIP3    H162527   5.422   4.855  16.051 -1.7592 -0.2872 -2.1977
13704TIP3    H262528   5.562   4.908  16.028 -1.6621  0.9825  0.8592
13705TIP3   OH262529   0.186   5.776  13.603  0.0195  0.5261  0.0081
13705TIP3    H162530   0.276   5.753  13.576 -0.1005 -1.5282  1.1514
13705TIP3    H262531   0.133   5.754  13.526  0.5063  2.2288 -0.8611
13706TIP3   OH262532   1.864   6.716   3.560  0.1189 -0.3297  0.3074
13706TIP3    H162533   1.782   6.742   3.518  0.1005 -1.8159 -0.6474
13706TIP3    H262534   1.838   6.686   3.647 -0.4140 -1.0542 -0.0875
13707TIP3   OH262535   2.162   3.655  10.408  0.7396 -0.4533 -0.5172
13707TIP3    H162536   2.099   3.703  10.355  0.2034  0.1687  0.6619
13707TIP3    H262537   2.111   3.589  10.454  1.3999 -1.9190 -1.7534
13708TIP3   OH262538   1.801   6.198   4.786  0.6629 -0.1179  0.5002
13708TIP3    H162539   1.736   6.133   4.813  0.3851  0.6674  1.7791
13708TIP3    H262540   1.769   6.230   4.701 -1.8977  1.8379  2.0570
13709TIP3   OH262541   4.719   3.663   5.138 -0.8978 -0.2574  0.4004
13709TIP3    H162542   4.754   3.601   5.202 -0.7974 -0.9690 -0.3398
13709TIP3    H262543   4.760   3.638   5.055 -0.0598  1.4289  0.2555
13710TIP3   OH262544   2.505   6.183  12.456  0.5931  0.6619  0.1160
13710TIP3    H162545   2.490   6.145  12.369 -0.7290  0.8712  0.2360
13710TIP3    H262546   2.585   6.236  12.446 -0.9155  2.7834 -1.6989
13711TIP3   OH262547   0.976   0.985  14.772  0.0643  0.1037  0.4116
13711TIP3    H162548   0.965   0.960  14.864  0.3704 -0.5360  0.2790
13711TIP3    H262549   0.945   0.910  14.723  3.6997 -1.3117  0.0109
13712TIP3   OH262550   4.840   5.248  15.856 -0.1701  0.1807  0.1286
13712TIP3    H162551   4.832   5.174  15.796 -0.0274  0.7827 -0.6600
13712TIP3    H262552   4.756   5.250  15.903  0.3926 -1.3707  1.2486
13713TIP3   OH262553   2.681   1.097  14.221 -0.5279 -0.1569 -0.2810
13713TIP3    H162554   2.776   1.093  14.204 -0.2684  1.6578  0.5016
13713TIP3    H262555   2.665   1.188  14.244 -2.0561 -0.9419  2.0317
13714TIP3   OH262556   1.137   2.679   6.205  0.0410 -0.3243  0.3247
13714TIP3    H162557   1.168   2.601   6.251 -1.5106 -0.1550  1.7255
13714TIP3    H262558   1.129   2.746   6.273  2.7049  1.5745 -1.0496
13715TIP3   OH262559   4.766   3.372   1.277 -0.2431 -0.2826 -0.1317
13715TIP3    H162560   4.683   3.411   1.249  0.1292  0.9771  0.4335
13715TIP3    H262561   4.833   3.423   1.232  0.2435 -1.4578 -0.7913
13716TIP3   OH262562   2.618   5.702  12.943  0.3546 -0.5942 -0.3290
13716TIP3    H162563   2.655   5.631  12.994  1.1489  0.3060  0.3789
13716TIP3    H262564   2.687   5.727  12.882  0.2083 -0.1814 -0.3275
13717TIP3   OH262565   0.497   1.617   0.612 -0.1063 -0.4746  0.2923
13717TIP3    H162566   0.423   1.577   0.566  0.3870 -1.0670 -0.0046
13717TIP3    H262567   0.527   1.686   0.553 -0.4558 -0.2016  0.4358
13718TIP3   OH262568   4.359   3.082  16.815  0.0062 -0.0245 -0.3596
13718TIP3    H162569   4.305   3.135  16.757 -1.8197 -0.9202  0.4385
13718TIP3    H262570   4.335   2.991  16.793 -0.6914 -0.3950  1.6820
13719TIP3   OH262571   0.993   3.172   4.661 -0.6628 -0.5378  0.1319
13719TIP3    H162572   1.030   3.180   4.573  0.4652 -0.8369  0.5586
13719TIP3    H262573   1.020   3.253   4.706 -3.5798  0.9703 -0.5696
13720TIP3   OH262574   2.017   4.591   2.430  0.2116  0.0247 -0.2173
13720TIP3    H162575   2.082   4.614   2.363 -0.4032 -1.1667 -1.2480
13720TIP3    H262576   2.046   4.507   2.464 -1.2083 -0.9223 -1.2682
13721TIP3   OH262577   4.693   0.509   1.228 -0.1011  0.0772 -0.5650
13721TIP3    H162578   4.638   0.481   1.155  0.1161 -0.7893 -0.4090
13721TIP3    H262579   4.740   0.430   1.254  1.8244  0.9535 -1.1982
13722TIP3   OH262580   3.378   4.787  14.873  0.1975  0.9637  0.5622
13722TIP3    H162581   3.302   4.825  14.830 -0.7437 -1.9328 -0.5611
13722TIP3    H262582   3.344   4.754  14.957  1.1734  3.1347  1.8935
13723TIP3   OH262583   2.752   2.645   1.072 -0.2155  0.3261  0.1835
13723TIP3    H162584   2.791   2.658   0.985 -2.7436  1.0545 -0.9502
13723TIP3    H262585   2.821   2.668   1.133  1.4304  0.4969 -1.6406
13724TIP3   OH262586   2.472   5.559  15.254 -0.1351  0.2004  0.5219
13724TIP3    H162587   2.434   5.644  15.278 -1.4792  0.1617 -1.1976
13724TIP3    H262588   2.416   5.528  15.183 -0.4295 -2.7379  1.9148
13725TIP3   OH262589   4.940   1.800   3.045 -0.2236 -0.1906  0.5048
13725TIP3    H162590   4.942   1.842   2.960  0.9903 -1.3422 -0.0656
13725TIP3    H262591   4.910   1.868   3.105  3.1393  2.0065 -0.0950
13726TIP3   OH262592   3.449   3.092   6.051 -0.3070 -0.1936 -0.0599
13726TIP3    H162593   3.495   3.029   6.106 -2.4528 -0.6171  1.4011
13726TIP3    H262594   3.404   3.150   6.113 -0.6012  1.0663 -1.3779
13727TIP3   OH262595   4.517   2.545  16.123  0.0534 -0.4216 -0.1201
13727TIP3    H162596   4.527   2.606  16.050 -0.5249  0.2733  0.3616
13727TIP3    H262597   4.469   2.595  16.189 -0.6275 -1.4718  0.2041
13728TIP3   OH262598   5.153   6.240  13.943  0.3964 -0.0982  0.0175
13728TIP3    H162599   5.079   6.195  13.983  1.3964 -0.3519  1.6823
13728TIP3    H262600   5.224   6.176  13.946  0.8765  0.3748 -0.9190
13729TIP3   OH262601   2.230   3.650   5.451  0.5884  0.4687  0.1990
13729TIP3    H162602   2.248   3.559   5.426  1.2550  0.5280  0.4462
13729TIP3    H262603   2.313   3.683   5.483 -0.0576  0.6041  1.8444
13730TIP3   OH262604   0.040   4.117  10.840 -0.2865  0.0008 -0.1949
13730TIP3    H162605  -0.027   4.052  10.820 -0.4567 -0.0436  0.4911
13730TIP3    H262606   0.122   4.077  10.812 -0.0898 -1.4887  2.2479
13731TIP3   OH262607   3.669   0.454  16.244 -0.2582 -0.0950  0.1795
13731TIP3    H162608   3.664   0.444  16.149 -0.0900 -1.3641  0.2851
13731TIP3    H262609   3.622   0.535  16.263 -0.3804  0.1086 -0.9764
13732TIP3   OH262610   5.325   2.547   1.577  0.4608 -0.3882  0.0295
13732TIP3    H162611   5.368   2.478   1.628 -0.6147 -1.6690 -0.7073
13732TIP3    H262612   5.271   2.593   1.641 -0.4616 -1.6366  0.2030
13733TIP3   OH262613   0.819   3.207  13.756  0.3553  0.3606 -0.1922
13733TIP3    H162614   0.875   3.170  13.824  1.1665  0.2219 -0.9121
13733TIP3    H262615   0.733   3.218  13.798  0.6677 -0.3278  0.6480
13734TIP3   OH262616   0.892   3.920  11.707 -0.2621  0.0294 -0.3350
13734TIP3    H162617   0.869   4.012  11.699 -0.3787 -0.0500 -0.9608
13734TIP3    H262618   0.848   3.877  11.634  0.5299 -0.3811 -0.5861
13735TIP3   OH262619   2.563   4.896  12.150  0.0979 -0.0063  0.1498
13735TIP3    H162620   2.552   4.853  12.066  0.8476  0.2892 -0.1031
13735TIP3    H262621   2.655   4.884  12.172 -0.0736 -0.0218  0.8950
13736TIP3   OH262622   4.872   1.382  13.800  0.1213 -0.0150 -0.0755
13736TIP3    H162623   4.958   1.373  13.759  0.6560  1.6136  0.6299
13736TIP3    H262624   4.811   1.394  13.727  1.1585  3.7092 -0.5040
13737TIP3   OH262625   3.216   3.346  13.940  0.8304  0.4285 -0.3994
13737TIP3    H162626   3.282   3.298  13.890  0.0593 -1.2041  0.0647
13737TIP3    H262627   3.256   3.431  13.957  2.6499 -0.3393 -0.5095
13738TIP3   OH262628   2.583   3.309  13.032  0.1027 -0.2586 -0.2670
13738TIP3    H162629   2.651   3.375  13.044  0.6557 -0.6755 -1.0299
13738TIP3    H262630   2.582   3.261  13.115  1.2354 -0.6805 -0.4658
13739TIP3   OH262631   1.754   4.983   5.290  0.2760  0.3322 -0.2616
13739TIP3    H162632   1.774   5.072   5.261  0.2706 -0.1420 -1.8482
13739TIP3    H262633   1.839   4.944   5.310  0.4311  0.1992 -1.1470
13740TIP3   OH262634   3.060   0.500   1.781  0.3699 -0.0073  0.3633
13740TIP3    H162635   3.108   0.433   1.732  0.9736  0.0957  0.8087
13740TIP3    H262636   3.127   0.561   1.810  0.1758 -0.6538  2.2810
13741TIP3   OH262637   6.409   3.927   5.409 -0.2404  0.6922  0.1894
13741TIP3    H162638   6.438   3.836   5.416 -0.9454  0.3382 -1.1758
13741TIP3    H262639   6.314   3.923   5.422 -0.1560  1.3801  1.1340
13742TIP3   OH262640   2.374   0.653  10.686  0.1564 -0.1504  0.0852
13742TIP3    H162641   2.295   0.704  10.700 -0.1304 -0.7662  0.8000
13742TIP3    H262642   2.442   0.718  10.667 -0.2584  0.4694  0.6769
13743TIP3   OH262643   5.408   0.217   0.859  0.5549 -0.0987 -0.2744
13743TIP3    H162644   5.485   0.161   0.848  1.4664  1.0420  0.0724
13743TIP3    H262645   5.378   0.233   0.770  2.0314  1.1685 -0.5918
13744TIP3   OH262646   0.574   5.767   0.237 -0.2632 -0.2278 -0.1076
13744TIP3    H162647   0.531   5.851   0.222 -2.6732 -1.3024  0.4456
13744TIP3    H262648   0.547   5.741   0.325  0.1538 -1.7595 -0.4046
13745TIP3   OH262649   0.013   5.239  12.609  0.3210 -0.3502 -0.2861
13745TIP3    H162650  -0.068   5.266  12.566  1.4344  1.5700 -1.2964
13745TIP3    H262651  -0.010   5.232  12.702 -0.4626  2.6184 -0.1703
13746TIP3   OH262652   0.149   4.207  11.637 -0.0297 -0.7679 -0.2833
13746TIP3    H162653   0.232   4.202  11.685  0.2948  0.8103 -0.6042
13746TIP3    H262654   0.132   4.118  11.608 -0.2160 -1.8137  2.6718
13747TIP3   OH262655   0.980   2.799   1.380  0.5845  0.1862 -0.3050
13747TIP3    H162656   0.886   2.795   1.359  0.6223 -2.0233 -0.2623
13747TIP3    H262657   1.023   2.814   1.296  0.2625 -0.3582 -0.5742
13748TIP3   OH262658   4.103   4.310   2.219 -0.1251 -0.1542  0.2448
13748TIP3    H162659   4.103   4.306   2.314 -0.9370  1.4975  0.3470
13748TIP3    H262660   4.150   4.391   2.198 -1.6599  0.5378 -0.6683
13749TIP3   OH262661   0.528   1.966   5.219 -0.1844  0.0959 -0.0488
13749TIP3    H162662   0.605   2.008   5.259 -0.6256 -1.1317  2.2691
13749TIP3    H262663   0.456   1.986   5.279 -1.2409 -0.5319 -1.0782
13750TIP3   OH262664   4.776   2.069   0.522  0.1741 -0.1931  0.2908
13750TIP3    H162665   4.854   2.067   0.577 -0.7925 -1.0240  1.7031
13750TIP3    H262666   4.795   2.133   0.454  1.1811  1.3643  1.9832
13751TIP3   OH262667   2.199   2.899   2.602  0.2565 -0.5614 -0.2622
13751TIP3    H162668   2.230   2.916   2.691 -0.0523 -1.6062  0.0609
13751TIP3    H262669   2.235   2.813   2.580 -0.1397 -0.5645 -0.9298
13752TIP3   OH262670   2.962   5.544  16.865 -0.3254 -0.1302 -0.1883
13752TIP3    H162671   2.970   5.486  16.789 -1.1175  0.1868 -0.5323
13752TIP3    H262672   3.051   5.553  16.898 -0.4022 -3.5491  1.3929
13753TIP3   OH262673   4.968   0.556   2.470  1.0116  0.3754 -0.0436
13753TIP3    H162674   5.001   0.527   2.384  1.6269  0.5392  0.1302
13753TIP3    H262675   4.974   0.478   2.525  1.0444  0.3851 -0.0331
13754TIP3   OH262676   1.070   5.280   3.750  0.5224 -0.4310 -0.8640
13754TIP3    H162677   1.058   5.335   3.827 -1.2699  1.1478 -2.1613
13754TIP3    H262678   0.988   5.290   3.701  2.4370  0.5923 -4.1492
13755TIP3   OH262679   1.800   0.940  15.919  0.4684  0.6487 -0.8074
13755TIP3    H162680   1.803   0.981  15.832 -0.6066 -0.8815 -1.6201
13755TIP3    H262681   1.892   0.932  15.945  0.8320  0.6468 -2.0418
13756TIP3   OH262682   6.713   3.690   5.748  0.5432  0.0992 -0.1276
13756TIP3    H162683   6.766   3.717   5.823  0.5740  1.5243 -0.6335
13756TIP3    H262684   6.770   3.707   5.672 -0.6608  1.8694 -0.6990
13757TIP3   OH262685   0.717   2.840   4.202  0.1968 -0.4971 -0.2568
13757TIP3    H162686   0.696   2.898   4.129  0.3205 -0.7919 -0.5299
13757TIP3    H262687   0.640   2.784   4.211 -1.6340  2.1121  2.4684
13758TIP3   OH262688   3.741   6.436  12.100  0.0700 -0.3780 -0.3283
13758TIP3    H162689   3.646   6.443  12.102  0.1082  0.1606 -0.0160
13758TIP3    H262690   3.760   6.344  12.115 -0.3558 -0.1821  1.6293
13759TIP3   OH262691   0.773   4.644   3.223 -0.3594 -0.7735 -0.0701
13759TIP3    H162692   0.734   4.591   3.154  0.5425 -0.8662 -0.5208
13759TIP3    H262693   0.861   4.665   3.191 -0.6368  0.8712  0.1571
13760TIP3   OH262694   2.545   2.557   5.442 -0.4765 -0.5943 -0.0887
13760TIP3    H162695   2.622   2.531   5.493 -0.8202  0.9486  1.3087
13760TIP3    H262696   2.579   2.619   5.378 -0.6179  0.7380  1.0714
13761TIP3   OH262697   1.825   5.927  15.741 -0.3427 -0.3684  0.0654
13761TIP3    H162698   1.805   5.848  15.791 -2.1212 -0.7490 -1.1448
13761TIP3    H262699   1.901   5.965  15.785 -0.7814 -1.5742  1.9981
13762TIP3   OH262700   0.327   1.157  13.434 -0.0784  0.4000 -0.1082
13762TIP3    H162701   0.286   1.100  13.499  1.2811 -0.3474  0.1387
13762TIP3    H262702   0.331   1.104  13.354  0.9615  0.2048  0.0536
13763TIP3   OH262703   1.165   6.207   1.661  0.5311  0.2711  0.1303
13763TIP3    H162704   1.096   6.232   1.723  0.6962  1.2378 -0.0600
13763TIP3    H262705   1.134   6.242   1.577  1.1878  0.5891  0.0194
13764TIP3   OH262706   0.857   2.080   3.108 -0.0883  0.0689  0.6848
13764TIP3    H162707   0.931   2.133   3.078 -1.0344  0.8176 -0.4255
13764TIP3    H262708   0.826   2.125   3.187 -0.3409  0.7006  0.2415
13765TIP3   OH262709   2.568   6.664  15.860  0.2498 -0.1978  0.5556
13765TIP3    H162710   2.636   6.730  15.850  0.9121 -0.8030  0.9878
13765TIP3    H262711   2.615   6.584  15.885 -0.3125 -1.3579 -1.8502
13766TIP3   OH262712   2.944   0.258   6.329  0.0895  0.0343 -0.6693
13766TIP3    H162713   2.942   0.341   6.282  0.9669  0.0036 -0.7788
13766TIP3    H262714   3.036   0.234   6.331  0.0275 -0.1537  0.7586
13767TIP3   OH262715   3.576   6.044  16.792 -0.2399 -0.1138 -0.2040
13767TIP3    H162716   3.517   6.055  16.867 -2.4934 -0.3506 -1.8324
13767TIP3    H262717   3.651   5.996  16.827  0.0925  2.0616  2.4382
13768TIP3   OH262718   2.509   0.407   3.648  0.0126 -0.5465  0.6507
13768TIP3    H162719   2.462   0.440   3.724  0.0288 -0.1173  0.4790
13768TIP3    H262720   2.461   0.442   3.573  0.5176 -0.2269  0.4719
13769TIP3   OH262721   5.302   5.311  14.448  0.1363 -0.0669 -0.1147
13769TIP3    H162722   5.295   5.225  14.408 -0.4436 -0.6135  1.1214
13769TIP3    H262723   5.330   5.294  14.538  1.3611  1.1261 -0.2351
13770TIP3   OH262724   3.021   4.089  11.514  0.1573 -0.0204 -0.4473
13770TIP3    H162725   3.007   4.160  11.451 -0.8899 -2.1009 -2.7384
13770TIP3    H262726   2.941   4.089  11.568  0.7913  1.3874  0.5399
13771TIP3   OH262727   0.902   1.828   5.641  0.2298  0.5282  0.4837
13771TIP3    H162728   0.817   1.823   5.597  0.4174 -1.7141  0.2298
13771TIP3    H262729   0.965   1.804   5.574  0.6357 -1.7489  1.5883
13772TIP3   OH262730   6.796   3.190   4.770 -0.7256 -0.4086 -0.9345
13772TIP3    H162731   6.733   3.155   4.833 -0.3697 -1.5382 -1.1827
13772TIP3    H262732   6.750   3.189   4.686 -1.8067  2.6978 -0.5032
13773TIP3   OH262733   5.822   5.210   2.582  0.4064  0.4636 -0.3850
13773TIP3    H162734   5.790   5.221   2.492  0.7410  0.6151 -0.4875
13773TIP3    H262735   5.748   5.235   2.637  0.0030 -0.1932 -0.6140
13774TIP3   OH262736   1.146   3.733  12.648  0.7131  0.3157 -0.2862
13774TIP3    H162737   1.117   3.791  12.718 -0.1835  0.0144 -0.3920
13774TIP3    H262738   1.066   3.691  12.617  1.2828 -0.6390 -0.5183
13775TIP3   OH262739   6.507   1.182  11.196  0.3350 -0.0822 -0.3907
13775TIP3    H162740   6.587   1.209  11.240 -0.9450 -1.4946  3.1413
13775TIP3    H262741   6.524   1.092  11.168  0.7166  0.3993 -1.7865
13776TIP3   OH262742   0.084   6.163  13.554 -0.4479 -0.1548 -0.2552
13776TIP3    H162743   0.117   6.250  13.533  2.0710 -1.1900 -0.9672
13776TIP3    H262744  -0.007   6.164  13.525 -0.3842  2.1059 -0.5482
13777TIP3   OH262745   1.707   0.613  17.124  0.0054 -0.3667  0.7665
13777TIP3    H162746   1.759   0.573  17.054  0.1686  0.8274  0.1860
13777TIP3    H262747   1.622   0.567  17.120 -0.6452  0.8737 -1.4459
13778TIP3   OH262748   0.167   6.180  15.774 -0.5656  0.2762  0.5384
13778TIP3    H162749   0.246   6.231  15.758 -1.2042  1.0188 -0.4329
13778TIP3    H262750   0.127   6.170  15.687 -1.7176  0.2367  1.0451
13779TIP3   OH262751   2.079   4.286   2.059 -0.0232  0.0974 -0.5337
13779TIP3    H162752   2.012   4.347   2.088 -0.6301 -0.4214 -0.8366
13779TIP3    H262753   2.098   4.232   2.135 -0.4387 -0.1973 -0.6378
13780TIP3   OH262754   1.349   1.853  15.263  0.9613 -0.3049 -0.0981
13780TIP3    H162755   1.375   1.907  15.188 -0.0488 -0.2778 -0.4459
13780TIP3    H262756   1.270   1.809  15.234 -0.1819  0.6632  1.3889
13781TIP3   OH262757   2.990   0.168   1.997  0.3262  0.1206  0.1570
13781TIP3    H162758   2.903   0.149   2.033  0.3135 -0.7848 -0.3153
13781TIP3    H262759   2.973   0.188   1.905  0.5072  1.0553  0.3183
13782TIP3   OH262760   1.009   1.870  11.361 -0.1419  1.2455  0.2581
13782TIP3    H162761   1.083   1.930  11.374 -0.5115  1.9487 -0.7975
13782TIP3    H262762   1.051   1.785  11.347  0.3548  0.8511  3.3892
13783TIP3   OH262763   5.374   0.747  15.550 -0.2043  0.5086 -0.2608
13783TIP3    H162764   5.389   0.731  15.643  1.3248  2.8832 -0.0161
13783TIP3    H262765   5.459   0.732  15.509 -0.5298  0.8067 -1.0683
13784TIP3   OH262766   5.003   1.362   5.322  0.9583  0.1579  0.1986
13784TIP3    H162767   5.000   1.267   5.336  0.8230  0.1996  0.4660
13784TIP3    H262768   4.973   1.399   5.405  0.2248  0.4177 -0.1772
13785TIP3   OH262769   4.999   1.892  13.646 -0.4008  0.5610  1.0251
13785TIP3    H162770   4.946   1.813  13.655 -0.7799  0.7789  0.6967
13785TIP3    H262771   5.079   1.863  13.602 -0.2754  0.2461  1.4579
13786TIP3   OH262772   5.118   0.155   3.912 -0.3927  0.2024 -0.1890
13786TIP3    H162773   5.165   0.072   3.901 -2.5409 -1.0823 -0.2886
13786TIP3    H262774   5.125   0.197   3.826  1.6211  0.6664  0.1681
13787TIP3   OH262775   0.310   2.074   1.782 -0.1703  0.2871 -0.4829
13787TIP3    H162776   0.243   2.106   1.842 -0.2824  0.7321 -0.8402
13787TIP3    H262777   0.265   2.008   1.729 -0.2194  0.2944 -0.4502
13788TIP3   OH262778   1.471   1.325  10.585 -0.6068 -0.1950  0.1039
13788TIP3    H162779   1.493   1.413  10.555 -0.2361 -0.6006 -0.8307
13788TIP3    H262780   1.379   1.313  10.560 -1.2334  0.5988  1.8767
13789TIP3   OH262781   2.385   5.426   3.626 -0.6633 -0.3912  0.3784
13789TIP3    H162782   2.416   5.337   3.612 -0.5704 -0.3537  0.3483
13789TIP3    H262783   2.329   5.420   3.704 -0.4342 -0.4228  0.5398
13790TIP3   OH262784   4.369   3.851   2.801 -1.2347  0.7996  0.0048
13790TIP3    H162785   4.313   3.847   2.879 -0.1920  0.7644  0.7629
13790TIP3    H262786   4.357   3.940   2.768 -2.2787  0.5742 -0.2561
13791TIP3   OH262787   2.068   4.176   0.967  0.5365 -0.0746 -0.4418
13791TIP3    H162788   1.988   4.140   0.931 -0.5734 -0.1823  1.9222
13791TIP3    H262789   2.101   4.108   1.026  1.9913  0.2602 -0.8131
13792TIP3   OH262790   4.899   4.517   4.422 -0.7077  0.3751  0.0349
13792TIP3    H162791   4.865   4.443   4.472 -1.5916  0.9460  0.3045
13792TIP3    H262792   4.826   4.545   4.367  0.3285 -0.4095 -1.8014
13793TIP3   OH262793   2.972   0.588   4.200  0.0063  0.7244  0.1150
13793TIP3    H162794   3.049   0.533   4.215 -0.6428 -1.1137 -2.5674
13793TIP3    H262795   2.897   0.532   4.218 -0.8564  2.5183  2.7916
13794TIP3   OH262796   6.374   3.633  17.043  0.1439  0.2572 -0.1527
13794TIP3    H162797   6.462   3.633  17.003  0.1781 -0.1596 -0.0884
13794TIP3    H262798   6.387   3.592  17.129 -0.3361 -1.0151 -0.6652
13795TIP3   OH262799   6.738   2.094  15.018 -0.1726 -0.0820  0.1148
13795TIP3    H162800   6.759   2.023  14.957 -0.2492 -1.0843  1.2032
13795TIP3    H262801   6.786   2.071  15.098 -1.2902  0.3605  0.9383
13796TIP3   OH262802   6.404   1.896   1.730 -0.1038  0.1521 -0.2056
13796TIP3    H162803   6.491   1.914   1.696  0.5198 -0.6346  0.8931
13796TIP3    H262804   6.368   1.982   1.754  0.3760  0.4752 -0.6437
13797TIP3   OH262805   2.924   0.593  10.505 -0.0308 -0.0003  0.3169
13797TIP3    H162806   2.976   0.550  10.436 -2.2425 -0.2092 -1.3116
13797TIP3    H262807   2.984   0.657  10.544  0.8802  1.3287 -2.9465
13798TIP3   OH262808   4.520   1.312   2.264  0.1973  0.1813  0.1613
13798TIP3    H162809   4.444   1.328   2.320 -2.7975 -1.5160 -2.9826
13798TIP3    H262810   4.545   1.399   2.232 -1.8952  0.6537 -0.3658
13799TIP3   OH262811   0.547   2.202   5.728 -0.2024  0.7783 -0.1171
13799TIP3    H162812   0.524   2.271   5.790 -1.3275 -0.2703  0.6812
13799TIP3    H262813   0.620   2.156   5.769  1.3621  2.1987 -1.2124
13800TIP3   OH262814   5.813   3.650  16.817 -0.2244 -0.4061 -0.1043
13800TIP3    H162815   5.883   3.627  16.755  0.7940 -0.9469  1.1903
13800TIP3    H262816   5.830   3.741  16.840  0.7620 -0.8497  1.0393
13801TIP3   OH262817   5.939   4.265  16.377 -0.0484  0.1261 -0.0410
13801TIP3    H162818   5.960   4.350  16.414  1.1977 -1.1852  2.5288
13801TIP3    H262819   6.000   4.254  16.304  0.8139  0.8138  0.5620
13802TIP3   OH262820   4.355   0.788  10.892  0.1818 -0.2116  0.6903
13802TIP3    H162821   4.400   0.850  10.949 -0.0710 -0.7745  1.5136
13802TIP3    H262822   4.375   0.702  10.928  4.6378 -1.2098 -3.1757
13803TIP3   OH262823   2.995   2.271  12.505  0.2274  0.8934 -0.4614
13803TIP3    H162824   3.036   2.357  12.507 -0.0903  1.1197 -1.9926
13803TIP3    H262825   2.920   2.278  12.563  0.0714  1.7218 -0.7564
13804TIP3   OH262826   4.408   3.601  12.607 -0.4270 -0.1946  0.5286
13804TIP3    H162827   4.438   3.681  12.564  0.1761 -0.4318  0.5091
13804TIP3    H262828   4.482   3.542  12.603 -0.4191 -0.2938  1.7078
13805TIP3   OH262829   2.661   6.042   5.504 -0.6646  0.1614  0.1897
13805TIP3    H162830   2.589   5.980   5.513  0.8397 -1.5455  1.2289
13805TIP3    H262831   2.623   6.127   5.526 -2.2636 -0.7426  1.1135
13806TIP3   OH262832   6.343   6.439   2.541 -0.0099  0.0707 -0.2412
13806TIP3    H162833   6.379   6.362   2.586 -1.7489 -0.6429 -0.0001
13806TIP3    H262834   6.254   6.446   2.574 -0.2078  1.5985 -1.0412
13807TIP3   OH262835   0.308   5.808   4.118  0.7646  0.1296  0.2767
13807TIP3    H162836   0.379   5.747   4.140  1.3754  1.7184  3.2834
13807TIP3    H262837   0.353   5.891   4.100 -0.1761  0.2658 -1.7456
13808TIP3   OH262838   5.574   1.070   6.171  0.3469 -0.0905  0.5199
13808TIP3    H162839   5.629   0.992   6.163 -1.1874 -1.2702  0.8615
13808TIP3    H262840   5.618   1.137   6.120  0.5543 -1.8366 -1.7145
13809TIP3   OH262841   5.881   0.149  14.414  0.0243  0.4053 -0.4079
13809TIP3    H162842   5.792   0.113  14.420 -1.3207  2.8089 -3.2629
13809TIP3    H262843   5.883   0.218  14.480 -0.1159  0.1343 -0.1174
13810TIP3   OH262844   3.624   0.514   6.378  0.0707  0.3760  0.6843
13810TIP3    H162845   3.598   0.429   6.412  0.6979  0.5777  1.6994
13810TIP3    H262846   3.705   0.497   6.331 -1.7194 -0.2582 -2.5065
13811TIP3   OH262847   5.583   6.033   5.649 -0.0766  0.6625  0.0510
13811TIP3    H162848   5.521   6.057   5.717 -1.6617 -2.2999 -0.1939
13811TIP3    H262849   5.577   5.938   5.643  2.8449  0.4594 -1.6103
13812TIP3   OH262850   3.429   3.317  11.981  0.3889 -0.6326 -0.4340
13812TIP3    H162851   3.486   3.388  12.007 -1.6570  1.9785 -2.4958
13812TIP3    H262852   3.341   3.347  12.002 -0.5219 -3.2284 -0.0659
13813TIP3   OH262853   6.656   1.596  16.184  0.3297 -0.1788  0.4946
13813TIP3    H162854   6.661   1.587  16.089 -1.6968  1.7452  0.1195
13813TIP3    H262855   6.564   1.579  16.205  0.9180 -1.4872  2.2672
13814TIP3   OH262856   2.378   3.958   0.019  0.2633 -0.0486  0.4195
13814TIP3    H162857   2.289   3.994   0.031  0.7652  1.3965  0.0065
13814TIP3    H262858   2.395   3.910   0.101 -1.1376 -0.9199  0.2341
13815TIP3   OH262859   0.116   0.263  10.619  0.3221  0.2283  0.2049
13815TIP3    H162860   0.186   0.324  10.593  1.7351 -0.4876  2.0806
13815TIP3    H262861   0.048   0.319  10.655 -0.5326  1.0147 -2.4049
13816TIP3   OH262862   4.493   4.199   0.592  0.0247  0.6246 -0.0479
13816TIP3    H162863   4.503   4.243   0.676  1.5573  0.7872 -0.3006
13816TIP3    H262864   4.511   4.267   0.527  1.5235 -0.1186 -0.4520
13817TIP3   OH262865   1.353   0.267  15.124  0.1385 -0.1234  0.2310
13817TIP3    H162866   1.270   0.233  15.158  0.7385 -1.4471  0.4598
13817TIP3    H262867   1.380   0.334  15.187 -0.8860  0.5267 -0.0023
13818TIP3   OH262868   6.207   1.278  13.031 -0.3849 -0.4145  0.0138
13818TIP3    H162869   6.298   1.278  13.002 -0.4202  1.3263 -0.1507
13818TIP3    H262870   6.160   1.229  12.964  0.4079 -1.3308  0.1035
13819TIP3   OH262871   2.648   6.292   4.304  0.2704  0.2154  0.1074
13819TIP3    H162872   2.687   6.340   4.377 -0.3806  0.7822  0.0935
13819TIP3    H262873   2.573   6.345   4.277 -0.7763 -1.0409  0.4027
13820TIP3   OH262874   0.502   4.937  16.534 -0.0408 -0.2677 -0.3938
13820TIP3    H162875   0.493   4.858  16.587  0.6974 -1.3063 -1.7651
13820TIP3    H262876   0.519   5.006  16.597  0.7135 -1.4505  0.7566
13821TIP3   OH262877   1.498   2.008  17.048  0.3410 -0.2755  0.1497
13821TIP3    H162878   1.479   2.023  17.141  0.6613 -0.8860  0.3185
13821TIP3    H262879   1.427   1.951  17.018  1.4842 -2.0169  0.6192
13822TIP3   OH262880   3.875   0.346  12.950 -0.3489 -0.1170 -0.3752
13822TIP3    H162881   3.965   0.374  12.967  0.1707 -0.2145 -2.6155
13822TIP3    H262882   3.858   0.375  12.861 -2.8381  0.5356  0.2383
13823TIP3   OH262883   0.974   3.604  16.118  0.1803 -0.2947  0.6417
13823TIP3    H162884   0.907   3.580  16.181 -0.9675  0.8340 -0.1085
13823TIP3    H262885   0.946   3.563  16.036  1.0686 -0.8125  0.5718
13824TIP3   OH262886   3.621   6.032   5.319  0.9603 -0.1859 -0.7264
13824TIP3    H162887   3.685   5.965   5.340 -1.0682 -1.4807  1.9199
13824TIP3    H262888   3.623   6.092   5.393 -1.6830 -1.0192  0.1550
13825TIP3   OH262889   6.065   1.403   0.873 -0.3097 -0.0366 -0.5358
13825TIP3    H162890   6.036   1.403   0.965 -0.6409  0.4258 -0.6349
13825TIP3    H262891   6.047   1.315   0.842  0.3358 -0.3689  0.0108
13826TIP3   OH262892   1.405   6.263  14.786  0.5681 -0.1268  0.0636
13826TIP3    H162893   1.432   6.176  14.755 -2.0434 -1.0945  0.2526
13826TIP3    H262894   1.366   6.246  14.872  0.3093  1.2949  0.2470
13827TIP3   OH262895   3.387   6.003  11.231  0.1290  0.3886 -0.1127
13827TIP3    H162896   3.330   6.037  11.162  0.6907 -1.1382 -1.4000
13827TIP3    H262897   3.475   6.026  11.203  0.5135 -1.8361 -0.9391
13828TIP3   OH262898   4.955   5.566  16.310 -0.0253 -0.2690  0.4616
13828TIP3    H162899   4.970   5.528  16.223 -0.3353  1.3387 -0.3515
13828TIP3    H262900   5.030   5.537  16.362 -0.3522 -2.0986 -0.0202
13829TIP3   OH262901   2.934   0.074   4.314 -0.2281  0.0683  0.3122
13829TIP3    H162902   2.992   0.110   4.380  0.2257 -0.2601  0.0917
13829TIP3    H262903   2.899  -0.006   4.353  0.4804 -0.4309 -0.0597
13830TIP3   OH262904   3.206   4.815  12.527 -0.1731 -0.3136  0.6269
13830TIP3    H162905   3.280   4.861  12.568 -1.4631  1.4814  1.0714
13830TIP3    H262906   3.203   4.849  12.438  1.4320 -2.7732 -0.4588
13831TIP3   OH262907   0.816   4.733   1.086 -0.2896 -0.1558 -0.7248
13831TIP3    H162908   0.734   4.684   1.089 -0.5398  0.2621 -0.5500
13831TIP3    H262909   0.806   4.790   1.009  0.4295 -1.1105 -1.5484
13832TIP3   OH262910   6.709   1.086  14.698  0.3722  0.2488  0.3562
13832TIP3    H162911   6.752   1.095  14.613  0.4570  1.2289  0.4866
13832TIP3    H262912   6.668   1.000  14.696 -0.4831  0.6583 -1.0842
13833TIP3   OH262913   3.076   2.261  13.821 -0.1585  0.4703 -0.3018
13833TIP3    H162914   3.051   2.203  13.748  0.0754 -0.6682  0.4873
13833TIP3    H262915   2.997   2.266  13.875  0.4785 -1.0631  0.8583
13834TIP3   OH262916   6.498   3.090   2.894 -0.3225  0.5007 -0.3116
13834TIP3    H162917   6.569   3.047   2.942  0.3784  1.7329 -0.2189
13834TIP3    H262918   6.504   3.182   2.919 -1.6437  0.7170 -0.6991
13835TIP3   OH262919   3.151   0.561   3.087  0.3442 -0.0259 -0.6769
13835TIP3    H162920   3.110   0.626   3.144 -0.4935 -1.5263  0.5184
13835TIP3    H262921   3.122   0.585   2.999  0.0227  1.1758 -0.2664
13836TIP3   OH262922   1.409   5.018   4.723  0.6729 -0.3495  0.3361
13836TIP3    H162923   1.445   4.972   4.647  0.7245 -0.7041  0.5717
13836TIP3    H262924   1.415   5.111   4.700 -1.8446 -0.4974 -1.2436
13837TIP3   OH262925   6.797   0.827  14.793  0.3533 -0.2977 -0.3340
13837TIP3    H162926   6.833   0.905  14.837 -2.2143  1.4786 -1.1046
13837TIP3    H262927   6.834   0.830  14.705 -0.8698  1.0045 -0.8467
13838TIP3   OH262928   1.814   3.823  12.199 -0.6584 -0.2557 -0.2051
13838TIP3    H162929   1.851   3.791  12.281  0.5214  0.1420 -0.5661
13838TIP3    H262930   1.761   3.750  12.166 -0.0596 -0.9016  0.2459
13839TIP3   OH262931   0.165   4.752  14.204 -0.2652 -0.1907 -0.1367
13839TIP3    H162932   0.096   4.694  14.235 -0.1293  0.3091  1.1970
13839TIP3    H262933   0.156   4.752  14.109 -2.0166 -0.2464 -0.0047
13840TIP3   OH262934   6.600   2.184   4.009  0.1453  0.3142 -0.2991
13840TIP3    H162935   6.565   2.207   3.922  1.4297  3.2500 -0.1587
13840TIP3    H262936   6.694   2.173   3.995  0.4588  1.3771  0.7433
13841TIP3   OH262937   0.146   2.757   0.087 -0.4219 -0.5194  0.2493
13841TIP3    H162938   0.222   2.785   0.036 -1.9680  1.9165 -0.9051
13841TIP3    H262939   0.098   2.699   0.029 -0.3641 -0.6136  0.2955
13842TIP3   OH262940   3.938   3.246   2.776 -0.2012  0.0456 -0.4303
13842TIP3    H162941   4.006   3.313   2.769  0.6579 -0.8298 -0.6063
13842TIP3    H262942   3.961   3.197   2.855 -0.5365 -0.3546 -0.5784
13843TIP3   OH262943   4.893   1.179  16.612  0.1341 -0.0839 -0.1546
13843TIP3    H162944   4.880   1.125  16.690  2.9223 -0.6712  0.0236
13843TIP3    H262945   4.873   1.121  16.539  1.0398 -0.7388  0.0927
13844TIP3   OH262946   6.636   5.334  11.600  0.2510 -0.3439 -0.1099
13844TIP3    H162947   6.657   5.249  11.561  2.4979 -0.2926  0.8130
13844TIP3    H262948   6.633   5.394  11.526  1.1466 -0.8199 -0.5573
13845TIP3   OH262949   4.559   0.833  15.490  0.4045  0.0086 -0.0089
13845TIP3    H162950   4.587   0.811  15.402  0.3120 -0.3779  0.0565
13845TIP3    H262951   4.492   0.767  15.511  1.2950 -0.6776  0.8090
13846TIP3   OH262952   0.049   1.340  14.141  0.0122 -0.2860  0.3952
13846TIP3    H162953   0.065   1.288  14.063 -1.4296 -1.9554  1.1471
13846TIP3    H262954  -0.004   1.414  14.110 -0.7315 -1.0449 -0.1784
13847TIP3   OH262955   4.059   5.733   0.059 -0.0837  0.3448  0.0161
13847TIP3    H162956   4.066   5.825   0.034 -1.5725 -0.0768 -2.2473
13847TIP3    H262957   4.120   5.688   0.001 -0.8736 -0.2903 -0.3309
13848TIP3   OH262958   1.999   4.862   5.347 -0.2108 -0.4024  0.1644
13848TIP3    H162959   2.015   4.771   5.371 -1.5419 -0.8973 -0.6727
13848TIP3    H262960   2.067   4.912   5.393  0.7732 -1.8412  0.3437
13849TIP3   OH262961   6.219   5.439  13.707  0.3947  0.2131  0.0429
13849TIP3    H162962   6.278   5.432  13.632 -0.1336 -0.6506 -0.2949
13849TIP3    H262963   6.261   5.386  13.775  0.0756 -0.2937 -0.1550
13850TIP3   OH262964   6.493   0.686  14.602  0.1794 -0.2081  0.0348
13850TIP3    H162965   6.469   0.707  14.512  3.0296 -1.3084 -1.1056
13850TIP3    H262966   6.469   0.594  14.612  1.3113 -0.5302 -0.1628
13851TIP3   OH262967   6.104   3.475   5.851  0.7783  0.2752  0.2154
13851TIP3    H162968   6.143   3.413   5.789 -1.4717 -0.3942 -0.6204
13851TIP3    H262969   6.107   3.430   5.936 -0.9314 -1.1026 -0.4013
13852TIP3   OH262970   5.407   3.487  16.335 -0.1342  0.4027  0.5785
13852TIP3    H162971   5.420   3.580  16.350  2.1105  0.4466 -1.1511
13852TIP3    H262972   5.371   3.454  16.418 -0.0125  2.5915  1.5666
13853TIP3   OH262973   2.499   0.125   1.573  0.3879 -0.4032  0.2271
13853TIP3    H162974   2.534   0.036   1.570  2.7082  0.4790 -1.1290
13853TIP3    H262975   2.566   0.176   1.617  1.2520  1.4909 -3.0241
13854TIP3   OH262976   6.388   3.006   4.051  0.4057 -0.1950 -0.2927
13854TIP3    H162977   6.469   2.979   4.095 -0.0814  1.0504  1.4847
13854TIP3    H262978   6.356   3.081   4.102  0.7759  2.7108 -3.9315
13855TIP3   OH262979   5.664   1.628  14.877 -0.0127 -0.3856  0.2411
13855TIP3    H162980   5.760   1.627  14.874 -0.0195 -0.2106 -0.1108
13855TIP3    H262981   5.639   1.544  14.839 -0.0070 -0.1487 -0.3037
13856TIP3   OH262982   5.576   5.197   1.271 -0.0380 -0.1959  0.2797
13856TIP3    H162983   5.481   5.193   1.282  0.1533 -1.4318  1.8285
13856TIP3    H262984   5.591   5.273   1.214 -1.8760  0.5506  0.7385
13857TIP3   OH262985   6.131   6.782   3.637  0.3208 -0.0215  0.3960
13857TIP3    H162986   6.083   6.826   3.707 -0.2625  0.2116 -0.1429
13857TIP3    H262987   6.122   6.841   3.562 -0.7920 -1.2257 -0.4569
13858TIP3   OH262988   5.909   6.413  10.746 -0.5633 -0.5318 -0.2511
13858TIP3    H162989   5.816   6.434  10.746 -0.1440  1.6253 -1.1554
13858TIP3    H262990   5.914   6.325  10.707 -2.1689 -0.4439 -0.7383
13859TIP3   OH262991   0.949   2.199  16.067 -0.1533 -0.4061  0.7517
13859TIP3    H162992   0.908   2.238  15.990 -1.1026 -0.4659  1.2080
13859TIP3    H262993   0.875   2.175  16.124  0.3374 -3.1829  0.3556
13860TIP3   OH262994   5.999   0.719  16.424  0.3859  0.1887  0.3508
13860TIP3    H162995   5.936   0.791  16.420 -1.2360 -0.8979  3.4993
13860TIP3    H262996   6.078   0.759  16.459  1.1356  1.2697 -2.3021
13861TIP3   OH262997   4.412   0.094   0.411  0.8672  0.0587 -0.1751
13861TIP3    H162998   4.433   0.017   0.464  0.7958  1.4836  2.0965
13861TIP3    H262999   4.319   0.083   0.390  0.3526  0.3460  1.7334
13862TIP3   OH263000   0.506   2.025   6.027  0.0419 -0.2885 -0.0915
13862TIP3    H163001   0.574   2.073   5.980 -2.4795  0.6485 -3.1430
13862TIP3    H263002   0.500   2.069   6.112  1.3120  1.4477 -0.8372
13863TIP3   OH263003   5.888   5.548   5.923 -0.1193 -0.4308  0.2839
13863TIP3    H163004   5.884   5.463   5.968  0.0101 -0.9393 -0.6328
13863TIP3    H263005   5.902   5.525   5.831  0.9065  0.6187  0.1587
13864TIP3   OH263006   0.418   5.229   2.074 -0.4811 -0.0504  0.1137
13864TIP3    H163007   0.457   5.234   2.161 -0.8482  1.0042  0.2370
13864TIP3    H263008   0.493   5.223   2.015 -0.1971 -0.0259  0.4668
13865TIP3   OH263009   1.001   2.638  12.711 -0.0389 -0.3002 -0.3601
13865TIP3    H163010   1.041   2.625  12.625 -1.5465  1.7093 -1.4696
13865TIP3    H263011   1.020   2.730  12.732 -3.3128  0.5552 -0.6429
13866TIP3   OH263012   5.507   5.354  12.369 -0.8096 -0.3073  0.0252
13866TIP3    H163013   5.480   5.419  12.304  0.2264 -0.8899 -1.0117
13866TIP3    H263014   5.550   5.405  12.438  0.6073  0.0864 -1.1026
13867TIP3   OH263015   5.294   1.876   3.289  0.5824 -0.9072 -0.6223
13867TIP3    H163016   5.356   1.846   3.223  1.8740 -0.6062  0.4001
13867TIP3    H263017   5.300   1.972   3.286 -2.3687 -0.6603 -2.8077
13868TIP3   OH263018   5.347   1.822  17.147  0.4726  0.0454 -0.0305
13868TIP3    H163019   5.271   1.778  17.110 -0.2025  0.2282  1.0936
13868TIP3    H263020   5.367   1.892  17.085 -0.5208  0.2423 -0.1362
13869TIP3   OH263021   6.483   1.120  13.077 -0.3884 -0.2512  0.7798
13869TIP3    H163022   6.424   1.084  13.010 -0.1263  0.1933  0.3003
13869TIP3    H263023   6.555   1.157  13.027 -0.3048  0.3054  1.3046
13870TIP3   OH263024   1.604   5.432   2.785 -0.3442 -0.0169  0.0069
13870TIP3    H163025   1.527   5.375   2.776  0.7022 -1.3879 -0.5869
13870TIP3    H263026   1.655   5.392   2.855  0.2871  0.3513 -0.2408
13871TIP3   OH263027   2.401   4.371   6.231  0.4165  0.2965  0.0621
13871TIP3    H163028   2.461   4.417   6.172  0.2120 -0.9422 -1.1626
13871TIP3    H263029   2.320   4.421   6.227  0.7745  0.9039  0.2541
13872TIP3   OH263030   0.345   1.425  13.565 -0.2312  0.4265 -0.1726
13872TIP3    H163031   0.261   1.433  13.610  0.4773 -1.1755  1.5868
13872TIP3    H263032   0.356   1.331  13.551  2.5365  0.2419  2.3436
13873TIP3   OH263033   1.501   2.865  16.452 -0.6587  0.1063 -0.1885
13873TIP3    H163034   1.508   2.805  16.379 -1.1264  0.3925 -0.4721
13873TIP3    H263035   1.590   2.897  16.466 -0.8797  1.6155 -1.9645
13874TIP3   OH263036   6.236   1.626   4.223  0.2608  0.1512 -0.6273
13874TIP3    H163037   6.328   1.651   4.225 -0.4774  3.2949  0.8390
13874TIP3    H263038   6.197   1.681   4.155 -0.8006  0.0500 -0.1304
13875TIP3   OH263039   5.520   3.609   2.618  0.4574 -0.2870 -0.2702
13875TIP3    H163040   5.560   3.533   2.575 -0.5849 -1.8124  1.2945
13875TIP3    H263041   5.592   3.648   2.668  0.7376 -1.0792 -0.0209
13876TIP3   OH263042   1.268   3.855  11.186  0.5848  0.5336 -0.0935
13876TIP3    H163043   1.306   3.781  11.139 -1.6092 -1.0453  0.4456
13876TIP3    H263044   1.196   3.884  11.131 -1.1878 -0.4830  1.5497
13877TIP3   OH263045   0.405   3.768   3.216 -0.0591 -0.0909 -0.6028
13877TIP3    H163046   0.481   3.736   3.265  0.2179  0.7294 -0.4739
13877TIP3    H263047   0.330   3.735   3.265  0.2182  0.2610  0.0733
13878TIP3   OH263048   3.557   4.519  15.802 -0.2659 -0.2520 -0.1632
13878TIP3    H163049   3.466   4.501  15.778 -0.0464  1.1276 -2.2792
13878TIP3    H263050   3.554   4.604  15.845  0.0138 -0.1425 -0.3534
13879TIP3   OH263051   4.759   6.590   1.548 -0.1826  0.5960 -0.7280
13879TIP3    H163052   4.778   6.633   1.632  1.8675 -0.3950 -0.6239
13879TIP3    H263053   4.666   6.567   1.554 -0.3351  1.4713  0.8332
13880TIP3   OH263054   1.785   4.432  12.809  0.2760 -0.1950  0.1049
13880TIP3    H163055   1.800   4.396  12.897 -2.5246  0.3135  0.8704
13880TIP3    H263056   1.759   4.356  12.757  1.8870 -0.4875 -0.3501
13881TIP3   OH263057   3.261   5.983   3.791 -0.1875  0.1839 -0.5876
13881TIP3    H163058   3.192   6.037   3.829 -0.4939 -0.8773  0.4207
13881TIP3    H263059   3.341   6.011   3.836 -0.4837 -0.7784  0.5816
13882TIP3   OH263060   3.545   4.464  12.975 -0.5383 -0.6903 -0.1088
13882TIP3    H163061   3.566   4.550  13.013 -2.3756 -0.3366  0.1701
13882TIP3    H263062   3.600   4.403  13.023 -1.7018 -0.0760  2.1485
13883TIP3   OH263063   4.405   1.193   4.819  0.1877 -0.4655  0.1258
13883TIP3    H163064   4.490   1.224   4.852 -0.0193 -0.7878  0.9985
13883TIP3    H263065   4.410   1.098   4.827 -0.7101 -0.4366  1.4063
13884TIP3   OH263066   0.312   6.660  11.376 -0.0946 -0.1174  0.7990
13884TIP3    H163067   0.335   6.688  11.287  1.6779 -3.0470  0.2166
13884TIP3    H263068   0.327   6.738  11.429  0.0621  1.3564 -1.2790
13885TIP3   OH263069   3.096   0.784   2.668  0.2598  0.3280  0.2420
13885TIP3    H163070   3.144   0.851   2.620  0.8310  1.0250  1.7299
13885TIP3    H263071   3.012   0.825   2.688 -0.6503 -0.5573 -1.5463
13886TIP3   OH263072   6.111   1.017   1.774  0.5839  0.5359 -0.7283
13886TIP3    H163073   6.055   0.950   1.736 -0.6368  0.3911  1.1601
13886TIP3    H263074   6.179   1.032   1.709 -1.8488  1.0004 -3.3289
13887TIP3   OH263075   6.602   4.055   0.144  0.6547  0.9809 -0.6573
13887TIP3    H163076   6.507   4.054   0.131  0.6455  0.7203 -0.5684
13887TIP3    H263077   6.621   3.974   0.192  0.7015  1.8419  0.8397
13888TIP3   OH263078   5.958   3.714  12.772  0.4031 -0.5070 -0.5156
13888TIP3    H163079   6.041   3.668  12.787  0.5084 -0.4203 -0.8443
13888TIP3    H263080   5.894   3.662  12.821  0.3243 -1.6607 -1.7905
13889TIP3   OH263081   4.557   5.571   3.035 -0.5329 -0.0091  0.2698
13889TIP3    H163082   4.486   5.518   2.998 -1.6618  2.8938 -2.0722
13889TIP3    H263083   4.514   5.653   3.062  1.5604  0.8465  1.2166
13890TIP3   OH263084   5.999   5.499   2.773  0.8761 -0.4634 -0.1009
13890TIP3    H163085   6.022   5.451   2.853  0.5983  0.9658  0.8597
13890TIP3    H263086   6.070   5.561   2.760 -0.4140  1.2309  0.6373
13891TIP3   OH263087   6.053   6.107   2.142 -0.3837  0.0565  0.3568
13891TIP3    H163088   6.119   6.056   2.095 -0.0795 -0.2359  1.0797
13891TIP3    H263089   6.017   6.045   2.206 -2.1193 -0.1199 -0.7070
13892TIP3   OH263090   1.519   3.203  11.469  0.2106 -0.1434 -0.3595
13892TIP3    H163091   1.614   3.199  11.463  0.1968 -0.6623 -0.2313
13892TIP3    H263092   1.493   3.116  11.499 -0.2522  0.1811  0.2130
13893TIP3   OH263093   5.001   4.357  15.456 -0.7535 -0.1992  0.1493
13893TIP3    H163094   5.044   4.288  15.506 -1.2572 -2.1108 -1.9210
13893TIP3    H263095   5.025   4.339  15.365  0.9102  3.6705 -0.3807
13894TIP3   OH263096   0.152   3.031   6.348  0.3618 -0.6036 -0.4011
13894TIP3    H163097   0.100   2.993   6.418  0.5005 -1.3247 -0.6814
13894TIP3    H263098   0.231   2.977   6.343  0.5234 -0.3374 -0.8697
13895TIP3   OH263099   6.110   1.497  12.666 -0.0212 -0.4601  0.5391
13895TIP3    H163100   6.054   1.574  12.653  1.9943  1.4470  2.2749
13895TIP3    H263101   6.190   1.517  12.618  1.0885 -0.7649  2.1890
13896TIP3   OH263102   4.319   1.923  14.820 -0.1717 -0.2563 -0.1654
13896TIP3    H163103   4.407   1.887  14.836  0.8711  1.1937 -2.1907
13896TIP3    H263104   4.336   2.010  14.784 -2.4912  0.2017 -0.2514
13897TIP3   OH263105   4.977   0.295  15.286 -0.1942 -0.1376  0.3233
13897TIP3    H163106   5.052   0.355  15.279  0.4444 -0.8983  0.4904
13897TIP3    H263107   5.011   0.211  15.257 -0.4524 -0.9222  2.1818
13898TIP3   OH263108   1.270   0.579   5.895 -0.3878  0.1841 -0.5334
13898TIP3    H163109   1.346   0.536   5.932 -1.1331 -0.7408 -0.0539
13898TIP3    H263110   1.235   0.633   5.966  0.5157  1.6038 -1.1149
13899TIP3   OH263111   0.679   6.060   2.766  0.1099  0.3444  0.1849
13899TIP3    H163112   0.706   5.975   2.802  1.3970  1.1504  1.1913
13899TIP3    H263113   0.588   6.070   2.794 -0.2744 -0.9728 -0.4924
13900TIP3   OH263114   4.649   0.024  15.729 -0.6315 -0.2014 -0.3184
13900TIP3    H163115   4.580   0.076  15.772 -0.4975 -0.2822 -0.0034
13900TIP3    H263116   4.710   0.089  15.695  0.1664 -0.1648  1.1207
13901TIP3   OH263117   0.372   2.548  10.654  0.5493 -0.3303  0.4734
13901TIP3    H163118   0.434   2.495  10.604  0.7920 -0.8086  1.2643
13901TIP3    H263119   0.302   2.487  10.677 -0.4648  0.3017 -0.7857
13902TIP3   OH263120   4.363   4.667   1.748 -0.4022  0.0355  0.6661
13902TIP3    H163121   4.340   4.741   1.693  0.7761 -0.1574 -0.1280
13902TIP3    H263122   4.446   4.691   1.788 -0.3229 -0.5943  0.9019
13903TIP3   OH263123   0.669   1.855  14.447 -0.9086  0.1782  0.6562
13903TIP3    H163124   0.579   1.887  14.457 -1.2739 -0.2762 -0.9790
13903TIP3    H263125   0.660   1.762  14.430 -0.0082 -0.2098  2.1215
13904TIP3   OH263126   5.209   3.250   4.512 -0.4681  0.7710 -0.2161
13904TIP3    H163127   5.133   3.197   4.489 -1.3464  2.5400 -1.6501
13904TIP3    H263128   5.174   3.322   4.563  0.9407 -0.7881  3.2796
13905TIP3   OH263129   2.174   3.907   2.096 -0.0383  0.5970  0.6109
13905TIP3    H163130   2.250   3.849   2.105 -0.5257 -0.0835  0.4232
13905TIP3    H263131   2.209   3.994   2.112  1.4431  0.6795 -2.4146
13906TIP3   OH263132   2.505   5.871   5.035  0.5013  0.6675  0.3059
13906TIP3    H163133   2.558   5.918   5.099  0.3677  2.5758 -0.8764
13906TIP3    H263134   2.425   5.923   5.028 -0.5545 -0.8965  0.3993
13907TIP3   OH263135   2.808   5.015  12.118 -0.2745 -0.2996 -0.4634
13907TIP3    H163136   2.843   4.985  12.034 -0.5721  1.5556 -1.3131
13907TIP3    H263137   2.883   5.015  12.177  0.3116 -0.0712 -1.1942
13908TIP3   OH263138   3.708   5.858  14.792  0.1883 -0.7356 -0.5917
13908TIP3    H163139   3.739   5.782  14.842 -1.3157 -1.8185 -1.2126
13908TIP3    H263140   3.613   5.846  14.788 -0.3177  2.0377  0.6290
13909TIP3   OH263141   0.770   4.027   1.700 -0.1436 -0.0231  0.3681
13909TIP3    H163142   0.707   4.033   1.629  0.9143 -1.2376 -0.7269
13909TIP3    H263143   0.846   4.076   1.668  0.9193 -1.8557 -0.0517
13910TIP3   OH263144   2.326   3.788  14.628  0.2481 -0.3316 -0.1090
13910TIP3    H163145   2.280   3.825  14.553  0.5936 -0.5931 -0.4523
13910TIP3    H263146   2.275   3.817  14.704  0.3935  0.6781 -0.3794
13911TIP3   OH263147   3.377   3.307   0.381 -0.3168 -0.3017  0.3436
13911TIP3    H163148   3.314   3.348   0.323  0.5920 -0.7081 -0.9585
13911TIP3    H263149   3.396   3.222   0.340 -0.0464 -0.8270  1.5031
13912TIP3   OH263150   0.669   5.366  15.711 -1.1257 -0.8012  0.0628
13912TIP3    H163151   0.714   5.352  15.795 -0.5367 -1.7732 -0.3922
13912TIP3    H263152   0.663   5.278  15.673 -0.4349 -0.2440 -1.3885
13913TIP3   OH263153   2.357   2.628   0.300  0.7544  0.0366 -0.2922
13913TIP3    H163154   2.320   2.690   0.362  0.4856 -1.2144  0.8589
13913TIP3    H263155   2.396   2.682   0.232 -0.8372  1.4240 -0.1568
13914TIP3   OH263156   1.734   3.684   1.654 -0.6255  0.4792  0.0400
13914TIP3    H163157   1.698   3.624   1.589 -0.3683  0.3093  0.0541
13914TIP3    H263158   1.721   3.640   1.738  2.1562 -0.9087 -0.1554
13915TIP3   OH263159   5.894   1.170   1.565 -0.3140  0.2032  0.6029
13915TIP3    H163160   5.987   1.160   1.544 -0.5310 -0.3739 -0.1242
13915TIP3    H263161   5.850   1.176   1.480 -0.8900  1.0121  0.9507
13916TIP3   OH263162   3.911   3.948  13.522  0.2219  0.5691 -0.3796
13916TIP3    H163163   3.966   4.024  13.501  1.3853 -0.6757 -2.1063
13916TIP3    H263164   3.854   3.939  13.445 -0.0865 -0.1581 -0.0684
13917TIP3   OH263165   0.769   1.890  16.556  0.2527  0.3649  0.5327
13917TIP3    H163166   0.802   1.883  16.646  0.9820 -0.0561  0.2395
13917TIP3    H263167   0.839   1.934  16.508 -0.1197  0.5531  0.1545
13918TIP3   OH263168   6.187   1.143   5.696  0.1452 -0.4085  0.7155
13918TIP3    H163169   6.186   1.111   5.606  0.1085  0.2795  0.4676
13918TIP3    H263170   6.238   1.078   5.744  0.1420 -0.7914  0.2025
13919TIP3   OH263171   4.845   4.261  14.946 -0.9705  0.1021 -0.3207
13919TIP3    H163172   4.802   4.256  14.861  0.1351 -0.6393 -0.8585
13919TIP3    H263173   4.926   4.310  14.929 -0.7519 -0.0366  0.3052
13920TIP3   OH263174   1.540   2.251   3.745 -0.5174 -0.0761 -0.5126
13920TIP3    H163175   1.582   2.221   3.664  0.9877 -1.7423  0.8028
13920TIP3    H263176   1.454   2.211   3.744  0.0599 -1.3634 -0.5978
13921TIP3   OH263177   2.394   5.201   0.454 -0.3352 -0.9305 -0.2006
13921TIP3    H163178   2.367   5.168   0.368 -0.2693 -2.5871  0.3711
13921TIP3    H263179   2.486   5.226   0.443 -1.0013  1.3183 -1.2279
13922TIP3   OH263180   1.822   4.622   1.877 -0.7096  0.2930  0.0289
13922TIP3    H163181   1.822   4.614   1.781 -0.4691 -1.5283  0.1541
13922TIP3    H263182   1.731   4.639   1.899 -0.7128  1.0920 -0.5335
13923TIP3   OH263183   2.589   4.710   6.271  0.1971  0.1274  0.7331
13923TIP3    H163184   2.544   4.686   6.352  1.3777  0.2947  1.4523
13923TIP3    H263185   2.580   4.633   6.215 -1.1232  0.2211  0.7802
13924TIP3   OH263186   4.750   5.423   2.643  0.4316  0.4639 -0.2787
13924TIP3    H163187   4.808   5.364   2.596 -1.0755 -1.0108 -0.3809
13924TIP3    H263188   4.771   5.410   2.736 -1.4313 -2.0613 -0.1216
13925TIP3   OH263189   3.355   2.672   4.315  0.5786  0.5033 -0.0096
13925TIP3    H163190   3.362   2.586   4.358 -1.2958  0.6931  0.7766
13925TIP3    H263191   3.268   2.671   4.275  1.2226  1.3948 -1.5072
13926TIP3   OH263192   1.621   6.661   4.515 -0.2837  0.3346 -0.3841
13926TIP3    H163193   1.685   6.614   4.461 -0.0913  0.3668 -0.1858
13926TIP3    H263194   1.670   6.686   4.593 -0.3983  0.8308 -0.4682
13927TIP3   OH263195   4.114   0.869  13.012  0.1112 -0.2656  0.4836
13927TIP3    H163196   4.019   0.860  12.998  0.0188  0.6971  0.4378
13927TIP3    H263197   4.145   0.918  12.936  0.5160  0.1247  0.8967
13928TIP3   OH263198   3.997   0.188  15.251 -0.4499 -0.1100  0.3778
13928TIP3    H163199   3.960   0.100  15.255  0.8768 -0.6544  1.7111
13928TIP3    H263200   4.067   0.181  15.186 -2.9842  1.1207 -2.7613
13929TIP3   OH263201   5.397   4.926   3.027  0.0775  0.2739  0.1260
13929TIP3    H163202   5.357   5.010   3.005  1.7372  0.7800 -1.2142
13929TIP3    H263203   5.340   4.861   2.984 -2.0309  0.5129  2.3555
13930TIP3   OH263204   0.148   1.216   4.368 -0.2700  0.0262  0.5350
13930TIP3    H163205   0.067   1.184   4.328 -0.0624  0.1387  0.0154
13930TIP3    H263206   0.125   1.229   4.460 -0.7629 -0.2144  0.4531
13931TIP3   OH263207   3.631   5.583   1.828  0.4071 -0.4778  0.0450
13931TIP3    H163208   3.720   5.571   1.796  0.3913  0.1934 -0.2833
13931TIP3    H263209   3.631   5.672   1.864 -0.1656 -0.4151 -0.1016
13932TIP3   OH263210   2.458   6.554  15.613  0.4301  0.0256  0.2860
13932TIP3    H163211   2.536   6.537  15.559 -0.0781 -0.1207 -0.4254
13932TIP3    H263212   2.489   6.609  15.684  0.8239  1.6350 -1.0596
13933TIP3   OH263213   3.502   1.854  11.105 -0.2175 -0.0191 -0.5678
13933TIP3    H163214   3.478   1.923  11.166 -2.4354 -1.5800  0.4762
13933TIP3    H263215   3.475   1.887  11.019  3.8413  2.6130 -1.0666
13934TIP3   OH263216   2.252   4.042   0.812  0.2109 -0.0631 -0.1236
13934TIP3    H163217   2.240   4.128   0.772  2.7865  0.0995 -0.7332
13934TIP3    H263218   2.266   4.061   0.905  1.7377  0.3404 -0.3996
13935TIP3   OH263219   3.558   3.189   3.813  0.8238 -0.2196  0.4331
13935TIP3    H163220   3.521   3.257   3.757  1.0606 -0.9557 -0.6343
13935TIP3    H263221   3.539   3.219   3.902 -3.0088 -0.9039 -0.0131
13936TIP3   OH263222   5.139   2.254   5.238 -0.2532 -0.1247 -0.5541
13936TIP3    H163223   5.102   2.166   5.224  1.1954 -0.6525 -1.2590
13936TIP3    H263224   5.066   2.313   5.219 -0.9259 -1.1347 -1.2833
13937TIP3   OH263225   6.015   3.383  16.402  0.5116  0.1264  0.5170
13937TIP3    H163226   6.104   3.415  16.392  0.7045 -0.1509  1.2918
13937TIP3    H263227   6.018   3.327  16.479 -0.8462  2.0768  2.0992
13938TIP3   OH263228   2.103   5.187   2.978  0.0149  0.1206  0.2959
13938TIP3    H163229   2.008   5.193   2.982 -0.1139 -1.9266  1.4660
13938TIP3    H263230   2.133   5.274   3.006 -1.4901  0.7119  0.1701
13939TIP3   OH263231   3.089   4.867   1.165  0.3468  0.3887  0.5226
13939TIP3    H163232   3.023   4.873   1.096 -0.0414 -0.5851  0.7889
13939TIP3    H263233   3.086   4.952   1.208 -0.7666  0.3519  0.5519
13940TIP3   OH263234   2.839   3.319  13.633 -0.3138 -0.4368  0.1596
13940TIP3    H163235   2.929   3.321  13.600 -0.1757  0.9716  0.5869
13940TIP3    H263236   2.785   3.322  13.554  0.0150  0.0598 -0.0496
13941TIP3   OH263237   4.730   4.987  12.013 -0.0236 -0.8367  0.1085
13941TIP3    H163238   4.761   4.934  12.086  0.2919 -1.9635 -0.8101
13941TIP3    H263239   4.703   4.923  11.947  0.3830  0.1435 -1.0473
13942TIP3   OH263240   1.425   6.406   2.193  0.0909 -0.3139  0.3363
13942TIP3    H163241   1.450   6.394   2.285  0.4801 -1.5809  0.0879
13942TIP3    H263242   1.333   6.379   2.189  0.0960 -0.3319  0.3394
13943TIP3   OH263243   3.818   6.059  12.073  0.2678  0.5372  0.2046
13943TIP3    H163244   3.725   6.040  12.064  0.2380  0.0020  1.4580
13943TIP3    H263245   3.858   5.973  12.091  1.0247  0.7324 -0.4914
13944TIP3   OH263246   2.997   0.304   2.298 -0.0599 -0.1004  0.2178
13944TIP3    H163247   2.955   0.219   2.284 -0.7107  0.2726 -0.1444
13944TIP3    H263248   2.925   0.363   2.320  0.0690  0.8410 -1.6790
13945TIP3   OH263249   6.442   5.103  16.102  0.3221 -0.3960  0.2693
13945TIP3    H163250   6.392   5.104  16.020  1.1215 -0.6622 -0.2330
13945TIP3    H263251   6.406   5.028  16.150 -0.1589 -0.2317  0.1738
13946TIP3   OH263252   4.217   5.838   0.311  0.4094 -0.7220  0.1177
13946TIP3    H163253   4.280   5.836   0.239  0.3816  1.0231  0.0171
13946TIP3    H263254   4.145   5.892   0.279 -0.2227 -1.0272  0.9794
13947TIP3   OH263255   4.442   6.709   5.678  0.2241 -0.2658 -0.2247
13947TIP3    H163256   4.501   6.764   5.729  0.4594 -1.1343  0.4600
13947TIP3    H263257   4.400   6.652   5.743 -0.2433 -0.6858 -0.8830
13948TIP3   OH263258   0.359   3.253   5.794  0.5930 -0.1623  0.1885
13948TIP3    H163259   0.345   3.168   5.837 -0.7175 -0.6724 -1.1356
13948TIP3    H263260   0.310   3.315   5.847  2.8523  0.1453  2.1041
13949TIP3   OH263261   1.824   4.988   3.882 -0.1567  0.1100  0.6679
13949TIP3    H163262   1.799   5.069   3.926 -0.7536  1.8672 -2.6014
13949TIP3    H263263   1.760   4.977   3.813  2.6320 -0.4508 -2.0552
13950TIP3   OH263264   1.187   1.887   0.246 -0.0556  0.2660 -0.5423
13950TIP3    H163265   1.235   1.849   0.320  0.5507 -1.6217 -1.8263
13950TIP3    H263266   1.237   1.966   0.225  0.3576  0.2884  0.4180
13951TIP3   OH263267   1.605   5.695   5.295 -0.1831 -0.2983  0.2142
13951TIP3    H163268   1.631   5.765   5.234 -0.7145 -0.4204 -0.1535
13951TIP3    H263269   1.632   5.728   5.381  0.2693  0.0221 -0.0445
13952TIP3   OH263270   5.259   0.647   2.173  0.1085 -0.6964  0.2963
13952TIP3    H163271   5.291   0.600   2.097  0.5199 -0.6418  0.4356
13952TIP3    H263272   5.218   0.726   2.137  1.8872  0.2488  0.2206
13953TIP3   OH263273   4.029   2.067   3.325 -0.5879 -0.4552 -0.8300
13953TIP3    H163274   4.014   2.093   3.416 -0.2593 -0.7240 -0.6973
13953TIP3    H263275   4.066   2.145   3.283  0.4936 -0.7256 -0.4085
13954TIP3   OH263276   6.451   4.581   3.400  0.1674  0.4755  0.0039
13954TIP3    H163277   6.451   4.672   3.432 -0.7401  0.5429 -0.1527
13954TIP3    H263278   6.473   4.588   3.308 -0.6450  0.6250 -0.1910
13955TIP3   OH263279   0.261   0.060  16.475 -0.6698  0.3493 -0.1235
13955TIP3    H163280   0.336   0.113  16.447 -1.8836  1.7247 -0.9570
13955TIP3    H263281   0.298  -0.007  16.531  1.3601  0.1482 -1.5969
13956TIP3   OH263282   3.137   2.385  11.098 -0.1239  0.4602 -0.1291
13956TIP3    H163283   3.046   2.357  11.096 -0.2137  0.6932  0.5430
13956TIP3    H263284   3.147   2.440  11.020 -0.0859 -0.9740 -1.1778
13957TIP3   OH263285   2.292   5.195  11.032 -0.1573 -1.1008 -0.5925
13957TIP3    H163286   2.281   5.282  10.992 -0.7411 -1.2774 -0.8128
13957TIP3    H263287   2.259   5.134  10.967 -3.3612 -1.2628  1.0348
13958TIP3   OH263288   2.512   3.125   5.025  0.1275  0.2991  0.1198
13958TIP3    H163289   2.451   3.082   4.965  0.1586  1.5429 -0.8704
13958TIP3    H263290   2.541   3.056   5.084  0.3040 -1.0763 -1.4795
13959TIP3   OH263291   2.202   3.429   2.248  0.1664 -0.2793 -0.4579
13959TIP3    H163292   2.117   3.468   2.264  0.8248  1.0945 -0.1228
13959TIP3    H263293   2.192   3.337   2.275 -0.8335  0.1804  0.8568
13960TIP3   OH263294   6.100   3.118   2.242  0.2117  0.2592 -0.4588
13960TIP3    H163295   6.125   3.026   2.240 -1.7751 -0.3470  0.3753
13960TIP3    H263296   6.037   3.124   2.314 -0.4055  2.0842 -1.1025
13961TIP3   OH263297   2.785   5.217  12.887  0.6491  0.3358  0.0402
13961TIP3    H163298   2.703   5.262  12.908  0.3655 -0.4232  0.5987
13961TIP3    H263299   2.764   5.165  12.809  0.4939 -0.1177  0.3782
13962TIP3   OH263300   3.581   6.669   1.859  0.4179  0.3115  0.0856
13962TIP3    H163301   3.633   6.613   1.802 -1.3436 -1.6434  0.2479
13962TIP3    H263302   3.497   6.678   1.814 -0.1515  0.8105  1.1970
13963TIP3   OH263303   2.431   2.179  15.798 -0.2549 -0.1641  0.0680
13963TIP3    H163304   2.458   2.270  15.808  0.2210 -0.5087  2.6887
13963TIP3    H263305   2.472   2.150  15.717  1.4195  1.3347  0.3155
13964TIP3   OH263306   6.314   2.336   2.757  0.5425  0.2302  0.6697
13964TIP3    H163307   6.311   2.417   2.707  1.5443  0.2071  0.5687
13964TIP3    H263308   6.354   2.272   2.698 -0.2847 -0.3687  0.7278
13965TIP3   OH263309   4.415   3.845  14.172 -0.2178  0.1929 -0.1902
13965TIP3    H163310   4.349   3.783  14.143  0.1954  0.6538 -2.2366
13965TIP3    H263311   4.386   3.872  14.259 -2.2960 -0.1724 -0.7284
13966TIP3   OH263312   5.746   5.423   2.803 -0.3014 -0.4150 -0.0999
13966TIP3    H163313   5.706   5.509   2.795 -0.5364 -0.3128  1.7118
13966TIP3    H263314   5.840   5.438   2.794 -0.4328 -0.1675 -1.0791
13967TIP3   OH263315   5.145   2.691   5.531  0.1264  0.5655  0.0658
13967TIP3    H163316   5.134   2.698   5.626  1.3318 -0.0650  0.2724
13967TIP3    H263317   5.226   2.641   5.520 -0.3350  0.0735 -1.2973
13968TIP3   OH263318   2.305   5.056  14.323 -0.0024 -0.3862 -0.2518
13968TIP3    H163319   2.225   5.024  14.365 -0.1543 -0.8795 -0.9003
13968TIP3    H263320   2.316   5.145  14.357 -1.1892 -0.0765 -0.6551
13969TIP3   OH263321   0.121   0.160   5.445 -0.5773 -0.7368  0.2360
13969TIP3    H163322   0.213   0.153   5.469 -0.6038 -1.9398  0.0467
13969TIP3    H263323   0.120   0.147   5.350 -0.5300  3.3976 -0.5133
13970TIP3   OH263324   1.832   4.260  15.707 -0.2302 -0.2584 -0.0924
13970TIP3    H163325   1.906   4.222  15.754 -1.1307 -2.8247 -0.5900
13970TIP3    H263326   1.755   4.217  15.744 -2.0518  4.6632  2.7720
13971TIP3   OH263327   3.554   5.688   5.674 -0.5920  0.1720  0.4809
13971TIP3    H163328   3.546   5.783   5.674  1.2576  0.3859  2.0218
13971TIP3    H263329   3.622   5.670   5.738  0.0766 -2.1204 -0.7793
13972TIP3   OH263330   5.119   3.568   2.613 -0.1448 -0.5564 -0.1016
13972TIP3    H163331   5.123   3.659   2.583 -1.3944 -0.5330 -0.2405
13972TIP3    H263332   5.194   3.559   2.672  0.5531  0.2773 -0.8390
13973TIP3   OH263333   2.888   1.956  14.941  0.1426  0.3487  0.2852
13973TIP3    H163334   2.846   1.985  14.860 -0.9576  1.0484  1.0866
13973TIP3    H263335   2.959   2.019  14.955  1.6325 -0.9063 -1.1344
13974TIP3   OH263336   1.864   1.809   6.264 -0.1968  0.1428 -0.0563
13974TIP3    H163337   1.778   1.846   6.244  0.0593  1.0560  0.4784
13974TIP3    H263338   1.921   1.886   6.274  0.8530 -0.4583 -1.1631
13975TIP3   OH263339   5.106   0.770   2.568 -0.1737 -0.4755 -0.5990
13975TIP3    H163340   5.043   0.712   2.524  0.0106  0.5448 -2.3156
13975TIP3    H263341   5.172   0.788   2.501  0.9693 -0.0598  0.6099
13976TIP3   OH263342   5.903   6.118   5.394 -0.0915 -0.0028  0.1003
13976TIP3    H163343   5.907   6.043   5.334 -4.0406  0.2838 -0.8080
13976TIP3    H263344   5.893   6.078   5.481  0.8414 -0.4771 -0.0033
13977TIP3   OH263345   1.469   3.099   5.755  0.1481 -0.4794  0.6265
13977TIP3    H163346   1.456   3.008   5.728 -1.6297 -0.3552  0.9554
13977TIP3    H263347   1.491   3.094   5.848  0.6551 -0.5970  0.5026
13978TIP3   OH263348   5.793   1.905  15.046 -0.0096 -0.1584  0.3110
13978TIP3    H163349   5.760   1.905  14.956  0.2406  1.6200  0.1896
13978TIP3    H263350   5.747   1.833  15.088 -2.9044  1.2125 -0.2638
13979TIP3   OH263351   0.274   1.778  15.283  0.0357  0.0528 -0.2236
13979TIP3    H163352   0.228   1.703  15.246 -0.5343 -0.1126  0.7776
13979TIP3    H263353   0.309   1.825  15.207 -1.1727 -0.2106 -0.9671
13980TIP3   OH263354   5.598   2.606  14.755 -0.2995  0.1336 -0.4102
13980TIP3    H163355   5.535   2.584  14.823  0.6576 -0.2251  0.3942
13980TIP3    H263356   5.674   2.550  14.773 -0.0682 -0.0727 -1.8628
13981TIP3   OH263357   0.716   6.460   2.172  0.1879 -0.3242  0.3567
13981TIP3    H163358   0.637   6.462   2.118 -0.0069 -1.3979  0.5890
13981TIP3    H263359   0.753   6.373   2.158  1.4835  0.2452  0.0487
13982TIP3   OH263360   5.605   6.795   2.869 -0.1890  0.0607  0.2183
13982TIP3    H163361   5.531   6.738   2.889 -0.9497  1.0508  0.3385
13982TIP3    H263362   5.594   6.870   2.928 -0.5697  1.4410 -1.5208
13983TIP3   OH263363   0.465   0.721   5.672  0.0520 -0.4503 -0.1105
13983TIP3    H163364   0.560   0.711   5.669  0.1226  0.2713 -0.3617
13983TIP3    H263365   0.451   0.803   5.720 -0.3603  0.6470 -2.0095
13984TIP3   OH263366   4.860   5.438   4.232  0.1895 -0.4501  0.2557
13984TIP3    H163367   4.951   5.412   4.226  0.2799 -0.4772  1.4513
13984TIP3    H263368   4.812   5.373   4.180  0.8523 -0.3312 -0.5199
13985TIP3   OH263369   1.022   3.080   3.957 -0.3288 -0.2811  0.0152
13985TIP3    H163370   0.975   2.998   3.942  0.6247 -1.4316  2.7445
13985TIP3    H263371   0.978   3.121   4.031 -0.5012  1.5002 -1.0125
13986TIP3   OH263372   5.491   2.414   2.499  0.1090  0.4324  0.0286
13986TIP3    H163373   5.471   2.473   2.425 -0.4170  0.7382  0.4026
13986TIP3    H263374   5.494   2.327   2.460 -1.2480  0.4611 -0.1954
13987TIP3   OH263375   3.830   6.190   5.181  0.7556  0.2437  0.2990
13987TIP3    H163376   3.810   6.153   5.267 -2.7466  1.1736  0.0688
13987TIP3    H263377   3.869   6.118   5.132  2.1964 -0.5048  2.4031
13988TIP3   OH263378   0.970   6.220   5.698 -0.3748 -0.0001  0.6908
13988TIP3    H163379   1.001   6.215   5.788 -0.7307  1.1059  0.8881
13988TIP3    H263380   0.940   6.310   5.687  1.1010  0.3528 -1.0143
13989TIP3   OH263381   1.514   5.056   3.831  0.2463  0.0629  0.0687
13989TIP3    H163382   1.500   4.973   3.786  1.9786 -0.7624  0.9474
13989TIP3    H263383   1.452   5.117   3.790  0.1748 -1.1976 -1.8053
13990TIP3   OH263384   4.301   0.244  13.283  0.6796 -0.3457 -0.1181
13990TIP3    H163385   4.221   0.236  13.231  0.2659 -0.3082  0.4994
13990TIP3    H263386   4.356   0.172  13.253  0.5642 -0.1514 -0.8064
13991TIP3   OH263387   1.105   3.160   2.997 -0.0366 -0.1838 -0.0449
13991TIP3    H163388   1.141   3.129   2.915 -0.4715 -0.7928 -0.0065
13991TIP3    H263389   1.039   3.095   3.022  0.7824 -0.5485  1.2903
13992TIP3   OH263390   6.015   6.448   0.985  0.1337 -0.0594 -0.0644
13992TIP3    H163391   5.958   6.448   0.908  1.2594 -1.4339 -0.9679
13992TIP3    H263392   6.014   6.357   1.014 -0.8459  0.5749  2.0287
13993TIP3   OH263393   5.480   3.612  12.078 -0.2695 -0.2929  0.2717
13993TIP3    H163394   5.506   3.655  11.997  0.8850  0.1693  0.8687
13993TIP3    H263395   5.548   3.635  12.141 -0.0704 -2.2678  0.8622
13994TIP3   OH263396   3.992   2.252  13.738  0.2160 -0.4442 -0.1942
13994TIP3    H163397   4.087   2.249  13.727  0.0715 -1.2796 -1.4244
13994TIP3    H263398   3.962   2.305  13.664 -0.1324  1.7760  1.4575
13995TIP3   OH263399   4.728   4.758  14.408 -0.1461  0.2026 -0.3145
13995TIP3    H163400   4.660   4.766  14.341 -0.1601  0.8843 -0.2292
13995TIP3    H263401   4.809   4.743  14.359  0.0054  1.6704 -0.5567
13996TIP3   OH263402   5.088   4.538  15.195  0.1492  0.2539  0.5419
13996TIP3    H163403   5.164   4.548  15.252  0.2683 -0.0840  0.4475
13996TIP3    H263404   5.126   4.522  15.108 -0.0282  0.2180  0.4714
13997TIP3   OH263405   6.390   5.888   1.809 -0.2698 -0.2974 -0.4482
13997TIP3    H163406   6.409   5.809   1.858  3.0390  1.0828  0.8368
13997TIP3    H263407   6.315   5.927   1.853 -0.3741 -1.4974  0.4795
13998TIP3   OH263408   0.521   4.320  14.484  0.1013 -0.2565  0.6457
13998TIP3    H163409   0.556   4.281  14.564  2.4256  0.3417 -0.0041
13998TIP3    H263410   0.591   4.309  14.420 -1.2850  0.2608 -1.0128
13999TIP3   OH263411   1.607   0.020   4.981  0.1678 -0.1031  0.5082
13999TIP3    H163412   1.634   0.044   5.070 -2.7726 -1.3855  1.8932
13999TIP3    H263413   1.549   0.092   4.954  0.4824 -0.0755 -0.1120
14000TIP3   OH263414   2.801   6.407   4.522 -0.3954 -0.2200  0.0718
14000TIP3    H163415   2.794   6.419   4.617  2.3413  0.3542  0.2789
14000TIP3    H263416   2.886   6.364   4.510 -1.3429 -1.6477 -2.0575
14001TIP3   OH263417   2.750   5.467   2.666 -0.1681  0.3681 -0.2287
14001TIP3    H163418   2.805   5.466   2.744 -0.2658 -4.1443  0.0368
14001TIP3    H263419   2.796   5.410   2.604 -1.2879  1.9311 -2.6466
14002TIP3   OH263420   1.650   6.795  16.577  0.3608  0.3769 -0.7370
14002TIP3    H163421   1.636   6.732  16.647  0.2710 -0.1581 -1.2276
14002TIP3    H263422   1.739   6.829  16.592 -0.1669  1.3053  0.4350
14003TIP3   OH263423   2.919   4.349  16.783 -0.4171 -0.1882 -0.2176
14003TIP3    H163424   2.948   4.433  16.748 -1.4261  0.2107 -0.1489
14003TIP3    H263425   2.835   4.369  16.825 -0.1489 -1.0197  0.7562
14004TIP3   OH263426   1.578   5.802   1.658 -0.0528  0.5109 -0.1084
14004TIP3    H163427   1.540   5.881   1.698 -2.0866  0.0269 -0.9576
14004TIP3    H263428   1.553   5.731   1.717  0.3692  0.2939 -0.1892
14005TIP3   OH263429   5.253   1.805   5.317 -0.6915  0.4381  0.0552
14005TIP3    H163430   5.232   1.880   5.262  1.9918  0.0862 -1.6165
14005TIP3    H263431   5.217   1.730   5.271 -0.3337  0.3506 -0.0795
14006TIP3   OH263432   6.431   4.357  12.859 -0.0393 -0.2129 -0.2596
14006TIP3    H163433   6.346   4.318  12.838 -0.1717  0.6625 -1.4680
14006TIP3    H263434   6.420   4.390  12.949 -0.6036 -1.0618  0.0013
14007TIP3   OH263435   2.287   6.681  16.026 -0.2798 -0.5631 -0.3053
14007TIP3    H163436   2.284   6.587  16.009  1.0797 -0.6482 -0.2113
14007TIP3    H263437   2.304   6.688  16.120  1.4277 -0.2868 -0.5987
14008TIP3   OH263438   3.394   1.430   0.380 -0.2347 -0.1240  0.9643
14008TIP3    H163439   3.396   1.385   0.296 -0.7461  0.1980  0.7752
14008TIP3    H263440   3.458   1.384   0.434  1.6039  0.8831 -0.2279
14009TIP3   OH263441   1.042   4.151   2.999  0.1402  0.1764  0.5787
14009TIP3    H163442   1.098   4.147   3.077  3.3679 -0.2868 -1.5708
14009TIP3    H263443   1.061   4.237   2.960 -0.7719  0.0571 -0.1673
14010TIP3   OH263444   5.429   2.733   6.649 -1.0925 -0.0037 -0.3186
14010TIP3    H163445   5.511   2.692   6.675 -1.2833 -0.5726 -0.5920
14010TIP3    H263446   5.363   2.695   6.707 -1.1968  0.2749 -0.2536
14011TIP3   OH263447   3.915   1.788  12.523  0.2771  0.5398 -0.6541
14011TIP3    H163448   4.003   1.794  12.486  0.7742  0.6175  0.5082
14011TIP3    H263449   3.863   1.850  12.472  0.5638 -0.4286 -2.2138
14012TIP3   OH263450   6.337   2.575  12.483  0.0135 -0.1395 -0.1565
14012TIP3    H163451   6.315   2.517  12.410  1.7938 -0.9551 -0.1019
14012TIP3    H263452   6.308   2.529  12.561 -0.6344  0.0987 -0.2523
14013TIP3   OH263453   1.533   6.320  15.500  0.0444  0.2773 -0.1407
14013TIP3    H163454   1.559   6.229  15.487  0.2947  0.3338 -0.0477
14013TIP3    H263455   1.516   6.354  15.412 -1.1230 -0.1667 -0.1116
14014TIP3   OH263456   4.413   6.461  11.563  0.2118 -0.0426 -0.0444
14014TIP3    H163457   4.433   6.448  11.656  3.0575  0.1377 -0.5596
14014TIP3    H263458   4.455   6.544  11.541 -2.5669  1.2453 -0.9950
14015TIP3   OH263459   4.535   5.209  14.103  0.3009  0.6762 -0.4820
14015TIP3    H163460   4.567   5.222  14.193  0.6157  0.2159 -0.5283
14015TIP3    H263461   4.467   5.142  14.112  0.6672  0.2810 -0.6566
14016TIP3   OH263462   6.367   4.249  15.410  0.3442  0.3881  0.1462
14016TIP3    H163463   6.412   4.181  15.360  2.0667  1.6295 -0.0830
14016TIP3    H263464   6.352   4.210  15.496  0.2802 -0.6606 -0.3293
14017TIP3   OH263465   2.792   5.068  14.480  0.6525 -0.1718 -0.2032
14017TIP3    H163466   2.771   5.085  14.388  0.4709 -2.5283 -0.6824
14017TIP3    H263467   2.714   5.026  14.514  0.6114  0.9544  1.1527
14018TIP3   OH263468   3.602   2.643   5.872  0.6649  0.3270 -0.1337
14018TIP3    H163469   3.611   2.737   5.860  0.7384  0.2874 -0.3998
14018TIP3    H263470   3.673   2.619   5.932  0.1171  0.5730  0.6276
14019TIP3   OH263471   1.846   4.697  14.256  0.0413 -0.6441 -0.1962
14019TIP3    H163472   1.917   4.752  14.221  0.4225 -0.8046  0.3200
14019TIP3    H263473   1.885   4.650  14.330 -0.9714  0.3368  1.0175
14020TIP3   OH263474   6.021   0.723  11.182  0.4857 -0.1013  0.3372
14020TIP3    H163475   5.990   0.637  11.156 -0.0398  0.5754 -1.3820
14020TIP3    H263476   6.099   0.705  11.236 -0.4791 -1.6589  1.2888
14021TIP3   OH263477   0.721   4.721   5.652 -0.3367 -0.5359  0.0653
14021TIP3    H163478   0.706   4.647   5.711 -0.9862 -0.0790  0.4824
14021TIP3    H263479   0.636   4.764   5.645  0.1581  0.5021  0.2919
14022TIP3   OH263480   1.491   1.218  13.801 -0.0575  0.5634  0.2622
14022TIP3    H163481   1.404   1.198  13.765  0.1771  0.6372 -0.3482
14022TIP3    H263482   1.497   1.314  13.796  0.8202  0.4528 -1.5143
14023TIP3   OH263483   5.998   1.010  11.653  0.1729 -0.6340  0.0373
14023TIP3    H163484   6.084   0.988  11.618  0.8705  2.3300 -0.4344
14023TIP3    H263485   5.952   1.051  11.580 -1.0697 -0.7801  0.7007
14024TIP3   OH263486   3.420   6.653  11.943 -0.2890  0.6167 -0.2735
14024TIP3    H163487   3.381   6.584  11.997  1.0768  0.2133  0.2480
14024TIP3    H263488   3.457   6.606  11.868  1.9408  0.5104  0.8018
14025TIP3   OH263489   6.387   5.094  11.934  0.4355  0.8188 -0.8625
14025TIP3    H163490   6.339   5.030  11.986  0.7878  0.1624 -1.3334
14025TIP3    H263491   6.322   5.129  11.873  0.0832  1.4086 -0.1609
14026TIP3   OH263492   3.575   4.684  15.174  0.1255  0.2527 -0.1088
14026TIP3    H163493   3.575   4.776  15.200  1.5205  0.0464  0.7416
14026TIP3    H263494   3.657   4.650  15.209  1.0003 -0.6466 -2.7730
14027TIP3   OH263495   2.836   5.990  14.783 -0.1864 -0.0279  0.6644
14027TIP3    H163496   2.910   6.039  14.818 -0.3530  1.2045 -0.6622
14027TIP3    H263497   2.768   5.998  14.851  0.1718  0.6193  0.9505
14028TIP3   OH263498   3.350   2.742  13.542 -0.3123 -0.4565  0.4407
14028TIP3    H163499   3.333   2.670  13.602 -0.7325  0.2397  1.1843
14028TIP3    H263500   3.302   2.816  13.580  1.9448  0.8199  0.9603
14029TIP3   OH263501   6.330   2.662  11.119  0.1306  0.5122  0.6805
14029TIP3    H163502   6.309   2.568  11.125  1.9129  0.1087  1.1425
14029TIP3    H263503   6.339   2.690  11.210 -0.0565  1.0615  0.5305
14030TIP3   OH263504   5.959   0.676  11.548 -0.8856 -0.0874 -0.5314
14030TIP3    H163505   5.997   0.728  11.478 -0.4980  1.3442  0.6894
14030TIP3    H263506   6.027   0.674  11.616 -2.7799  2.3843  1.6549
14031TIP3   OH263507   0.403   2.456  10.987 -0.5774  0.0443  0.2518
14031TIP3    H163508   0.454   2.412  10.918 -2.9904 -0.7989 -1.1299
14031TIP3    H263509   0.394   2.390  11.055 -0.1582  0.0641  0.3285
14032TIP3   OH263510   0.316   2.031   5.677 -0.0890 -0.1578  0.2779
14032TIP3    H163511   0.296   1.981   5.756 -0.5688  0.8929  0.8463
14032TIP3    H263512   0.374   2.102   5.707  0.5051 -0.2995 -0.4898
14033TIP3   OH263513   6.112   4.639   0.262 -0.2567 -0.1488 -0.1089
14033TIP3    H163514   6.203   4.623   0.287 -0.1744 -0.2163 -0.4514
14033TIP3    H263515   6.096   4.579   0.189 -0.2153  0.7057 -0.8401
14034TIP3   OH263516   0.662   3.117   6.153 -0.7157  0.1051 -0.5946
14034TIP3    H163517   0.621   3.094   6.237  0.3323  0.7798  0.1286
14034TIP3    H263518   0.756   3.113   6.170 -0.4890  0.7761 -1.5977
14035TIP3   OH263519   1.777   6.405   3.267 -0.1911 -0.6948  0.0190
14035TIP3    H163520   1.840   6.433   3.333 -0.6332 -0.5668  0.3948
14035TIP3    H263521   1.821   6.421   3.184  0.9419 -2.2467  0.2931
14036TIP3   OH263522   2.313   6.720   5.430  0.4505 -0.2612  0.7915
14036TIP3    H163523   2.317   6.786   5.361  0.5816  0.6986  1.6831
14036TIP3    H263524   2.387   6.662   5.412 -0.4613 -0.9872 -0.7814
14037TIP3   OH263525   0.219   5.558   0.795  0.2943 -0.3898  0.7588
14037TIP3    H163526   0.233   5.464   0.783  0.0883 -0.1653 -2.0071
14037TIP3    H263527   0.300   5.599   0.765  0.0555  0.3561  1.0943
14038TIP3   OH263528   2.118   3.466   2.936  0.3314 -0.2014  0.3272
14038TIP3    H163529   2.079   3.523   2.870  1.1093 -1.4071 -1.2260
14038TIP3    H263530   2.189   3.518   2.973  0.0084  0.4156  0.1040
14039TIP3   OH263531   0.264   4.164   2.532  0.8515  0.3153  0.0562
14039TIP3    H163532   0.227   4.169   2.620 -0.1775 -0.7141 -0.2979
14039TIP3    H263533   0.273   4.070   2.515  1.0746  0.5021 -0.9246
14040TIP3   OH263534   6.046   2.638   0.750  0.1733  0.3713 -0.7920
14040TIP3    H163535   6.035   2.641   0.655 -1.1517  3.1521 -0.6159
14040TIP3    H263536   6.089   2.721   0.772  1.4098 -0.6656  0.9832
14041TIP3   OH263537   5.482   4.500   2.476  0.5490 -0.6319 -0.4606
14041TIP3    H163538   5.408   4.478   2.532 -0.1174  1.0504 -0.6400
14041TIP3    H263539   5.534   4.419   2.473 -1.2167 -1.8311 -0.2764
14042TIP3   OH263540   6.277   5.472   0.029 -0.1360 -0.2391 -0.1489
14042TIP3    H163541   6.310   5.389   0.062  0.9237  0.1975 -0.0763
14042TIP3    H263542   6.338   5.497  -0.040  0.1171  0.9301  0.4631
14043TIP3   OH263543   5.252   4.755   2.881  0.0344 -0.0352 -0.3236
14043TIP3    H163544   5.173   4.700   2.888 -0.3218  0.6272  1.2513
14043TIP3    H263545   5.321   4.694   2.855 -0.8001 -0.7926 -0.8357
14044TIP3   OH263546   0.133   0.651   1.080  0.1930  0.1903  0.1604
14044TIP3    H163547   0.194   0.595   1.127 -0.9571  0.5298  2.1801
14044TIP3    H263548   0.186   0.727   1.054  1.1310 -0.5576 -0.1521
14045TIP3   OH263549   4.344   4.762  15.086 -0.0487 -0.2134  0.3935
14045TIP3    H163550   4.335   4.850  15.124 -0.4032  1.0227 -2.2632
14045TIP3    H263551   4.261   4.747  15.041 -0.5040 -2.5539  1.9129
14046TIP3   OH263552   1.422   6.266  16.728 -1.1647  0.4395 -0.7033
14046TIP3    H163553   1.460   6.288  16.643 -2.0350  0.0166 -1.2182
14046TIP3    H263554   1.429   6.171  16.733 -0.3461  0.5357  0.0822
14047TIP3   OH263555   3.816   3.189  11.816 -0.4432  0.3214  0.7818
14047TIP3    H163556   3.814   3.093  11.813 -2.3143  0.3038  1.5319
14047TIP3    H263557   3.873   3.214  11.743 -2.0560 -1.2820 -1.1556
14048TIP3   OH263558   1.355   1.786  11.125  0.2550 -0.3737  0.0398
14048TIP3    H163559   1.382   1.734  11.049 -1.5845 -2.9373  0.9988
14048TIP3    H263560   1.273   1.828  11.098 -0.1670 -0.9348  0.4049
14049TIP3   OH263561   6.013   5.880   4.449 -0.5900 -0.0139 -0.1836
14049TIP3    H163562   6.052   5.967   4.434 -1.5673  0.2419 -1.3841
14049TIP3    H263563   6.012   5.871   4.544 -0.1072  1.1260 -0.0482
14050TIP3   OH263564   1.523   2.520   6.021  0.2850 -0.3335  0.2217
14050TIP3    H163565   1.515   2.426   6.005 -1.7822 -0.2521  0.5551
14050TIP3    H263566   1.599   2.528   6.079  0.2360 -1.8457  0.5334
14051TIP3   OH263567   5.912   0.829   2.251 -0.3407 -0.5199 -0.3984
14051TIP3    H163568   5.920   0.854   2.159 -1.1612  0.4780 -0.2166
14051TIP3    H263569   5.943   0.906   2.299  0.3928 -1.1555  0.1689
14052TIP3   OH263570   3.163   2.991   2.545  0.2902 -0.0475 -0.3330
14052TIP3    H163571   3.074   3.006   2.577  0.0470 -1.7564 -0.1299
14052TIP3    H263572   3.218   3.008   2.621  0.1475  0.9563 -0.4412
14053TIP3   OH263573   0.192   2.738   5.093 -0.3401  0.1455 -0.2807
14053TIP3    H163574   0.282   2.706   5.100 -0.7620 -0.8033  1.1087
14053TIP3    H263575   0.139   2.659   5.081 -1.0114  0.6790 -0.9177
14054TIP3   OH263576   2.536   2.288  16.994  0.3941  0.2057  0.2258
14054TIP3    H163577   2.479   2.366  16.998 -0.3184  0.0513 -3.3178
14054TIP3    H263578   2.489   2.222  17.045 -0.8456  1.0775  0.2737
14055TIP3   OH263579   3.264   5.397   5.823 -0.0831 -0.3460  0.1421
14055TIP3    H163580   3.283   5.393   5.917 -2.5293  0.7507  0.7394
14055TIP3    H263581   3.341   5.441   5.785  0.3119  0.5006  1.8323
14056TIP3   OH263582   6.358   3.851  16.611  0.0089  0.5505  0.0775
14056TIP3    H163583   6.445   3.824  16.640 -0.2717  0.5930  0.9916
14056TIP3    H263584   6.374   3.900  16.531  0.7134 -0.4859 -0.4469
14057TIP3   OH263585   5.267   5.365  16.827  0.4180 -0.2898  0.6789
14057TIP3    H163586   5.308   5.317  16.754 -0.1522 -1.2094  0.9389
14057TIP3    H263587   5.173   5.356  16.811  0.2531 -1.2855  1.9829
14058TIP3   OH263588   1.237   0.276  13.045  0.5687 -0.4681 -0.0437
14058TIP3    H163589   1.142   0.269  13.037  0.6957 -1.3060 -0.8529
14058TIP3    H263590   1.253   0.370  13.044 -0.3337 -0.2597  1.2460
14059TIP3   OH263591   2.053   6.204   2.465 -0.1242  0.0228 -0.7922
14059TIP3    H163592   2.035   6.218   2.372  0.6685  2.5588 -0.6576
14059TIP3    H263593   1.969   6.183   2.504 -0.4732 -1.0287 -2.0648
14060TIP3   OH263594   4.417   0.950   2.493 -0.0669 -0.4474 -0.2987
14060TIP3    H163595   4.336   0.993   2.518  0.9901  1.4009  0.0991
14060TIP3    H263596   4.408   0.935   2.399 -0.6828  0.1783 -0.3494
14061TIP3   OH263597   4.544   2.504   2.956 -0.1779 -0.5628 -0.4880
14061TIP3    H163598   4.520   2.411   2.962 -0.8470 -0.4375 -1.0226
14061TIP3    H263599   4.505   2.533   2.873  0.1255  0.1656 -0.3811
14062TIP3   OH263600   0.177   6.179   0.633  0.2655  0.5224 -0.3155
14062TIP3    H163601   0.099   6.144   0.676  1.1613  0.4977  1.3986
14062TIP3    H263602   0.144   6.236   0.564 -1.2388 -1.9514 -1.7892
14063TIP3   OH263603   3.103   0.998  17.145  0.4508  0.0706 -0.2675
14063TIP3    H163604   3.012   0.997  17.173  0.8252  0.7110  1.0386
14063TIP3    H263605   3.120   1.089  17.121  0.8038 -0.0066 -0.3187
14064TIP3   OH263606   2.542   1.717   3.730 -0.2875  0.2788 -0.0292
14064TIP3    H163607   2.556   1.631   3.690 -0.0455 -1.2609  3.1365
14064TIP3    H263608   2.447   1.727   3.734 -0.3170  0.1757 -0.3847
14065TIP3   OH263609   1.667   0.449   3.491 -0.1039 -0.3604  0.8768
14065TIP3    H163610   1.611   0.504   3.546 -0.2632  0.5773 -0.2102
14065TIP3    H263611   1.741   0.504   3.467  0.2009 -0.9078  0.5230
14066TIP3   OH263612   3.484   6.052   1.678  0.0796 -0.6172 -0.7134
14066TIP3    H163613   3.402   6.081   1.640 -1.4950  0.2327  2.9198
14066TIP3    H263614   3.548   6.118   1.651 -1.4864  1.2983  0.0555
14067TIP3   OH263615   1.243   0.097  13.254  0.7274  0.0198 -0.6986
14067TIP3    H163616   1.154   0.116  13.281  1.0039  1.2512 -0.6017
14067TIP3    H263617   1.254   0.145  13.172  1.1327 -0.5524 -0.9861
14068TIP3   OH263618   6.107   1.901  12.814  0.0170 -0.1453 -0.0198
14068TIP3    H163619   6.039   1.957  12.853  0.4165 -0.2371  0.8512
14068TIP3    H263620   6.059   1.825  12.781 -0.2824 -0.4211  0.9847
14069TIP3   OH263621   6.641   5.988  14.702  0.2389  0.2972  0.2323
14069TIP3    H163622   6.699   5.972  14.628  0.3759 -1.1669  0.6144
14069TIP3    H263623   6.668   6.073  14.737  0.3442  0.8740 -1.2184
14070TIP3   OH263624   3.880   2.242   5.057  0.3063  0.2623  0.0605
14070TIP3    H163625   3.918   2.247   4.969  0.8626  0.6319  0.3157
14070TIP3    H263626   3.871   2.149   5.074 -3.2224  0.0905 -1.8155
14071TIP3   OH263627   2.709   1.747   1.864  0.3593 -0.7029  0.1807
14071TIP3    H163628   2.736   1.760   1.955  0.7674 -0.6054  0.0507
14071TIP3    H263629   2.792   1.735   1.816  0.1877 -0.0862 -0.2797
14072TIP3   OH263630   0.679   4.848  11.070  0.9668  0.3604  0.7468
14072TIP3    H163631   0.643   4.860  10.982  1.1926  0.8291  0.7167
14072TIP3    H263632   0.689   4.936  11.104 -0.2052  0.1489  1.6907
14073TIP3   OH263633   6.144   6.069   3.285 -0.0491 -0.0215  0.4167
14073TIP3    H163634   6.163   5.983   3.323 -2.5040 -1.5168 -1.4201
14073TIP3    H263635   6.066   6.100   3.333 -3.3863 -2.0710 -3.0995
14074TIP3   OH263636   5.864   6.626   2.462 -0.4736 -0.3756  0.1293
14074TIP3    H163637   5.895   6.716   2.470  1.0554 -0.7375 -1.2383
14074TIP3    H263638   5.810   6.627   2.382 -1.8524 -0.3402  1.0296
14075TIP3   OH263639   6.305   5.520  11.351 -0.2907 -0.4221 -0.4146
14075TIP3    H163640   6.325   5.519  11.257  1.0327 -0.7609 -0.1417
14075TIP3    H263641   6.258   5.603  11.364 -1.0767 -0.6732 -1.4727
14076TIP3   OH263642   0.202   1.936   4.256 -0.1146 -0.0021 -0.0443
14076TIP3    H163643   0.232   1.855   4.215 -1.2050  0.2396 -1.3672
14076TIP3    H263644   0.273   1.961   4.315  0.9474 -1.0324 -0.8555
14077TIP3   OH263645   6.699   0.813  11.663  0.4008 -0.6510  0.0437
14077TIP3    H163646   6.604   0.824  11.666  0.5028  0.5978 -0.5169
14077TIP3    H263647   6.715   0.725  11.696 -0.8482 -0.3545  1.5637
14078TIP3   OH263648   6.689   6.106   5.630  0.4647  0.1487 -0.0082
14078TIP3    H163649   6.598   6.079   5.631  0.2526  0.6525 -1.6521
14078TIP3    H263650   6.687   6.198   5.656  0.5973 -0.0410  0.6845
14079TIP3   OH263651   1.726   1.350  11.533 -0.4959  0.0679 -0.4913
14079TIP3    H163652   1.716   1.285  11.463  2.1837 -0.4638 -0.4615
14079TIP3    H263653   1.720   1.299  11.614 -0.8348  0.2634 -0.3900
14080TIP3   OH263654   0.968   1.791   3.104  0.0573  0.3853  0.7809
14080TIP3    H163655   0.911   1.836   3.042 -0.9083 -0.8252  0.7403
14080TIP3    H263656   0.983   1.855   3.173  0.9657  1.6827 -0.5538
14081TIP3   OH263657   5.143   6.495  14.714 -0.0287 -0.3004 -0.2936
14081TIP3    H163658   5.186   6.490  14.629  0.0925 -2.3808 -0.1482
14081TIP3    H263659   5.051   6.476  14.697 -0.0166 -0.6609  0.0172
14082TIP3   OH263660   4.751   3.239  13.650 -0.1822 -0.6882 -0.1109
14082TIP3    H163661   4.766   3.327  13.615  2.5745 -0.7551  0.6587
14082TIP3    H263662   4.735   3.184  13.573  0.7924  0.0259 -0.8448
14083TIP3   OH263663   4.056   3.072   3.468 -0.2238  0.4666  0.0158
14083TIP3    H163664   4.078   3.087   3.560 -2.2978 -0.2970  0.7004
14083TIP3    H263665   4.001   3.147   3.444 -0.0445  0.4463 -0.4742
14084TIP3   OH263666   6.782   4.400  12.100  0.0254 -0.3564  0.7289
14084TIP3    H163667   6.705   4.371  12.051 -0.8230  0.1484  1.7082
14084TIP3    H263668   6.754   4.400  12.192  0.8356  0.8949  1.0085
14085TIP3   OH263669   0.026   6.673  13.126  0.0021  0.1930  0.0104
14085TIP3    H163670  -0.045   6.737  13.125 -1.0158 -0.8514  1.4528
14085TIP3    H263671   0.040   6.651  13.034  0.0182  2.0740 -0.4707
14086TIP3   OH263672   6.321   6.668  10.785  0.0234 -0.2593  0.4169
14086TIP3    H163673   6.227   6.652  10.772  0.1771 -0.2432 -0.9042
14086TIP3    H263674   6.362   6.582  10.773  0.2277 -0.1529  0.3421
14087TIP3   OH263675   3.925   2.719  14.643  0.2044 -0.1498  0.1820
14087TIP3    H163676   3.876   2.695  14.565 -0.4231 -0.0802  0.5428
14087TIP3    H263677   3.913   2.646  14.704  1.0864 -0.4215  0.0469
14088TIP3   OH263678   1.628   0.118  11.456 -0.1507  0.4452 -0.3530
14088TIP3    H163679   1.600   0.120  11.547 -1.3218  1.2709 -0.7072
14088TIP3    H263680   1.647   0.025  11.438 -1.0375  0.1128  0.3967
14089TIP3   OH263681   2.545   1.074  16.321  0.1675  0.2525 -0.0006
14089TIP3    H163682   2.548   1.165  16.350  0.1721  0.7953 -1.5739
14089TIP3    H263683   2.608   1.070  16.249 -1.5242 -0.3555 -1.5330
14090TIP3   OH263684   6.419   0.114   3.665  0.2635 -0.3865 -0.2855
14090TIP3    H163685   6.417   0.203   3.700  0.6680  0.2463 -1.7710
14090TIP3    H263686   6.347   0.112   3.602 -0.8316 -1.6819  0.9411
14091TIP3   OH263687   0.543   1.468  16.083 -0.0381  0.0976  0.3853
14091TIP3    H163688   0.520   1.432  15.998  1.1941  2.9196 -1.2889
14091TIP3    H263689   0.466   1.520  16.109  0.2095  0.5766  0.1707
14092TIP3   OH263690   5.874   5.091   1.114  0.2346 -0.6340 -0.3000
14092TIP3    H163691   5.909   5.176   1.084 -0.3230 -0.0910  0.5367
14092TIP3    H263692   5.930   5.026   1.072  1.4967  0.1857  0.0406
14093TIP3   OH263693   1.613   2.522  13.152  0.3890  0.1459 -0.0804
14093TIP3    H163694   1.563   2.469  13.091  2.3806  0.2285 -1.9020
14093TIP3    H263695   1.705   2.500  13.135  1.1176  1.5510  1.6007
14094TIP3   OH263696   1.173   0.805  15.951 -0.0342  0.3400  0.1064
14094TIP3    H163697   1.107   0.837  15.889  0.5458  0.9906 -0.1912
14094TIP3    H263698   1.123   0.756  16.016 -0.8560  1.1871  0.1290
14095TIP3   OH263699   0.850   3.017  16.388 -0.1226 -0.5793  0.1239
14095TIP3    H163700   0.848   3.109  16.366 -1.4557 -1.2576 -2.9963
14095TIP3    H263701   0.770   3.001  16.438 -1.1945 -0.4984 -1.5346
14096TIP3   OH263702   2.778   4.888   6.146 -0.6391  0.2862  0.3271
14096TIP3    H163703   2.713   4.832   6.189 -0.3127  0.0641  0.5440
14096TIP3    H263704   2.755   4.885   6.053 -1.0266  0.3326  0.4195
14097TIP3   OH263705   4.638   4.528  12.656  0.7494 -0.4948 -0.1682
14097TIP3    H163706   4.658   4.593  12.723  1.7682  1.5584 -2.3181
14097TIP3    H263707   4.602   4.454  12.704  0.3817  1.2942  2.4944
14098TIP3   OH263708   5.702   4.890   1.543 -0.2850 -0.5552  0.3621
14098TIP3    H163709   5.607   4.896   1.539 -0.3390  0.5331  2.1583
14098TIP3    H263710   5.720   4.844   1.625  0.7488 -0.7748  0.0355
14099TIP3   OH263711   3.851   4.956   2.106  0.1565  0.5721  0.2305
14099TIP3    H163712   3.843   4.872   2.061  0.7129  0.8871 -0.4799
14099TIP3    H263713   3.914   4.941   2.176 -0.5853  0.1195  0.8093
14100TIP3   OH263714   3.702   0.904   5.696 -0.1347  0.4714 -0.2960
14100TIP3    H163715   3.710   0.920   5.790  0.3828 -0.1474 -0.2270
14100TIP3    H263716   3.627   0.847   5.687  0.6163 -0.5720 -0.1160
14101TIP3   OH263717   6.226   3.612  12.534 -0.0675 -0.0995  0.2384
14101TIP3    H163718   6.206   3.688  12.589 -0.8187 -1.3817  1.8335
14101TIP3    H263719   6.321   3.611  12.528 -0.0104  0.5247  0.8753
14102TIP3   OH263720   1.480   4.948   4.403 -0.5353 -0.2912 -0.4905
14102TIP3    H163721   1.442   4.871   4.362  1.0919 -1.2159 -0.3172
14102TIP3    H263722   1.479   5.015   4.334 -2.1394 -0.3673 -0.5808
14103TIP3   OH263723   2.324   2.628   2.815  0.7797 -0.1889 -0.8698
14103TIP3    H163724   2.301   2.625   2.722  0.8410  1.8247 -0.9911
14103TIP3    H263725   2.417   2.650   2.815  0.9102 -0.7092 -0.3158
14104TIP3   OH263726   5.998   3.128   4.756 -0.7454  0.0596 -0.0852
14104TIP3    H163727   6.026   3.037   4.761 -2.0658 -0.3050  1.4489
14104TIP3    H263728   5.903   3.123   4.743 -0.5715  1.2512 -2.3839
14105TIP3   OH263729   1.262   6.639  15.631 -0.6262 -0.5353  0.3051
14105TIP3    H163730   1.272   6.677  15.543  0.6278  1.7264  1.3419
14105TIP3    H263731   1.172   6.608  15.634 -0.4153 -1.6289 -2.1082
14106TIP3   OH263732   6.375   4.669  10.959  0.0017  0.2748  0.1065
14106TIP3    H163733   6.447   4.652  10.899 -0.8899 -0.7074 -0.7309
14106TIP3    H263734   6.368   4.589  11.012  0.0605  0.6927  0.7639
14107TIP3   OH263735   4.037   4.297  12.088 -0.7188 -0.0759 -0.0180
14107TIP3    H163736   3.992   4.218  12.120  0.7117  0.1516  2.8561
14107TIP3    H263737   4.105   4.314  12.153  1.4614  1.4434 -2.5046
14108TIP3   OH263738   0.311   0.908  16.869  0.0607  0.2684  0.0860
14108TIP3    H163739   0.312   0.988  16.818  0.6519  1.0831  1.3137
14108TIP3    H263740   0.228   0.912  16.918  0.6026  0.7205  0.9979
14109TIP3   OH263741   2.017   2.040  14.746 -0.6166 -0.6247  1.1478
14109TIP3    H163742   2.014   2.130  14.713  0.7345 -1.2941 -1.0927
14109TIP3    H263743   1.950   1.994  14.695  0.6753 -1.4380  0.1005
14110TIP3   OH263744   2.388   0.459  16.199 -0.1756  0.0569 -0.1198
14110TIP3    H163745   2.296   0.443  16.223  0.4054 -2.3234  0.8816
14110TIP3    H263746   2.434   0.383  16.234  2.3149  1.5520  0.0480
14111TIP3   OH263747   0.310   4.464   5.119 -0.2233  0.2717  0.4381
14111TIP3    H163748   0.398   4.483   5.086 -0.6884 -1.0146 -1.7459
14111TIP3    H263749   0.280   4.547   5.156  1.3687  1.0986 -0.0088
14112TIP3   OH263750   2.875   2.365   0.880  0.2721 -0.5970  0.0347
14112TIP3    H163751   2.951   2.335   0.930  0.4993 -0.8411 -0.4477
14112TIP3    H263752   2.874   2.460   0.893  1.5175 -0.3855 -1.0925
14113TIP3   OH263753   4.083   4.807   0.509 -0.4074  0.0953  0.4116
14113TIP3    H163754   4.000   4.855   0.509 -0.4146  0.0921  0.9362
14113TIP3    H263755   4.105   4.797   0.602 -0.3163 -0.7573  0.3093
14114TIP3   OH263756   1.166   2.476  16.150  0.1119  0.0038 -0.1882
14114TIP3    H163757   1.230   2.547  16.152  0.9790 -0.7881  2.0144
14114TIP3    H263758   1.205   2.409  16.094 -0.2179  0.7566 -1.3633
14115TIP3   OH263759   4.566   2.324  13.597 -0.3736  0.6512  0.1108
14115TIP3    H163760   4.615   2.272  13.533 -1.4717  1.3496 -1.3431
14115TIP3    H263761   4.611   2.307  13.680 -0.1136 -1.8454 -0.4626
14116TIP3   OH263762   3.667   2.549  11.942  0.2803 -0.0246 -0.8928
14116TIP3    H163763   3.573   2.566  11.935  0.3085  0.3567 -0.3798
14116TIP3    H263764   3.687   2.558  12.035  0.7685 -0.4265 -0.9483
14117TIP3   OH263765   5.744   2.333   3.503 -0.3224  0.6076 -0.5817
14117TIP3    H163766   5.699   2.269   3.449  0.4981  1.0068 -1.7711
14117TIP3    H263767   5.685   2.409   3.505 -1.3430 -0.1601  0.9173
14118TIP3   OH263768   5.298   4.118   1.023 -0.0792  0.0309 -0.8940
14118TIP3    H163769   5.260   4.173   1.092  0.2167 -0.9393  0.0761
14118TIP3    H263770   5.344   4.179   0.966 -0.0593  0.8364 -0.0404
14119TIP3   OH263771   5.518   6.260   6.613 -0.0481  0.1586  0.1342
14119TIP3    H163772   5.589   6.311   6.652  0.7771 -0.2852 -0.7235
14119TIP3    H263773   5.439   6.287   6.660  0.7448  0.4039  1.3526
14120TIP3   OH263774   4.551   3.544   4.399  0.2722  0.6661 -0.2839
14120TIP3    H163775   4.539   3.542   4.304  2.0650 -2.7168 -0.6147
14120TIP3    H263776   4.485   3.483   4.433  1.7973 -0.8161  0.1775
14121TIP3   OH263777   6.752   3.125  13.697 -0.3976  0.5104  0.6114
14121TIP3    H163778   6.725   3.034  13.709 -0.4492  0.4291 -0.0831
14121TIP3    H263779   6.705   3.154  13.618 -0.0428  1.0010  0.5756
14122TIP3   OH263780   3.263   2.048  12.925  0.1616 -0.0094 -0.1706
14122TIP3    H163781   3.340   2.006  12.886  0.1755  0.6573 -0.8860
14122TIP3    H263782   3.252   2.129  12.875 -0.5296  0.2924  0.4548
14123TIP3   OH263783   6.010   3.199  14.630 -0.2678 -0.2757 -0.2327
14123TIP3    H163784   5.929   3.235  14.667  0.3310  0.4539  0.4097
14123TIP3    H263785   6.017   3.239  14.544  1.1553  2.4594  1.0201
14124TIP3   OH263786   1.752   5.432  11.995  0.1395 -0.5116  0.2046
14124TIP3    H163787   1.843   5.462  11.986 -0.2378  0.2273 -1.5161
14124TIP3    H263788   1.701   5.496  11.945 -1.2932 -1.1527  0.7970
14125TIP3   OH263789   6.616   1.868   6.717 -0.4808 -0.1648  0.2426
14125TIP3    H163790   6.626   1.889   6.625  0.0668 -0.7930  0.1495
14125TIP3    H263791   6.607   1.952   6.761 -1.7250  0.1085 -0.4875
14126TIP3   OH263792   5.657   6.590   5.336  0.4421 -0.0447  0.2332
14126TIP3    H163793   5.640   6.612   5.244 -0.1772 -0.4072  0.2530
14126TIP3    H263794   5.665   6.495   5.336 -3.4662 -0.5662  1.0797
14127TIP3   OH263795   3.050   2.875  15.022  0.2650  0.3160  0.3990
14127TIP3    H163796   3.133   2.912  14.991  0.3079 -0.2622 -0.1914
14127TIP3    H263797   3.029   2.927  15.099  2.1436 -0.7471  1.7034
14128TIP3   OH263798   1.437   5.562  16.092 -0.2966  0.1926 -0.0807
14128TIP3    H163799   1.375   5.490  16.094  0.9671 -0.9248  0.7390
14128TIP3    H263800   1.521   5.520  16.072 -0.0355  1.8763 -3.1787
14129TIP3   OH263801   3.707   0.708   5.290 -0.4444 -0.2183  0.3811
14129TIP3    H163802   3.678   0.799   5.282  1.8247  0.7209  1.7300
14129TIP3    H263803   3.644   0.668   5.349 -1.4276  0.4765 -0.1613
14130TIP3   OH263804   3.117   0.427  16.973 -0.2910 -0.4231  0.5786
14130TIP3    H163805   3.135   0.493  17.040  1.2084 -0.6308  0.4289
14130TIP3    H263806   3.074   0.476  16.902 -0.5601  0.0876  1.0858
14131TIP3   OH263807   2.376   2.562  12.032  0.5230  0.3710 -0.4790
14131TIP3    H163808   2.329   2.480  12.042  0.9614 -0.0392 -1.5828
14131TIP3    H263809   2.347   2.596  11.947 -0.9367  2.2312  0.6843
14132TIP3   OH263810   0.278   2.610   5.412  0.2151 -0.5350 -0.3347
14132TIP3    H163811   0.233   2.693   5.396  1.0246 -0.1477 -0.6621
14132TIP3    H263812   0.222   2.565   5.475  0.6643  1.0215  1.2560
14133TIP3   OH263813   0.539   1.258   2.352  0.0080 -0.2711  0.3033
14133TIP3    H163814   0.550   1.191   2.285  0.8420  0.2200 -0.0622
14133TIP3    H263815   0.525   1.208   2.433 -0.6049 -0.8655 -0.1516
14134TIP3   OH263816   0.855   5.187   1.124  0.5975  0.2119 -0.2872
14134TIP3    H163817   0.941   5.227   1.116  0.1677  1.0624 -0.8218
14134TIP3    H263818   0.858   5.139   1.207  1.5260  0.3619 -0.2252
14135TIP3   OH263819   4.588   1.077  16.405 -0.0002 -0.2658 -0.3081
14135TIP3    H163820   4.599   1.171  16.414  1.2411 -0.5231  1.3730
14135TIP3    H263821   4.519   1.055  16.468 -1.0335 -0.3630 -1.4513
14136TIP3   OH263822   4.194   2.991   0.870 -0.2597 -0.2378 -0.2278
14136TIP3    H163823   4.145   3.074   0.864  0.1407  0.0496  0.4194
14136TIP3    H263824   4.278   3.010   0.828 -0.0481 -0.2205  0.2003
14137TIP3   OH263825   3.064   5.127  13.246 -0.1480 -0.3107 -0.4980
14137TIP3    H163826   3.077   5.135  13.151  2.8462 -0.9273 -0.2345
14137TIP3    H263827   3.095   5.211  13.281  1.4140 -1.0764  0.0638
14138TIP3   OH263828   2.866   4.513  12.584 -0.2723 -0.0338 -0.1364
14138TIP3    H163829   2.874   4.455  12.508 -0.0016 -0.0782 -0.0737
14138TIP3    H263830   2.931   4.480  12.646 -0.0414  0.4120 -0.1447
14139TIP3   OH263831   3.137   6.595   4.850 -0.0225  0.1801  0.6699
14139TIP3    H163832   3.191   6.570   4.775 -0.4961  1.7195 -0.2314
14139TIP3    H263833   3.199   6.637   4.910 -0.2470  2.6475 -0.7038
14140TIP3   OH263834   2.242   6.397  15.180 -0.8986  0.3033  0.1212
14140TIP3    H163835   2.325   6.423  15.221 -1.8430  0.1914  2.2239
14140TIP3    H263836   2.233   6.457  15.107  1.4953 -0.3200 -0.7964
14141TIP3   OH263837   5.268   3.626  12.744 -0.2816 -0.3101  0.1012
14141TIP3    H163838   5.248   3.710  12.702  0.1633 -0.5393 -0.5785
14141TIP3    H263839   5.190   3.573  12.731 -1.2455  0.5616  2.0307
14142TIP3   OH263840   5.705   6.198   3.341 -0.3274 -0.0056 -0.4752
14142TIP3    H163841   5.671   6.109   3.351  0.2890 -0.4195 -1.8877
14142TIP3    H263842   5.800   6.187   3.335  0.0018  0.9842  1.6997
14143TIP3   OH263843   5.062   1.664  11.500 -0.1305  0.6948 -0.2618
14143TIP3    H163844   5.112   1.730  11.452 -0.8746  0.1863 -1.7941
14143TIP3    H263845   4.971   1.682  11.477 -0.4712  0.1672  0.6374
14144TIP3   OH263846   1.068   6.381  11.292 -0.3053 -0.0098 -0.3495
14144TIP3    H163847   1.070   6.468  11.332  0.2813 -0.9995  1.9222
14144TIP3    H263848   0.975   6.358  11.288 -0.4602  0.6597 -0.9123
14145TIP3   OH263849   1.685   2.122  13.946 -0.4110  0.0605 -0.1064
14145TIP3    H163850   1.655   2.124  13.855 -0.3778 -0.7771 -0.1433
14145TIP3    H263851   1.752   2.054  13.948  1.4311  1.7856  0.0157
14146TIP3   OH263852   5.375   3.165  12.502 -0.7598 -0.1902  0.3527
14146TIP3    H163853   5.328   3.234  12.548  0.9946  1.0215  0.4239
14146TIP3    H263854   5.414   3.209  12.426  0.3131 -1.1015  0.3450
14147TIP3   OH263855   3.281   5.738  12.457  0.0618  0.0953 -0.0125
14147TIP3    H163856   3.253   5.664  12.403 -0.6071  0.1822  0.2172
14147TIP3    H263857   3.256   5.715  12.546 -0.8469  0.9307 -0.0434
14148TIP3   OH263858   6.230   6.394  16.459 -0.2093 -0.9438  0.5400
14148TIP3    H163859   6.223   6.312  16.411  0.8549 -0.0752 -1.1905
14148TIP3    H263860   6.271   6.455  16.398 -1.0218  0.9151  1.7308
14149TIP3   OH263861   0.759   2.864  15.413 -0.4307  0.0144  0.0899
14149TIP3    H163862   0.807   2.791  15.373 -0.7477  0.6272 -1.4870
14149TIP3    H263863   0.673   2.862  15.372  0.1048  2.2930 -1.3390
14150TIP3   OH263864   4.398   1.892   2.149 -0.1515 -0.6454  0.3505
14150TIP3    H163865   4.467   1.886   2.082 -1.7739 -0.9176 -1.3738
14150TIP3    H263866   4.318   1.912   2.099 -1.4534 -1.0272  2.2067
14151TIP3   OH263867   5.977   3.940   3.095  0.5947 -0.5293 -0.2468
14151TIP3    H163868   5.890   3.955   3.058 -0.0826 -1.9145  0.7018
14151TIP3    H263869   6.023   4.023   3.084 -0.2445 -0.2863 -2.3303
14152TIP3   OH263870   5.365   4.571   1.685 -0.3500  0.1528 -0.2486
14152TIP3    H163871   5.281   4.526   1.671  0.5088 -1.2924 -0.8857
14152TIP3    H263872   5.340   4.661   1.706 -2.1571 -0.6867  1.5828
14153TIP3   OH263873   2.683   0.264   3.466 -0.3105  0.6221 -0.2171
14153TIP3    H163874   2.638   0.288   3.547 -1.3652  1.3853 -0.9972
14153TIP3    H263875   2.612   0.236   3.407  0.0386  2.8898 -1.8521
14154TIP3   OH263876   0.627   4.192  16.294  0.0697 -0.0173 -0.8453
14154TIP3    H163877   0.582   4.220  16.214 -1.9450  2.9099  1.1381
14154TIP3    H263878   0.558   4.153  16.348  1.2925 -1.4558 -0.2353
14155TIP3   OH263879   2.541   5.436  12.017 -0.0642 -0.1649  0.0618
14155TIP3    H163880   2.604   5.364  12.014  0.0052 -0.0972 -0.0781
14155TIP3    H263881   2.493   5.429  11.934 -1.9256 -1.7550  1.1791
14156TIP3   OH263882   0.801   4.969   6.651  0.2906  0.3677 -0.0175
14156TIP3    H163883   0.872   4.919   6.612 -0.2804 -1.4505  1.1313
14156TIP3    H263884   0.744   4.903   6.691 -0.9127  1.9007  0.9474
14157TIP3   OH263885   3.941   6.485   4.172 -0.0497 -0.2169 -0.4868
14157TIP3    H163886   3.959   6.524   4.257  0.2689 -1.3242 -0.0311
14157TIP3    H263887   4.026   6.480   4.128  0.1130 -1.4437 -0.0713
14158TIP3   OH263888   3.549   4.247  16.878  0.0837 -0.3774  0.2685
14158TIP3    H163889   3.598   4.279  16.953  0.4970  2.3048 -1.0123
14158TIP3    H263890   3.516   4.326  16.835 -1.5416 -1.8785 -1.4575
14159TIP3   OH263891   5.625   1.843   6.046  0.0640  0.2752  0.2835
14159TIP3    H163892   5.642   1.753   6.073  0.6585  0.6643  1.3125
14159TIP3    H263893   5.561   1.876   6.110 -0.8139  0.3277 -0.6073
14160TIP3   OH263894   4.816   3.579   1.681  0.7229  0.3345  0.8224
14160TIP3    H163895   4.747   3.515   1.668  0.3750  1.2129 -2.5649
14160TIP3    H263896   4.896   3.527   1.693  0.1911 -0.7116 -0.0403
14161TIP3   OH263897   5.603   2.357  13.654  1.0131  0.0984  0.4570
14161TIP3    H163898   5.594   2.290  13.586 -1.6675 -0.1190  0.9034
14161TIP3    H263899   5.629   2.308  13.733  1.6985 -0.0094  0.1684
14162TIP3   OH263900   2.657   6.734  14.523 -0.1021 -0.5335  0.2511
14162TIP3    H163901   2.682   6.684  14.446  1.7842 -0.8389  0.9932
14162TIP3    H263902   2.566   6.710  14.540 -0.0819 -1.5819 -1.0052
14163TIP3   OH263903   2.426   3.475  14.273 -0.1807  0.1177  0.1024
14163TIP3    H163904   2.485   3.505  14.343 -2.2319 -0.4843  2.2178
14163TIP3    H263905   2.378   3.401  14.311 -3.7529  1.8040 -0.6597
14164TIP3   OH263906   2.393   2.999  11.408  0.6779  0.4976  0.1728
14164TIP3    H163907   2.447   2.998  11.328  0.1838  1.4581 -0.1844
14164TIP3    H263908   2.413   3.083  11.449 -0.5335  0.8703  0.0363
14165TIP3   OH263909   1.290   0.961   2.121  0.5130  0.2289 -0.4165
14165TIP3    H163910   1.320   1.013   2.196 -1.1940  0.5675  0.0624
14165TIP3    H263911   1.231   1.019   2.074  0.6709 -0.3873 -1.3955
14166TIP3   OH263912   3.203   6.413   0.254 -0.5809 -0.5245 -0.1205
14166TIP3    H163913   3.234   6.489   0.303 -2.0270 -0.3985  0.6484
14166TIP3    H263914   3.189   6.446   0.165 -0.1089 -0.1919 -0.0756
14167TIP3   OH263915   6.192   6.569  11.851 -0.3037  0.2931  0.0154
14167TIP3    H163916   6.188   6.634  11.921  0.8481  2.8684 -2.1037
14167TIP3    H263917   6.203   6.621  11.771  0.9471 -2.5392 -1.8330
14168TIP3   OH263918   1.165   6.315   1.384  0.0261 -0.1340  0.2696
14168TIP3    H163919   1.109   6.366   1.325  0.3820 -0.0473  0.0087
14168TIP3    H263920   1.226   6.270   1.326  0.8571  0.5310  0.6176
14169TIP3   OH263921   1.455   4.189  14.569  0.2883 -0.1207 -0.0431
14169TIP3    H163922   1.546   4.160  14.577  0.4376  0.3595  0.0544
14169TIP3    H263923   1.441   4.247  14.644  0.5721  1.4943 -1.1895
14170TIP3   OH263924   0.429   0.942   5.813 -0.0422  0.0457 -0.2206
14170TIP3    H163925   0.480   1.006   5.763  0.4849 -0.2969 -0.1391
14170TIP3    H263926   0.381   0.993   5.877  2.0865  0.2206  1.3544
14171TIP3   OH263927   1.879   1.999   1.262 -1.0830 -0.0956  0.1807
14171TIP3    H163928   1.839   1.918   1.229 -1.2188  0.1537 -0.2744
14171TIP3    H263929   1.973   1.980   1.263 -1.1534 -0.4343  0.5663
14172TIP3   OH263930   6.796   1.708  15.924 -0.2047  0.1806 -0.2195
14172TIP3    H163931   6.802   1.689  15.830 -0.9587 -0.5702 -0.1324
14172TIP3    H263932   6.705   1.736  15.936  0.1709  1.2579  0.1216
14173TIP3   OH263933   1.280   5.507   0.500 -0.5086  0.2546 -0.2879
14173TIP3    H163934   1.254   5.416   0.486 -0.7478  0.2935 -0.1151
14173TIP3    H263935   1.374   5.504   0.515 -0.3701  0.1349 -1.1701
14174TIP3   OH263936   1.451   2.891  11.232 -0.1900  0.2841  0.7484
14174TIP3    H163937   1.457   2.927  11.143  0.9567 -1.7159 -0.0452
14174TIP3    H263938   1.442   2.796  11.219 -1.7013  0.0849  2.7552
14175TIP3   OH263939   2.619   1.880   5.598 -0.1645 -0.3445  0.2421
14175TIP3    H163940   2.571   1.877   5.515  0.0166  1.6351  0.0335
14175TIP3    H263941   2.558   1.920   5.660  0.2254 -0.4383  0.6944
14176TIP3   OH263942   0.120   0.604  13.167 -0.2248  0.0068 -0.1699
14176TIP3    H163943   0.204   0.616  13.124  0.0806 -1.9305 -0.2040
14176TIP3    H263944   0.067   0.553  13.105 -0.5989 -0.7648  0.7361
14177TIP3   OH263945   2.294   2.626   2.524  0.1976 -0.2944 -0.2591
14177TIP3    H163946   2.213   2.603   2.479  0.0685  1.8492 -1.2086
14177TIP3    H263947   2.350   2.549   2.514 -1.4746 -1.5839 -0.0933
14178TIP3   OH263948   3.188   5.121  11.823 -0.2607 -0.0571 -0.0797
14178TIP3    H163949   3.150   5.052  11.877 -0.3442 -0.6224 -0.8471
14178TIP3    H263950   3.241   5.172  11.884 -0.0002 -0.9430  0.4539
14179TIP3   OH263951   1.565   4.384  13.197  0.2294  0.1680 -0.1823
14179TIP3    H163952   1.637   4.376  13.135 -0.3215 -0.1227 -0.7930
14179TIP3    H263953   1.596   4.448  13.261  1.8483 -1.4436  0.7386
14180TIP3   OH263954   3.330   5.153   1.074  0.0552 -0.6569 -0.2663
14180TIP3    H163955   3.281   5.235   1.066 -0.5336 -1.1213 -2.1017
14180TIP3    H263956   3.321   5.128   1.166 -0.7167  0.7540  0.0690
14181TIP3   OH263957   2.230   6.173   3.385  0.2171 -0.0897 -0.3054
14181TIP3    H163958   2.192   6.240   3.328  0.4234 -0.4030 -0.8270
14181TIP3    H263959   2.162   6.155   3.450  0.3497  0.9718  0.1374
14182TIP3   OH263960   2.000   6.564  14.643 -0.2593 -0.2075  0.4070
14182TIP3    H163961   1.972   6.533  14.557  1.1001  3.1792 -1.4135
14182TIP3    H263962   2.058   6.495  14.675 -0.3234 -1.2917 -1.6235
14183TIP3   OH263963   0.026   2.910  11.820  0.0291 -0.2037 -0.5913
14183TIP3    H163964   0.037   2.855  11.742 -2.0975 -0.8883 -0.4615
14183TIP3    H263965   0.078   2.867  11.887  0.4314 -0.6233 -1.1597
14184TIP3   OH263966   2.907   1.984  15.962  0.4690  0.4835 -0.3594
14184TIP3    H163967   2.944   2.066  15.928  3.0599  0.3244  1.7097
14184TIP3    H263968   2.984   1.935  15.992 -1.0480 -2.4995 -0.9892
14185TIP3   OH263969   1.319   0.168  14.865  0.7068  0.1571 -0.1710
14185TIP3    H163970   1.305   0.225  14.941  1.3370  0.4272 -0.2525
14185TIP3    H263971   1.372   0.221  14.805 -0.5541  0.2967 -1.2162
14186TIP3   OH263972   2.569   3.698  16.487 -0.1921 -0.0099  0.0821
14186TIP3    H163973   2.655   3.685  16.527 -1.1195 -1.0183  1.9101
14186TIP3    H263974   2.533   3.609  16.477 -0.6791  0.3323 -1.4967
14187TIP3   OH263975   4.551   0.268  11.596  0.5531  0.2365  0.4057
14187TIP3    H163976   4.546   0.212  11.518  0.9182 -0.5232  0.9077
14187TIP3    H263977   4.522   0.211  11.667  1.5143  0.5035  1.0277
14188TIP3   OH263978   5.292   2.673  16.006  0.6120 -1.2268  0.7719
14188TIP3    H163979   5.288   2.616  16.082  1.7805  0.3786  2.1189
14188TIP3    H263980   5.351   2.744  16.032  0.8453 -0.4758 -1.5473
14189TIP3   OH263981   4.488   5.162  11.178  0.4882 -0.3357 -1.0439
14189TIP3    H163982   4.465   5.230  11.114 -0.3538  0.8524  0.4381
14189TIP3    H263983   4.526   5.210  11.252 -1.4440 -1.2362  0.6650
14190TIP3   OH263984   2.635   4.028   0.645 -0.3781 -0.2124  0.3781
14190TIP3    H163985   2.677   3.971   0.708  2.1482  1.3120  0.2045
14190TIP3    H263986   2.673   4.115   0.661 -0.4666  0.4601 -2.4744
14191TIP3   OH263987   6.679   5.283  17.112 -0.3822 -0.0855 -0.3996
14191TIP3    H163988   6.752   5.274  17.175  0.2886  2.0824 -0.8017
14191TIP3    H263989   6.657   5.376  17.113 -1.5809 -0.3017 -2.0634
14192TIP3   OH263990   1.220   5.482   1.683 -0.1463 -0.0143  0.0969
14192TIP3    H163991   1.250   5.393   1.664  0.0578  0.1050 -0.1590
14192TIP3    H263992   1.163   5.504   1.610 -0.9980 -0.3004  0.6702
14193TIP3   OH263993   5.214   6.345  11.475  0.1304 -0.1656 -0.1259
14193TIP3    H163994   5.137   6.300  11.438 -0.9535  0.3306  1.4440
14193TIP3    H263995   5.206   6.435  11.444  0.2550 -0.1799 -0.2018
14194TIP3   OH263996   4.590   6.758  10.484  0.1247 -0.2190 -0.5063
14194TIP3    H163997   4.612   6.671  10.516 -1.4440  0.0047  1.4415
14194TIP3    H263998   4.660   6.814  10.517  0.6810 -0.6064 -1.0190
14195TIP3   OH263999   0.656   2.520   2.283 -0.3656  0.3513  0.5541
14195TIP3    H164000   0.690   2.605   2.311  0.0757  0.4626 -0.3018
14195TIP3    H264001   0.721   2.486   2.222 -2.0247  0.8717 -1.6456
14196TIP3   OH264002   6.520   4.877   1.398 -0.2525  0.3423  0.3043
14196TIP3    H164003   6.615   4.881   1.408 -0.3540 -0.0319  1.6724
14196TIP3    H264004   6.497   4.961   1.359  0.8113 -0.3373 -1.9898
14197TIP3   OH264005   3.748   4.618  11.423 -0.2936 -0.0361 -0.2901
14197TIP3    H164006   3.693   4.554  11.468  1.0112 -0.5653  0.6439
14197TIP3    H264007   3.820   4.566  11.387 -0.6470  0.5651 -1.9261
14198TIP3   OH264008   1.195   4.144   6.676 -0.2253  0.5577 -0.7670
14198TIP3    H164009   1.204   4.090   6.754  1.5157  0.9405 -0.6403
14198TIP3    H264010   1.102   4.167   6.671 -0.3346  0.7081  1.3176
14199TIP3   OH264011   2.783   1.434   1.925  0.0959  0.5384  0.5828
14199TIP3    H164012   2.735   1.503   1.878 -0.5961 -0.2452  0.1203
14199TIP3    H264013   2.729   1.356   1.915  1.6144 -0.4703 -0.2349
14200TIP3   OH264014   1.029   4.755   3.186  0.2804  0.3397 -0.7064
14200TIP3    H164015   1.123   4.751   3.205  0.7098  0.1961 -2.6624
14200TIP3    H264016   1.021   4.826   3.122 -0.8368 -0.1891 -1.1690
14201TIP3   OH264017   2.163   3.099   5.528  0.2127  0.3580  0.0271
14201TIP3    H164018   2.248   3.142   5.530  0.1076  0.5372  1.0013
14201TIP3    H264019   2.179   3.015   5.485  0.9241  0.2979  0.4090
14202TIP3   OH264020   0.970   0.247   2.720  1.4807  0.0934 -0.2289
14202TIP3    H164021   1.062   0.246   2.693  1.5809 -0.5460  0.1143
14202TIP3    H264022   0.946   0.155   2.727  1.1363  0.2390  0.7319
14203TIP3   OH264023   2.370   1.597  13.848 -0.1980 -0.2794 -0.4186
14203TIP3    H164024   2.465   1.602  13.837 -0.1559 -0.8451 -0.3418
14203TIP3    H264025   2.347   1.679  13.893  0.0787  0.4529 -1.5670
14204TIP3   OH264026   6.284   6.057  14.093  0.5906 -0.3089 -0.6820
14204TIP3    H164027   6.231   6.008  14.156  1.2136 -0.5488 -0.3290
14204TIP3    H264028   6.285   6.146  14.128 -0.7569  0.0411 -1.4624
14205TIP3   OH264029   2.732   6.622  11.999 -0.0056  0.1318  0.5306
14205TIP3    H164030   2.695   6.689  11.942  1.6952  0.3151 -0.4468
14205TIP3    H264031   2.826   6.627  11.983  0.1696 -2.8981 -0.0699
14206TIP3   OH264032   0.145   1.836   1.826 -0.2641  0.1018 -0.5080
14206TIP3    H164033   0.069   1.791   1.788 -0.6797 -0.3236  0.7855
14206TIP3    H264034   0.216   1.772   1.817 -0.5370 -0.2986  0.0825
14207TIP3   OH264035   1.445   1.328   1.354  0.1765 -0.1292  0.9405
14207TIP3    H164036   1.497   1.288   1.283  0.0452  1.8290 -0.3206
14207TIP3    H264037   1.487   1.297   1.434  0.5294 -2.1552  0.0334
14208TIP3   OH264038   1.409   2.795   6.053 -0.3965  0.6332 -0.1499
14208TIP3    H164039   1.473   2.866   6.065  0.1007  0.3465 -0.9817
14208TIP3    H264040   1.459   2.715   6.068 -1.0469  0.4568  1.1496
14209TIP3   OH264041   5.269   5.771   4.449  0.4256 -0.0298 -0.5705
14209TIP3    H164042   5.325   5.821   4.508 -1.0553 -1.3025  2.1049
14209TIP3    H264043   5.327   5.744   4.377  2.4914  1.0282  0.6130
14210TIP3   OH264044   2.702   0.031   4.170  0.3172 -0.4146 -0.0539
14210TIP3    H164045   2.791   0.059   4.190  0.2974  0.4931 -1.1620
14210TIP3    H264046   2.656   0.111   4.144 -1.1257 -0.6782  1.4632
14211TIP3   OH264047   2.994   2.979  12.460  0.1538 -0.2619 -0.0552
14211TIP3    H164048   2.913   3.027  12.477  0.4584  0.4038 -0.4623
14211TIP3    H264049   3.035   3.026  12.387 -0.4769 -2.2662 -1.8013
14212TIP3   OH264050   2.105   6.152  14.508  0.0229 -0.2404  0.2882
14212TIP3    H164051   2.097   6.185  14.418  2.2177  1.3573  0.6145
14212TIP3    H264052   2.119   6.058  14.498 -1.2456 -0.3403 -0.9280
14213TIP3   OH264053   3.501   5.649  11.301  0.2362  0.6543 -0.7661
14213TIP3    H164054   3.557   5.574  11.283  0.3750  0.6966 -0.5096
14213TIP3    H264055   3.426   5.637  11.242 -0.1149 -0.0896 -0.1822
14214TIP3   OH264056   2.303   4.604  14.398 -0.1287  0.0720  0.6775
14214TIP3    H164057   2.246   4.564  14.332  2.7078 -0.1504 -1.8394
14214TIP3    H264058   2.292   4.699  14.385  1.8045  0.0563 -1.5537
14215TIP3   OH264059   4.425   3.318   0.850 -0.0348  0.2519  0.2894
14215TIP3    H164060   4.483   3.393   0.857 -0.5776  0.6662  0.4487
14215TIP3    H264061   4.349   3.351   0.800 -0.4336 -0.0831  0.6649
14216TIP3   OH264062   6.703   6.016   0.471  0.3352  0.3529  0.0328
14216TIP3    H164063   6.688   5.936   0.420 -0.4690  1.1063 -0.9488
14216TIP3    H264064   6.757   6.070   0.414  0.1260  0.8780  0.3298
14217TIP3   OH264065   1.181   2.158   2.082 -0.1195 -0.1257 -0.2377
14217TIP3    H164066   1.221   2.241   2.054 -1.0670  0.1867 -0.7348
14217TIP3    H264067   1.219   2.092   2.025  0.2563  0.0471 -0.1892
14218TIP3   OH264068   0.869   1.229  14.667  0.3661  0.2903 -0.1251
14218TIP3    H164069   0.909   1.149  14.700  0.1938 -1.0316 -2.8585
14218TIP3    H264070   0.914   1.299  14.715  1.6496 -1.3527  1.2192
14219TIP3   OH264071   3.166   5.802  14.159  0.1436  0.1298  0.0943
14219TIP3    H164072   3.210   5.731  14.112  1.4212  0.7243  0.3559
14219TIP3    H264073   3.218   5.880  14.139 -0.8576  0.8843  0.3372
14220TIP3   OH264074   1.188   5.956  12.781  0.0935 -0.4403  0.4393
14220TIP3    H164075   1.183   6.013  12.705  0.0653  0.1416  0.8742
14220TIP3    H264076   1.199   5.868  12.744 -0.1991 -0.1977 -0.2374
14221TIP3   OH264077   5.236   1.263  10.946 -0.0576 -0.5221  0.1764
14221TIP3    H164078   5.316   1.248  10.997  0.4015 -1.2994 -0.7414
14221TIP3    H264079   5.220   1.357  10.955  2.0046  0.0315 -1.0647
14222TIP3   OH264080   5.360   4.376  14.200  0.1520 -0.6884 -0.0723
14222TIP3    H164081   5.290   4.323  14.162 -0.9892 -2.1399  3.6013
14222TIP3    H264082   5.434   4.315  14.211  0.3963 -0.3593  0.1540
14223TIP3   OH264083   0.469   1.680   2.540  0.8033  0.4304 -0.7923
14223TIP3    H164084   0.476   1.616   2.469  0.3928  1.2945 -1.6410
14223TIP3    H264085   0.380   1.670   2.572  1.2125 -0.4691  0.1266
14224TIP3   OH264086   1.840   1.540   1.479 -0.5766  0.4881  0.5629
14224TIP3    H164087   1.856   1.523   1.572  0.9639  1.6917  0.5598
14224TIP3    H264088   1.836   1.636   1.473 -0.0401  0.4386 -0.7021
14225TIP3   OH264089   4.252   4.592  13.717 -0.7432 -0.0660 -0.1147
14225TIP3    H164090   4.266   4.611  13.810 -0.4019 -0.8037 -0.0056
14225TIP3    H264091   4.281   4.672  13.672  0.4641 -0.2285  0.3355
14226TIP3   OH264092   0.148   3.473  13.024 -0.4488 -0.5038 -0.1799
14226TIP3    H164093   0.113   3.474  12.935 -0.5617 -0.1587 -0.1375
14226TIP3    H264094   0.230   3.425  13.018  0.2858  0.7567 -0.7665
14227TIP3   OH264095   2.476   2.183   2.490 -0.2923 -0.0737 -0.2443
14227TIP3    H164096   2.428   2.100   2.484  1.6009 -1.1352 -1.5046
14227TIP3    H264097   2.486   2.211   2.399 -1.8265  2.1497  0.2055
14228TIP3   OH264098   1.197   0.588  16.724 -0.4784  0.4899 -0.3992
14228TIP3    H164099   1.270   0.646  16.746  0.2892 -0.5505 -0.1621
14228TIP3    H264100   1.210   0.511  16.779 -2.3586  0.7131  0.4570
14229TIP3   OH264101   3.716   5.340   1.936  0.0561  0.3715 -0.3007
14229TIP3    H164102   3.665   5.415   1.966  0.9052  0.6161  0.5516
14229TIP3    H264103   3.672   5.312   1.855  0.8476  2.9855 -1.7396
14230TIP3   OH264104   1.756   0.696  14.837  0.1622 -0.3607 -0.3592
14230TIP3    H164105   1.833   0.657  14.878  0.1581 -0.7326 -0.7015
14230TIP3    H264106   1.706   0.733  14.910  0.1137 -1.0894 -0.0229
14231TIP3   OH264107   4.812   3.415   4.294 -0.0580  0.6892  0.2248
14231TIP3    H164108   4.728   3.428   4.337  0.5040  2.3853  0.9169
14231TIP3    H264109   4.791   3.376   4.210 -1.6259  1.8750  0.0282
14232TIP3   OH264110   4.742   2.707  12.398 -0.4332  0.5120  0.9099
14232TIP3    H164111   4.705   2.620  12.415  0.0779  0.3916  1.4217
14232TIP3    H264112   4.764   2.741  12.484  0.2578  0.7539  0.6434
14233TIP3   OH264113   6.556   4.371  11.951 -0.1399 -0.0423  0.1128
14233TIP3    H164114   6.565   4.290  11.900 -0.9244  0.4375 -0.8181
14233TIP3    H264115   6.476   4.358  12.002  0.6914 -0.5597  1.3500
14234TIP3   OH264116   3.682   4.981   5.435  0.2330  0.2191  0.9666
14234TIP3    H164117   3.746   5.001   5.504 -0.0155  0.1209  1.2282
14234TIP3    H264118   3.726   4.917   5.379  0.0221 -0.5791  1.6898
14235TIP3   OH264119   3.765   1.105   2.225 -0.4181 -0.1278  0.1992
14235TIP3    H164120   3.855   1.079   2.242  1.3241  2.2565 -3.9979
14235TIP3    H264121   3.763   1.199   2.240 -2.2109 -0.0970  0.0434
14236TIP3   OH264122   1.725   0.191  15.371 -0.1470  0.6109 -0.2906
14236TIP3    H164123   1.714   0.273  15.419 -1.4933 -0.2005  0.8889
14236TIP3    H264124   1.720   0.123  15.439 -0.4899 -0.4992 -1.3893
14237TIP3   OH264125   0.050   5.105  11.248 -0.5018  0.1161 -0.0658
14237TIP3    H164126   0.050   5.053  11.329  0.2435 -2.6806 -1.7371
14237TIP3    H264127   0.129   5.159  11.256  0.4703 -1.3054  0.4183
14238TIP3   OH264128   5.446   3.144   0.122  0.2014 -0.2977  0.0751
14238TIP3    H164129   5.456   3.211   0.054 -2.0441  0.5272  0.4852
14238TIP3    H264130   5.385   3.081   0.085 -0.1363 -0.4501  0.8854
14239TIP3   OH264131   0.416   6.502   2.322 -0.0437  0.2860 -0.0648
14239TIP3    H164132   0.341   6.445   2.334 -1.5338  2.0765 -0.3795
14239TIP3    H264133   0.448   6.482   2.234  0.5701 -1.2391  0.4694
14240TIP3   OH264134   6.456   5.312   5.443  0.0678 -0.0878  0.3470
14240TIP3    H164135   6.415   5.362   5.514  0.8398  1.2863 -0.1341
14240TIP3    H264136   6.384   5.263   5.403 -0.5610 -0.0306  1.3843
14241TIP3   OH264137   4.855   6.619   3.922 -0.2119  0.2465 -0.7055
14241TIP3    H164138   4.809   6.696   3.890 -0.2079  1.1757  1.3973
14241TIP3    H264139   4.873   6.637   4.014  1.8577 -1.2894 -0.7242
14242TIP3   OH264140   1.122   3.641  11.637 -0.5892  0.9234  0.2111
14242TIP3    H164141   1.143   3.695  11.713 -0.4278  0.1499  0.7256
14242TIP3    H264142   1.086   3.561  11.674 -1.6064  0.9960 -0.5611
14243TIP3   OH264143   4.492   0.732   0.463 -0.0587 -0.0036 -0.2246
14243TIP3    H164144   4.547   0.796   0.419 -0.1928  0.0614 -0.2967
14243TIP3    H264145   4.427   0.784   0.510 -1.0419 -0.1103 -1.4090
14244TIP3   OH264146   3.668   1.473   4.575  0.2204 -0.6427 -0.2676
14244TIP3    H164147   3.647   1.553   4.526  0.9723 -0.2997 -0.0571
14244TIP3    H264148   3.759   1.455   4.553  0.4506 -0.7083  0.6780
14245TIP3   OH264149   3.015   6.706  11.977  0.0679 -0.0318 -0.5451
14245TIP3    H164150   3.075   6.712  11.902  1.8265 -1.4076  0.6732
14245TIP3    H264151   3.024   6.791  12.021 -0.1385  0.3768 -1.2700
14246TIP3   OH264152   5.505   3.287   1.169 -0.7616 -0.5469 -0.0217
14246TIP3    H164153   5.488   3.372   1.128 -0.0572 -0.2888  0.2014
14246TIP3    H264154   5.585   3.257   1.128 -0.6436 -0.7901  0.3854
14247TIP3   OH264155   4.271   6.053  16.597 -0.4295  0.6397  0.0476
14247TIP3    H164156   4.183   6.082  16.619 -0.2114  2.1368 -0.8752
14247TIP3    H264157   4.327   6.095  16.663 -0.3216  0.3944  0.1146
14248TIP3   OH264158   0.962   2.378   1.020  0.7655  0.6680 -0.4705
14248TIP3    H164159   0.932   2.468   1.031  1.0178  1.0408 -2.5021
14248TIP3    H264160   0.993   2.373   0.930 -1.2659 -2.0178 -1.1751
14249TIP3   OH264161   6.091   5.668   1.649  0.2642 -0.1389 -0.4011
14249TIP3    H164162   6.142   5.588   1.662 -1.8250 -1.3504  0.8717
14249TIP3    H264163   6.034   5.649   1.575  0.5178  0.6312 -0.8130
14250TIP3   OH264164   2.765   0.401  13.520  0.3670 -0.0813 -0.1857
14250TIP3    H164165   2.752   0.307  13.509  1.2816 -0.0297 -2.0631
14250TIP3    H264166   2.775   0.435  13.431  1.2321  1.6149  0.5068
14251TIP3   OH264167   0.752   3.069   4.433  0.2683 -0.0767 -0.4318
14251TIP3    H164168   0.670   3.090   4.388 -0.2408  2.4777  1.4440
14251TIP3    H264169   0.727   3.058   4.525  1.6698 -2.2672 -0.2209
14252TIP3   OH264170   4.346   0.040  12.379 -0.0719 -0.2504  0.2887
14252TIP3    H164171   4.306   0.105  12.438 -2.2610  0.3123 -1.6489
14252TIP3    H264172   4.319  -0.045  12.416 -2.2075  0.1032 -0.2911
14253TIP3   OH264173   0.009   6.591  16.313 -0.1065  0.4782  0.4336
14253TIP3    H164174  -0.053   6.663  16.328  1.5248  2.0606 -0.0402
14253TIP3    H264175   0.046   6.572  16.400  0.3036  1.0298  0.3825
14254TIP3   OH264176   3.812   4.291  16.708  0.5855  0.3978 -0.3707
14254TIP3    H164177   3.832   4.313  16.799  1.8776  0.1023 -0.5573
14254TIP3    H264178   3.719   4.266  16.709  0.8069 -0.5187  1.0564
14255TIP3   OH264179   4.715   6.534  10.639  0.4576  0.2252  0.3729
14255TIP3    H164180   4.780   6.499  10.578 -1.6426 -0.9377 -1.3275
14255TIP3    H264181   4.644   6.469  10.639 -2.1539  2.8565 -0.3766
14256TIP3   OH264182   0.446   0.875  10.525  0.5238 -0.1044  0.4585
14256TIP3    H164183   0.499   0.869  10.604  1.8781  0.1688 -0.3906
14256TIP3    H264184   0.498   0.831  10.458  0.7023  2.0065 -0.8937
14257TIP3   OH264185   2.821   6.528   1.737  0.3280 -0.4129 -0.0423
14257TIP3    H164186   2.882   6.472   1.689 -0.4498 -1.6407  0.3661
14257TIP3    H264187   2.828   6.500   1.828 -0.9403 -0.6871 -0.0091
14258TIP3   OH264188   3.344   1.270   6.345  0.4301 -0.1057  0.0652
14258TIP3    H164189   3.423   1.218   6.360  0.8622  0.0579 -1.4568
14258TIP3    H264190   3.283   1.210   6.304 -0.0651 -0.1004  0.7859
14259TIP3   OH264191   6.761   1.765  12.576 -0.1869 -0.2585  0.3800
14259TIP3    H164192   6.750   1.741  12.484  1.4236 -1.2679  0.3930
14259TIP3    H264193   6.716   1.848  12.585  0.9112  0.6535 -1.7132
14260TIP3   OH264194   6.472   2.527  11.521 -0.1305  0.2474 -0.0340
14260TIP3    H164195   6.439   2.611  11.489 -2.1155 -0.4446  0.0459
14260TIP3    H264196   6.478   2.472  11.442  1.9357  0.6533 -0.2130
14261TIP3   OH264197   3.150   6.430   5.952 -0.1922  0.0885 -0.1968
14261TIP3    H164198   3.094   6.353   5.953  1.3575 -1.0798 -0.4498
14261TIP3    H264199   3.162   6.452   6.044  0.2454 -0.6557 -0.0701
14262TIP3   OH264200   3.676   4.259  11.953  0.1371  0.4685  0.0478
14262TIP3    H164201   3.699   4.167  11.944  1.0476  0.8257 -1.7294
14262TIP3    H264202   3.580   4.261  11.950  0.0247 -0.1366 -4.8729
14263TIP3   OH264203   4.259   0.198   3.177  0.2451 -0.0296  0.1029
14263TIP3    H164204   4.218   0.155   3.253 -0.0251  0.8254  0.4529
14263TIP3    H264205   4.220   0.286   3.175 -0.1901 -0.2208 -1.3734
14264TIP3   OH264206   4.687   0.264  14.144  0.1312 -0.0131 -0.3513
14264TIP3    H164207   4.780   0.241  14.141 -0.0233 -0.6847 -0.2614
14264TIP3    H264208   4.659   0.236  14.231 -0.0639  0.5552 -0.2314
14265TIP3   OH264209   2.334   4.179  12.944  0.4076  0.6153  0.0723
14265TIP3    H164210   2.387   4.175  12.865 -1.4338  0.8050 -1.2272
14265TIP3    H264211   2.249   4.209  12.914 -0.9529 -1.2469  1.8095
14266TIP3   OH264212   5.154   0.775  14.565 -0.2939  0.3535  0.4757
14266TIP3    H164213   5.219   0.826  14.516  0.4409 -1.9623 -1.1175
14266TIP3    H264214   5.072   0.790  14.519 -0.6353  2.0415  1.5530
14267TIP3   OH264215   5.717   2.548   3.184 -0.0007 -0.5684 -0.1051
14267TIP3    H164216   5.639   2.492   3.190  0.3100 -0.8759  1.9204
14267TIP3    H264217   5.782   2.493   3.141  0.0033 -1.4431  0.9813
14268TIP3   OH264218   6.062   5.674  17.084  0.4559 -0.1415  0.0691
14268TIP3    H164219   6.127   5.657  17.152  0.4214  1.9134  0.6614
14268TIP3    H264220   5.999   5.733  17.124 -0.7100 -0.5356 -1.1187
14269TIP3   OH264221   3.573   4.632  17.112  0.0853  0.7259  0.0290
14269TIP3    H164222   3.652   4.640  17.167  1.0165 -2.3340 -0.6234
14269TIP3    H264223   3.590   4.688  17.037  2.1739 -0.5990 -0.5724
14270TIP3   OH264224   1.519   2.995  14.341  0.3829  0.5066 -0.0413
14270TIP3    H164225   1.512   2.901  14.356 -0.1403  0.0171 -2.7883
14270TIP3    H264226   1.454   3.033  14.400  1.8664 -0.6290  2.4433
14271TIP3   OH264227   4.064   5.450  15.895  1.0058 -0.2270  0.0037
14271TIP3    H164228   4.012   5.506  15.837  1.1451 -1.5647 -1.5033
14271TIP3    H264229   4.000   5.415  15.957 -0.0503 -1.9977 -1.9331
14272TIP3   OH264230   3.663   2.515   2.352  0.8586  0.5460 -0.1729
14272TIP3    H164231   3.690   2.541   2.440  3.2777  0.8771 -0.9466
14272TIP3    H264232   3.660   2.419   2.356  1.5414  0.5288  0.1214
14273TIP3   OH264233   0.827   0.132  13.973 -0.2797 -0.2499 -0.4787
14273TIP3    H164234   0.836   0.123  13.878 -3.2144 -2.0513 -0.6929
14273TIP3    H264235   0.862   0.220  13.991  1.8855 -0.4770 -2.9167
14274TIP3   OH264236   1.153   2.371  13.207 -0.4987 -0.2032 -0.3477
14274TIP3    H164237   1.114   2.285  13.223 -3.7045  1.3453  1.0483
14274TIP3    H264238   1.094   2.414  13.145  0.3418  1.4186 -0.1007
14275TIP3   OH264239   1.393   6.286   4.204  0.2762  0.2422 -0.2629
14275TIP3    H164240   1.438   6.306   4.286 -0.3153 -1.0916  0.4227
14275TIP3    H264241   1.393   6.369   4.156 -0.3820  1.3817  1.5819
14276TIP3   OH264242   3.294   4.160  16.985 -0.1634  0.2581 -0.2758
14276TIP3    H164243   3.386   4.161  16.958  0.4210 -0.3154  1.5385
14276TIP3    H264244   3.297   4.135  17.077 -2.0535  1.7212  0.2350
14277TIP3   OH264245   4.426   0.088  11.414  0.6331 -0.2426  0.0005
14277TIP3    H164246   4.381   0.094  11.330  0.9863  0.5135 -0.1411
14277TIP3    H264247   4.496   0.025  11.400  0.2920 -0.6098 -0.0796
14278TIP3   OH264248   5.097   4.784   0.358 -0.0109 -0.7116 -0.2644
14278TIP3    H164249   5.156   4.853   0.328  0.7623 -1.2082  0.0817
14278TIP3    H264250   5.049   4.758   0.280 -2.0557  1.8139 -0.0138
14279TIP3   OH264251   4.272   5.563  10.782 -0.4971  0.3965 -0.4832
14279TIP3    H164252   4.203   5.625  10.759 -0.6520 -0.0485 -1.2816
14279TIP3    H264253   4.274   5.501  10.708 -0.7445 -0.8824  0.5501
14280TIP3   OH264254   3.814   0.641   4.287  0.0442 -1.0923 -0.1087
14280TIP3    H164255   3.746   0.679   4.231  1.1923  0.2696 -0.6217
14280TIP3    H264256   3.805   0.686   4.370  0.5850 -0.6125 -0.3092
14281TIP3   OH264257   0.956   4.393   1.383  0.0786 -0.1613 -0.7040
14281TIP3    H164258   0.919   4.362   1.301 -0.3625 -0.5121 -0.3748
14281TIP3    H264259   0.971   4.314   1.435 -2.5936  0.1933  0.8089
14282TIP3   OH264260   5.012   4.873   3.364  0.7743 -0.2380  0.3302
14282TIP3    H164261   5.021   4.831   3.279 -0.6685  1.1843 -0.5581
14282TIP3    H264262   5.039   4.805   3.427 -0.7877 -2.2523 -1.0743
14283TIP3   OH264263   3.674   0.630  14.097  0.0296  0.3222  0.2175
14283TIP3    H164264   3.713   0.548  14.066 -0.3349  0.0309  0.5275
14283TIP3    H264265   3.674   0.687  14.019 -1.5045 -0.6312 -0.5144
14284TIP3   OH264266   3.455   3.891   4.422 -0.0964 -0.8027  0.2427
14284TIP3    H164267   3.513   3.967   4.419 -1.6416  0.4093 -0.2162
14284TIP3    H264268   3.492   3.836   4.491  1.3703  0.0930  0.2227
14285TIP3   OH264269   2.241   1.129  12.586  0.4181 -0.6721  0.6694
14285TIP3    H164270   2.320   1.082  12.557 -0.4135 -1.2123 -0.8301
14285TIP3    H264271   2.170   1.066  12.573 -0.4416  0.2893  0.6224
14286TIP3   OH264272   4.468   6.701  13.502  0.5172  0.2841 -0.2867
14286TIP3    H164273   4.380   6.727  13.530  0.0803 -0.7675 -0.5992
14286TIP3    H264274   4.472   6.607  13.521  1.0976  0.0488 -1.4383
14287TIP3   OH264275   6.425   3.542   0.157  0.0146 -0.4093  0.0670
14287TIP3    H164276   6.375   3.470   0.196 -2.5146  1.1181 -0.0906
14287TIP3    H264277   6.376   3.621   0.181  0.5551  0.9496 -2.8210
14288TIP3   OH264278   2.885   3.398   1.627 -0.1858  0.4737  0.3951
14288TIP3    H164279   2.921   3.463   1.688  0.0086  0.1550  0.6290
14288TIP3    H264280   2.963   3.361   1.584 -0.3499  0.9853 -0.3447
14289TIP3   OH264281   0.342   2.688  14.392 -0.1944  0.1302 -0.6251
14289TIP3    H164282   0.247   2.695  14.383 -0.2537 -0.3703 -0.4688
14289TIP3    H264283   0.375   2.692  14.303 -0.4018 -0.1401 -0.7161
14290TIP3   OH264284   3.833   6.790  15.201  0.0785 -0.0563 -0.0957
14290TIP3    H164285   3.820   6.705  15.243  0.1914  0.8213  1.8069
14290TIP3    H264286   3.750   6.807  15.156 -0.5811 -0.4096  0.9524
14291TIP3   OH264287   2.551   5.119  15.544 -0.2069 -0.4109  0.0081
14291TIP3    H164288   2.466   5.092  15.509  0.2071 -0.8962 -0.6303
14291TIP3    H264289   2.576   5.195  15.492 -0.5368  0.1381  0.6247
14292TIP3   OH264290   3.363   2.154   2.481 -0.2691  0.2172 -0.1725
14292TIP3    H164291   3.401   2.115   2.402 -0.4439 -1.9614  0.7484
14292TIP3    H264292   3.337   2.079   2.534 -0.9763  1.6388  1.5713
14293TIP3   OH264293   4.758   4.533  16.460  0.4971 -0.1531 -0.2149
14293TIP3    H164294   4.784   4.510  16.549  1.4036  1.6644  0.0454
14293TIP3    H264295   4.714   4.618  16.469 -0.7826 -0.6559 -1.3230
14294TIP3   OH264296   3.687   4.200  13.006  0.1562  0.7822 -0.5568
14294TIP3    H164297   3.717   4.142  12.936  0.2624  0.1971 -0.0379
14294TIP3    H264298   3.767   4.224  13.053 -0.0253  0.2987  0.0138
14295TIP3   OH264299   1.037   0.954  11.287 -0.6716  0.7096 -0.1750
14295TIP3    H164300   1.039   1.050  11.297  1.3623  0.5100  2.5924
14295TIP3    H264301   1.114   0.934  11.234 -1.1140  0.5931 -0.7784
14296TIP3   OH264302   2.288   3.109  11.100  0.0635 -0.0229 -0.1285
14296TIP3    H164303   2.319   3.049  11.032  0.0138  1.2314 -1.2950
14296TIP3    H264304   2.357   3.176  11.106 -1.6880  2.0877 -1.8334
14297TIP3   OH264305   0.138   0.458   0.566 -0.2356 -0.0600 -0.2982
14297TIP3    H164306   0.122   0.373   0.606 -0.3021  0.4257  0.7359
14297TIP3    H264307   0.103   0.521   0.629  0.6751  0.7771 -0.6103
14298TIP3   OH264308   4.228   5.985  14.576 -0.2296 -0.3999 -0.0898
14298TIP3    H164309   4.161   5.929  14.615  1.8865 -3.6658 -0.7856
14298TIP3    H264310   4.287   6.007  14.649 -1.5726  2.0104  0.4036
14299TIP3   OH264311   6.463   0.800  16.619 -0.5573  0.1001 -0.5769
14299TIP3    H164312   6.377   0.830  16.590 -0.4202  0.1004 -0.9840
14299TIP3    H264313   6.487   0.733  16.556 -0.8398 -0.8433  0.2931
14300TIP3   OH264314   4.581   6.497  12.994  0.1497  0.5189 -0.0854
14300TIP3    H164315   4.571   6.484  13.088 -1.9810 -0.7412 -0.4160
14300TIP3    H264316   4.667   6.538  12.984  2.6633 -3.5129  2.0638
14301TIP3   OH264317   5.923   5.346  15.482  0.0891  0.4579 -0.0980
14301TIP3    H164318   5.860   5.414  15.457  0.5844  0.1859 -2.3642
14301TIP3    H264319   6.009   5.386  15.466  0.4114 -0.2663 -0.2276
14302TIP3   OH264320   6.206   1.134   2.210  0.4673 -0.1489  0.3846
14302TIP3    H164321   6.185   1.076   2.283  2.1937  0.0147  1.0616
14302TIP3    H264322   6.123   1.176   2.188 -0.7334 -2.4360  0.2204
14303TIP3   OH264323   6.237   5.381   0.438 -0.1433  0.5327  0.4270
14303TIP3    H164324   6.199   5.296   0.459  0.8527  0.4370  2.0503
14303TIP3    H264325   6.243   5.426   0.522 -0.6261  2.2202 -0.3980
14304TIP3   OH264326   3.647   3.309  15.787  0.5455 -0.0732  0.0767
14304TIP3    H164327   3.679   3.293  15.875  2.1187 -2.6163 -0.8457
14304TIP3    H264328   3.724   3.339  15.738 -0.0567  0.2432 -0.7119
14305TIP3   OH264329   4.510   2.067   0.535  0.0392 -0.1051 -0.2459
14305TIP3    H164330   4.602   2.090   0.521  0.3217 -0.8138  0.3677
14305TIP3    H264331   4.465   2.100   0.458  0.7786  0.4289 -0.4609
14306TIP3   OH264332   2.145   6.272  10.997 -0.2556  0.0081  0.3781
14306TIP3    H164333   2.202   6.275  11.074  0.0198  0.1462  0.1732
14306TIP3    H264334   2.081   6.342  11.011  0.9329  1.3109 -0.3758
14307TIP3   OH264335   1.021   3.955  12.475 -0.0698  0.2195 -0.3416
14307TIP3    H164336   1.076   3.917  12.407 -0.5585 -2.2967  0.5769
14307TIP3    H264337   1.076   4.024  12.513  1.9958 -1.3067 -0.3354
14308TIP3   OH264338   4.139   0.722  11.126  0.3173  0.2896  0.0577
14308TIP3    H164339   4.085   0.736  11.204  0.7302  0.6361  0.2837
14308TIP3    H264340   4.154   0.810  11.090  1.8018  0.3427  0.7289
14309TIP3   OH264341   4.591   2.420   3.593  0.5050  0.0083  0.3083
14309TIP3    H164342   4.623   2.361   3.525 -1.0896  0.3805 -0.8045
14309TIP3    H264343   4.559   2.497   3.547 -2.1001 -0.3814  1.2454
14310TIP3   OH264344   5.657   5.797  13.263  0.1999 -0.6262 -0.1517
14310TIP3    H164345   5.739   5.840  13.242 -0.3799  0.5845 -0.0360
14310TIP3    H264346   5.604   5.805  13.184 -0.7059  0.8624  0.5486
14311TIP3   OH264347   3.049   4.125  15.845  0.2840  1.0832 -0.1213
14311TIP3    H164348   2.955   4.143  15.845 -0.3054 -1.5736 -1.1327
14311TIP3    H264349   3.075   4.133  15.937 -1.4871 -0.5034  0.5703
14312TIP3   OH264350   1.310   3.107  12.930  0.3536 -0.4585 -0.5243
14312TIP3    H164351   1.284   3.199  12.926  3.6347  0.6476  0.2981
14312TIP3    H264352   1.286   3.079  13.018 -1.0392 -0.5760 -0.9172
14313TIP3   OH264353   6.009   2.631  13.502 -0.9979 -0.8560  0.0316
14313TIP3    H164354   5.991   2.546  13.461 -0.3228 -0.8895 -0.2106
14313TIP3    H264355   6.056   2.608  13.582 -0.3949 -0.6952 -0.2696
14314TIP3   OH264356   4.143   4.202   0.137 -0.6786  0.1823 -0.2379
14314TIP3    H164357   4.237   4.218   0.129 -0.7580  0.4192 -0.7884
14314TIP3    H264358   4.122   4.224   0.228 -0.4258  1.3771 -0.4411
14315TIP3   OH264359   1.084   3.924  12.891 -0.3265  0.3603 -0.0338
14315TIP3    H164360   1.016   3.924  12.958  0.0125  0.3895  0.3117
14315TIP3    H264361   1.166   3.927  12.940 -0.0743  0.2416 -0.4465
14316TIP3   OH264362   1.076   0.157   0.027  0.6140  0.0915  0.8615
14316TIP3    H164363   1.137   0.105   0.079  0.4366  0.3268  1.3084
14316TIP3    H264364   1.069   0.110  -0.056 -0.2025 -1.0667  1.5641
14317TIP3   OH264365   3.944   1.948   0.768 -1.1038  0.2749  0.0492
14317TIP3    H164366   3.932   1.885   0.838  0.0259 -0.8066 -0.6766
14317TIP3    H264367   4.030   1.988   0.785 -0.7498 -0.1043 -0.7744
14318TIP3   OH264368   4.930   6.006  16.719 -0.0706 -0.8231  0.0254
14318TIP3    H164369   4.905   5.987  16.809  1.6742 -1.6757  0.3892
14318TIP3    H264370   4.858   6.058  16.684 -2.2734 -3.0234  0.9443
14319TIP3   OH264371   2.491   3.993   6.240 -0.0091 -0.2948  0.4603
14319TIP3    H164372   2.586   3.988   6.248  0.0007  0.8024  1.2292
14319TIP3    H264373   2.458   3.928   6.303  0.2146  1.6022  2.6315
14320TIP3   OH264374   1.141   1.262  14.391  0.4896 -0.0202  0.4131
14320TIP3    H164375   1.154   1.283  14.299  0.7969  0.4184  0.5508
14320TIP3    H264376   1.096   1.339  14.427  0.3608 -0.1929  0.6252
14321TIP3   OH264377   2.028   2.828  11.749 -0.3789 -0.0791  0.2817
14321TIP3    H164378   2.060   2.855  11.663  0.4037 -1.2365  0.1814
14321TIP3    H264379   2.066   2.892  11.809 -0.2239  0.2420 -0.1538
14322TIP3   OH264380   5.546   2.624  12.583 -0.2025  0.2916 -0.3468
14322TIP3    H164381   5.600   2.620  12.503 -1.9052 -0.4786 -1.5062
14322TIP3    H264382   5.530   2.533  12.606  1.5178  0.4548  1.8334
14323TIP3   OH264383   2.998   3.566   1.828 -0.1399  0.5792 -0.6084
14323TIP3    H164384   3.069   3.622   1.797  0.9874  0.0683  0.9381
14323TIP3    H264385   3.038   3.509   1.893 -1.6883 -0.6745 -0.6700
14324TIP3   OH264386   6.581   5.703   5.094 -0.4362  0.3020  0.1247
14324TIP3    H164387   6.666   5.662   5.108 -0.0313  0.4747 -1.5784
14324TIP3    H264388   6.525   5.633   5.063 -0.1396  0.6925 -1.3817
14325TIP3   OH264389   2.010   1.655   3.224  0.3244 -0.2677  0.2370
14325TIP3    H164390   2.097   1.615   3.222  0.6190  0.3328  0.7499
14325TIP3    H264391   1.975   1.642   3.136  0.7824 -0.8381  0.1332
14326TIP3   OH264392   5.327   4.342   6.238 -0.5732  0.5255  0.2678
14326TIP3    H164393   5.401   4.314   6.292  0.2432  2.2955  0.1432
14326TIP3    H264394   5.256   4.283   6.262  0.4581 -0.2670  1.5027
14327TIP3   OH264395   5.690   1.945  14.767  0.1951  0.1141  0.2797
14327TIP3    H164396   5.748   2.020  14.758 -0.7773  0.8410 -0.2003
14327TIP3    H264397   5.603   1.983  14.782 -0.2809 -0.9140  0.2463
14328TIP3   OH264398   0.608   1.052  15.732 -0.0321 -0.0709 -1.1513
14328TIP3    H164399   0.513   1.053  15.721 -0.2912  1.0526  0.7744
14328TIP3    H264400   0.637   1.136  15.696 -0.2074  1.0030  1.0157
14329TIP3   OH264401   3.529   6.128  11.938  0.5118  0.3781  0.1300
14329TIP3    H164402   3.539   6.045  11.892  0.4785  1.5024 -2.0237
14329TIP3    H264403   3.588   6.188  11.893  1.4755  1.2710  2.4337
14330TIP3   OH264404   4.737   4.535  13.915  0.1040  0.2501  0.3146
14330TIP3    H164405   4.664   4.588  13.948  0.6454 -0.0752  2.1710
14330TIP3    H264406   4.782   4.591  13.852 -0.4584  1.2892  0.8233
14331TIP3   OH264407   1.858   1.810   1.566  0.2297 -0.2817 -0.1673
14331TIP3    H164408   1.933   1.864   1.543 -0.2393  0.0653 -0.9295
14331TIP3    H264409   1.794   1.872   1.602  0.2990 -0.5714  0.4643
14332TIP3   OH264410   0.158   0.900  15.747  0.0218 -0.5953 -0.1757
14332TIP3    H164411   0.180   0.902  15.841 -1.5182  1.5569  0.2226
14332TIP3    H264412   0.084   0.839  15.741  0.8352 -1.6116 -0.2191
14333TIP3   OH264413   3.311   3.559  13.648 -0.3798 -0.0637 -0.1721
14333TIP3    H164414   3.264   3.591  13.571  1.4863  1.6430 -0.6935
14333TIP3    H264415   3.251   3.573  13.721 -0.4592  2.8414 -0.6837
14334TIP3   OH264416   5.869   1.492  15.908 -0.2849  0.5635  0.2375
14334TIP3    H164417   5.798   1.471  15.968  0.0190  0.8817  0.7170
14334TIP3    H264418   5.932   1.421  15.920 -0.9322 -0.2138 -0.8675
14335TIP3   OH264419   2.487   6.222  15.111 -0.1043 -0.0986 -0.4724
14335TIP3    H164420   2.406   6.252  15.153  0.6597  0.0209  1.0158
14335TIP3    H264421   2.483   6.127  15.116  0.8010 -0.0970  1.6989
14336TIP3   OH264422   6.380   3.744   4.052  0.0505  0.4264  0.3680
14336TIP3    H164423   6.425   3.661   4.039  1.5411  1.3359 -0.5694
14336TIP3    H264424   6.391   3.764   4.145  1.7850  0.7040  0.1344
14337TIP3   OH264425   0.812   1.503  15.967 -0.3078  0.6973 -0.0865
14337TIP3    H164426   0.771   1.515  16.052  2.6413  1.4867  1.3607
14337TIP3    H264427   0.826   1.592  15.934 -0.9940  0.4107 -1.2014
14338TIP3   OH264428   5.917   5.304   2.288  0.0458  0.3177 -0.1810
14338TIP3    H164429   5.912   5.370   2.219 -1.0647  2.6658  1.9517
14338TIP3    H264430   5.826   5.291   2.315  0.5195  0.3106  1.5324
14339TIP3   OH264431   3.555   0.221  10.857  0.2055  0.3935  0.8955
14339TIP3    H164432   3.567   0.265  10.773 -0.6873 -0.0693  0.5147
14339TIP3    H264433   3.553   0.127  10.835 -2.8535  0.3251  1.0061
14340TIP3   OH264434   0.579   1.610  14.606  0.2900  0.3528 -0.3899
14340TIP3    H164435   0.583   1.666  14.684  0.7939  0.1093 -0.2371
14340TIP3    H264436   0.670   1.594  14.583  0.1854 -1.1650  0.1208
14341TIP3   OH264437   3.880   1.984  14.223  0.1796  0.7580  0.0583
14341TIP3    H164438   3.830   1.920  14.172  1.2483  0.0117 -0.1004
14341TIP3    H264439   3.962   1.995  14.175  0.7977  0.8041  1.0698
14342TIP3   OH264440   1.427   1.190   3.993 -0.2294  0.6161  0.6533
14342TIP3    H164441   1.483   1.124   3.952  0.3352  1.3104  0.2847
14342TIP3    H264442   1.342   1.148   4.000  0.1004 -0.1231  0.3441
14343TIP3   OH264443   0.931   0.456  14.389 -0.2781  0.0811 -0.5644
14343TIP3    H164444   0.929   0.452  14.294 -3.9210  0.0799 -0.6376
14343TIP3    H264445   0.918   0.549  14.410 -1.1215 -0.1231 -0.1313
14344TIP3   OH264446   6.293   6.700   0.537 -0.8459 -0.4531 -0.0846
14344TIP3    H164447   6.231   6.744   0.595  1.0112 -0.1032  1.7492
14344TIP3    H264448   6.260   6.718   0.449 -2.4940  0.9692  0.7553
14345TIP3   OH264449   5.772   0.901   3.190  0.5055  0.1553 -0.2900
14345TIP3    H164450   5.733   0.925   3.273  0.4224  1.2942 -0.6336
14345TIP3    H264451   5.709   0.931   3.124  1.1131  0.3807 -0.7871
14346TIP3   OH264452   3.387   1.162  11.871  0.3829  0.0961  0.4107
14346TIP3    H164453   3.364   1.080  11.914  1.4137 -0.2152  0.3903
14346TIP3    H264454   3.415   1.136  11.783 -1.1938  0.6747 -0.3069
14347TIP3   OH264455   6.544   1.023   2.208  0.2611  0.4770  0.2230
14347TIP3    H164456   6.511   1.020   2.298 -0.0815 -0.3767  0.0797
14347TIP3    H264457   6.550   1.116   2.188 -1.3998  0.6763  0.4999
14348TIP3   OH264458   2.386   6.024   6.256 -0.1253 -0.2859 -0.1842
14348TIP3    H164459   2.399   6.085   6.328 -1.2554  0.3156 -0.4546
14348TIP3    H264460   2.294   6.034   6.233 -0.3765 -2.2058 -0.1590
14349TIP3   OH264461   5.688   5.233   5.261  0.3454  0.3793  0.2782
14349TIP3    H164462   5.648   5.251   5.347 -0.0119  2.1999 -0.2204
14349TIP3    H264463   5.773   5.195   5.282  0.3099  0.8893  1.4646
14350TIP3   OH264464   2.123   6.185   2.972 -0.5180 -0.2594  0.1224
14350TIP3    H164465   2.171   6.108   3.002 -1.0104 -0.5549  0.1619
14350TIP3    H264466   2.043   6.186   3.025  0.0720  1.0278  1.0563
14351TIP3   OH264467   2.418   3.740  11.294 -0.0997  0.5323  0.0838
14351TIP3    H164468   2.327   3.744  11.323 -0.5998  3.4164 -1.4626
14351TIP3    H264469   2.418   3.679  11.221 -0.6985  0.1816  0.3690
14352TIP3   OH264470   0.081   0.514   4.867 -0.0989 -0.3315  0.2547
14352TIP3    H164471   0.080   0.418   4.861 -0.2270 -0.3084 -0.0973
14352TIP3    H264472   0.146   0.533   4.935  0.9631 -0.6230 -0.6426
14353TIP3   OH264473   2.372   1.568   2.595 -0.3038  0.0458 -0.9433
14353TIP3    H164474   2.349   1.593   2.684  0.8099  1.0074 -0.9065
14353TIP3    H264475   2.311   1.616   2.539  0.3789  1.1245 -0.7777
14354TIP3   OH264476   2.783   0.920   6.036  0.4931 -0.1347  0.2892
14354TIP3    H164477   2.876   0.920   6.056  0.5303  0.0181  0.1230
14354TIP3    H264478   2.744   0.972   6.106  0.6634  0.6711 -0.1927
14355TIP3   OH264479   0.124   3.503   2.671  0.7950 -0.1943  0.2495
14355TIP3    H164480   0.196   3.518   2.610  0.4114 -2.1514 -0.7709
14355TIP3    H264481   0.118   3.408   2.678 -2.6456 -0.2308 -0.9724
14356TIP3   OH264482   6.243   3.255   4.700  0.2744 -0.6325  0.4828
14356TIP3    H164483   6.155   3.218   4.696 -0.0372  0.1767 -1.1871
14356TIP3    H264484   6.229   3.350   4.699  1.1489 -0.4972  0.6983
14357TIP3   OH264485   5.070   5.214  12.310  0.3802  0.0752 -0.6627
14357TIP3    H164486   5.053   5.308  12.308 -0.4315 -0.0759 -1.2940
14357TIP3    H264487   5.038   5.186  12.396  1.6662  0.5515 -0.0090
14358TIP3   OH264488   6.509   4.022  16.356 -0.0817  0.0317 -0.2726
14358TIP3    H164489   6.453   4.069  16.417  1.8157  1.1225  0.7195
14358TIP3    H264490   6.456   3.948  16.327 -2.0567  1.0652  0.4915
14359TIP3   OH264491   2.769   5.804   3.776 -0.3134 -0.0590  0.2656
14359TIP3    H164492   2.846   5.839   3.821  0.4480 -0.3890 -0.7500
14359TIP3    H264493   2.774   5.709   3.791 -1.4830  0.0662  1.6420
14360TIP3   OH264494   0.802   1.063   0.868  0.2888 -0.3775 -0.4784
14360TIP3    H164495   0.889   1.100   0.883 -0.2812  1.4092 -1.2679
14360TIP3    H264496   0.783   1.083   0.776 -0.8442 -0.9937 -0.4013
14361TIP3   OH264497   3.739   4.886  11.278 -0.1444  0.4904  0.2967
14361TIP3    H164498   3.831   4.911  11.273  0.1217 -0.6590 -1.1652
14361TIP3    H264499   3.695   4.941  11.213 -0.7598  1.9854  1.9072
14362TIP3   OH264500   2.989   5.222   5.427  0.2883 -0.0838 -0.4559
14362TIP3    H164501   3.043   5.201   5.351 -0.2740  0.8850 -1.1484
14362TIP3    H264502   2.912   5.166   5.419 -0.7028  1.3873 -1.7103
14363TIP3   OH264503   0.487   6.659   1.766  0.0445  0.3812 -0.1326
14363TIP3    H164504   0.437   6.578   1.760  0.5959 -0.3902  3.4936
14363TIP3    H264505   0.429   6.726   1.731 -3.2361 -0.6475  2.8285
14364TIP3   OH264506   2.015   3.971   1.272 -0.1689  0.3201 -0.6346
14364TIP3    H164507   2.024   3.896   1.213 -0.3737 -1.3088  1.3061
14364TIP3    H264508   2.104   4.003   1.285  0.5308 -2.2321  1.6864
14365TIP3   OH264509   4.195   2.292  14.691  0.3708  0.2290 -0.2374
14365TIP3    H164510   4.123   2.245  14.734  2.0456 -0.8919  1.4750
14365TIP3    H264511   4.188   2.381  14.724 -1.6307  0.8061 -1.9757
14366TIP3   OH264512   3.578   4.320  17.141 -0.2219 -0.3026  0.4879
14366TIP3    H164513   3.497   4.317  17.191  0.2297 -0.4951  1.2236
14366TIP3    H264514   3.591   4.413  17.123 -0.4718 -0.2470  0.5867
14367TIP3   OH264515   4.730   1.180  14.258 -0.1872  0.2819  0.1571
14367TIP3    H164516   4.652   1.167  14.311 -1.6969  0.1386 -1.9843
14367TIP3    H264517   4.799   1.132  14.305 -1.7406 -0.9304  1.3013
14368TIP3   OH264518   2.875   4.746  13.475  0.0376 -0.2131 -0.4066
14368TIP3    H164519   2.885   4.669  13.418 -1.3431  0.0275 -1.0038
14368TIP3    H264520   2.933   4.812  13.437 -1.2565  0.1197 -1.8923
14369TIP3   OH264521   0.195   5.532  15.752  0.0543 -0.9191 -0.2017
14369TIP3    H164522   0.191   5.536  15.847  1.3551  0.4590 -0.1568
14369TIP3    H264523   0.286   5.509  15.733  0.1142 -0.0185 -1.0965
14370TIP3   OH264524   5.477   5.004  11.095 -0.1720 -0.1740 -0.6580
14370TIP3    H164525   5.522   4.924  11.124  0.3863  0.4631  0.2924
14370TIP3    H264526   5.384   4.986  11.112 -0.5163 -1.9201 -3.6402
14371TIP3   OH264527   3.095   4.310   3.904 -0.4836  0.3095 -0.8556
14371TIP3    H164528   3.105   4.391   3.956 -0.6448 -0.8438  1.0788
14371TIP3    H264529   3.181   4.268   3.911 -0.3563  0.3585 -1.9874
14372TIP3   OH264530   4.748   1.250  15.393  0.6788  0.4337 -0.4070
14372TIP3    H164531   4.818   1.185  15.385  1.0873  0.8546 -0.2861
14372TIP3    H264532   4.772   1.303  15.469 -1.7865 -1.8708  2.2286
14373TIP3   OH264533   3.325   0.741  12.158  0.2989 -0.3700  0.8086
14373TIP3    H164534   3.404   0.708  12.202 -0.4759 -0.9015  1.8637
14373TIP3    H264535   3.259   0.674  12.176 -0.3055 -0.0995 -0.3626
14374TIP3   OH264536   6.405   0.329   1.101 -0.1597  0.3949  0.6252
14374TIP3    H164537   6.486   0.369   1.133 -0.6616  1.9873  0.0042
14374TIP3    H264538   6.425   0.302   1.012 -0.9538  3.1564 -0.5151
14375TIP3   OH264539   5.342   2.311   1.795  0.3477 -0.3550 -0.4388
14375TIP3    H164540   5.326   2.251   1.868 -0.6951  1.6331  1.0500
14375TIP3    H264541   5.263   2.304   1.741  1.3559 -2.2602 -1.8160
14376TIP3   OH264542   6.093   0.880  14.924  0.1583  0.1682 -0.3990
14376TIP3    H164543   6.133   0.814  14.868 -0.9013  0.5454 -1.6435
14376TIP3    H264544   6.020   0.915  14.872 -0.3557  1.1082  0.8984
14377TIP3   OH264545   6.398   2.023   4.111  0.9643 -0.0404 -0.0104
14377TIP3    H164546   6.441   1.938   4.105  0.2273 -0.3690 -1.2032
14377TIP3    H264547   6.467   2.087   4.095  1.5710 -0.3965  1.1416
14378TIP3   OH264548   1.567   5.943  14.458 -0.0393  0.0338  1.0602
14378TIP3    H164549   1.585   5.938  14.364 -2.3531  0.4103  0.5326
14378TIP3    H264550   1.612   5.868  14.495 -1.0369 -1.5285 -0.7207
14379TIP3   OH264551   5.759   5.171   4.925 -0.0969 -0.1116 -0.0831
14379TIP3    H164552   5.776   5.101   4.861  1.1122  0.1569 -0.0784
14379TIP3    H264553   5.723   5.125   5.001 -1.4278 -0.4513 -0.8837
14380TIP3   OH264554   3.871   2.333  15.972  0.2117 -0.4830  0.0440
14380TIP3    H164555   3.936   2.403  15.974  0.5242 -0.7752  0.5277
14380TIP3    H264556   3.791   2.373  16.008  0.6318 -0.6020  1.1518
14381TIP3   OH264557   0.790   2.733   2.355  0.0276 -0.3566 -0.3049
14381TIP3    H164558   0.736   2.803   2.392 -1.2183 -1.7083  0.5164
14381TIP3    H264559   0.853   2.713   2.425 -0.4772 -0.9630 -0.0243
14382TIP3   OH264560   5.367   0.760  15.826  0.0266  0.0588  0.2784
14382TIP3    H164561   5.275   0.778  15.848 -0.6293 -2.5489  0.0043
14382TIP3    H264562   5.417   0.798  15.899 -1.3303  0.6808  0.9212
14383TIP3   OH264563   1.902   6.216  11.541  0.1438 -0.6374  0.0009
14383TIP3    H164564   1.872   6.253  11.458  0.2406  0.4188  0.4129
14383TIP3    H264565   1.829   6.163  11.572 -0.6319  0.4456  0.1153
14384TIP3   OH264566   1.788   5.511   5.113  0.6272 -1.0508  0.4910
14384TIP3    H164567   1.859   5.561   5.153  0.8813 -0.2936 -0.8380
14384TIP3    H264568   1.710   5.537   5.161  0.9771 -0.4902  0.7708
14385TIP3   OH264569   5.565   0.586   2.533 -0.3172  0.0472 -0.0890
14385TIP3    H164570   5.485   0.636   2.514 -1.3357 -0.9933  1.2690
14385TIP3    H264571   5.602   0.630   2.610 -1.0471 -1.0522  0.9157
14386TIP3   OH264572   2.842   1.495  14.723  0.2700  0.0011  0.6737
14386TIP3    H164573   2.916   1.523  14.777  0.9675  0.8606 -0.6817
14386TIP3    H264574   2.881   1.451  14.648 -0.7201 -1.9714  1.2385
14387TIP3   OH264575   1.393   1.196  16.637 -0.7849 -0.7726  0.0958
14387TIP3    H164576   1.309   1.242  16.633 -0.2598  0.6518  2.8370
14387TIP3    H264577   1.457   1.264  16.659  0.9057 -2.0144 -0.7502
14388TIP3   OH264578   0.334   2.586   0.773  0.2184  0.7602  0.0280
14388TIP3    H164579   0.293   2.561   0.690  0.1202  3.0966 -0.6995
14388TIP3    H264580   0.280   2.545   0.840 -1.2874  0.9517 -1.0085
14389TIP3   OH264581   2.736   2.926   1.991 -0.0835  0.1518  0.7300
14389TIP3    H164582   2.798   2.973   2.048  0.2965 -0.0536  0.4908
14389TIP3    H264583   2.778   2.927   1.905 -0.0524 -0.6604  0.7271
14390TIP3   OH264584   5.173   3.434   1.235 -0.2336 -0.0334  0.3602
14390TIP3    H164585   5.132   3.475   1.312 -0.5693 -0.0107  0.1724
14390TIP3    H264586   5.164   3.340   1.251 -2.0228 -0.0527 -0.5292
14391TIP3   OH264587   1.425   1.544   5.141 -0.7196 -0.1926  0.0805
14391TIP3    H164588   1.385   1.457   5.151  0.5790 -0.8156  0.1098
14391TIP3    H264589   1.478   1.536   5.062  0.0527  0.3099  0.5337
14392TIP3   OH264590   0.523   1.979   1.937 -0.0776  0.2993 -0.3750
14392TIP3    H164591   0.460   2.036   1.893  0.3107  0.7144 -0.3987
14392TIP3    H264592   0.479   1.894   1.942 -0.4647  0.4722 -0.7826
14393TIP3   OH264593   3.740   0.952  12.673 -0.2984  0.0076 -0.0192
14393TIP3    H164594   3.779   0.928  12.757 -1.3093 -2.6899 -0.2377
14393TIP3    H264595   3.812   0.995  12.625  0.6834  0.3563  1.6655
14394TIP3   OH264596   4.495   0.275  13.916 -0.2473  0.1094  0.2681
14394TIP3    H164597   4.579   0.263  13.959 -0.3239 -1.2860  0.0768
14394TIP3    H264598   4.432   0.286  13.987 -0.3766 -2.2097  0.5780
14395TIP3   OH264599   4.286   6.472  16.443 -0.3323  0.0106  0.5530
14395TIP3    H164600   4.316   6.387  16.478  0.6971  0.1690  0.0909
14395TIP3    H264601   4.349   6.535  16.478  1.2050  0.0876 -2.1266
14396TIP3   OH264602   4.803   1.170   3.108 -0.4504 -0.0888 -0.3339
14396TIP3    H164603   4.714   1.172   3.144 -0.2031 -1.2639  0.3899
14396TIP3    H264604   4.801   1.103   3.041  0.5857 -2.3724  1.7569
14397TIP3   OH264605   1.546   0.443  16.436  0.2187 -0.0260  0.7792
14397TIP3    H164606   1.527   0.423  16.344 -1.7245 -0.0190  1.1571
14397TIP3    H264607   1.524   0.363  16.483 -1.7181  0.9307  1.5800
14398TIP3   OH264608   6.281   4.935  16.917 -0.6360 -0.5623  0.8355
14398TIP3    H164609   6.203   4.958  16.966 -0.3913  1.5121  0.3207
14398TIP3    H264610   6.354   4.958  16.975 -0.3303 -3.3063  1.6833
14399TIP3   OH264611   1.640   5.089  15.331 -1.0311 -0.3466  0.2239
14399TIP3    H164612   1.654   5.019  15.268 -0.5185  0.2562 -0.3562
14399TIP3    H264613   1.546   5.089  15.347 -1.3167  0.0793 -1.2766
14400TIP3   OH264614   2.160   5.556  15.272 -0.0037  0.0401  0.1548
14400TIP3    H164615   2.205   5.532  15.191  2.1417  1.6347  0.7853
14400TIP3    H264616   2.209   5.511  15.341 -0.9442 -0.1793  0.7027
14401TIP3   OH264617   0.348   0.312   5.183 -0.6913 -0.2754  0.2911
14401TIP3    H164618   0.378   0.223   5.202 -1.5124 -0.8393 -0.9301
14401TIP3    H264619   0.254   0.310   5.197 -0.6949  0.4728  0.4508
14402TIP3   OH264620   0.149   6.387   5.652 -0.0279 -0.8599  0.4833
14402TIP3    H164621   0.239   6.354   5.652 -0.0062 -0.8011  0.6693
14402TIP3    H264622   0.155   6.475   5.617 -0.0636 -0.9922  0.1416
14403TIP3   OH264623   0.727   4.353   2.692 -0.0696 -0.2032 -1.1720
14403TIP3    H164624   0.702   4.439   2.660 -0.4598  0.9554  1.9164
14403TIP3    H264625   0.644   4.310   2.714  0.1946 -0.8369 -1.3654
14404TIP3   OH264626   5.616   0.146  15.422 -0.3484 -0.3303  0.2403
14404TIP3    H164627   5.677   0.135  15.348  0.4248 -0.6379  0.9073
14404TIP3    H264628   5.645   0.081  15.486  0.0464  1.0456  1.5016
14405TIP3   OH264629   2.812   6.154  11.234 -0.0006  0.0068 -0.2180
14405TIP3    H164630   2.867   6.079  11.255  0.7467  0.8420  0.8914
14405TIP3    H264631   2.782   6.138  11.144  1.6832 -0.6896 -0.6929
14406TIP3   OH264632   4.708   2.438   5.932  0.0913  0.3829 -0.3508
14406TIP3    H164633   4.672   2.524   5.954  2.2555  0.9997  1.0846
14406TIP3    H264634   4.726   2.398   6.017  1.2254 -0.5571 -1.0155
14407TIP3   OH264635   0.554   4.713  16.727  0.0621 -0.3329  0.7220
14407TIP3    H164636   0.554   4.751  16.815  1.3827 -1.5549  1.2853
14407TIP3    H264637   0.485   4.646  16.730 -0.3894  0.1196  0.5854
14408TIP3   OH264638   1.600   0.445   3.843 -0.2394 -0.1722 -0.0753
14408TIP3    H164639   1.556   0.367   3.810  0.4042  0.6905 -3.2934
14408TIP3    H264640   1.576   0.514   3.781  1.3389  1.5626  1.1415
14409TIP3   OH264641   1.651   2.704  14.267  0.0533 -0.1981 -0.2784
14409TIP3    H164642   1.601   2.722  14.188  1.2344  2.0754 -0.5734
14409TIP3    H264643   1.740   2.733  14.247  0.0961  1.8863  2.3407
14410TIP3   OH264644   1.862   6.621   1.190 -0.1968  0.2502 -0.1628
14410TIP3    H164645   1.801   6.666   1.249  0.6430  2.0998 -0.6254
14410TIP3    H264646   1.854   6.668   1.107 -0.6555 -1.7024 -1.2895
14411TIP3   OH264647   2.023   5.846  13.698 -0.3454 -0.0882  0.0354
14411TIP3    H164648   2.063   5.923  13.739 -2.2677 -0.1556  2.2025
14411TIP3    H264649   1.990   5.794  13.771 -2.1431 -1.2586 -1.5221
14412TIP3   OH264650   1.215   4.452  15.605 -0.5422 -0.2062 -0.3639
14412TIP3    H164651   1.271   4.414  15.673 -1.5068  0.0441  0.6028
14412TIP3    H264652   1.135   4.477  15.652 -1.3277 -0.2467 -1.6445
14413TIP3   OH264653   5.244   2.272   2.315  0.0674  1.1054 -0.4782
14413TIP3    H164654   5.210   2.295   2.402  0.1413  0.6403 -0.3201
14413TIP3    H264655   5.172   2.229   2.271  0.4855 -0.0362 -0.0791
14414TIP3   OH264656   5.468   3.238  11.997  0.2308 -0.0964  0.2861
14414TIP3    H164657   5.506   3.150  12.000  0.2473 -0.0908  3.5873
14414TIP3    H264658   5.389   3.228  11.944  0.1495 -2.1635  0.7221
14415TIP3   OH264659   1.572   1.598   4.058  0.3017  0.0980 -0.0065
14415TIP3    H164660   1.495   1.651   4.079  0.7337  0.3411  1.0721
14415TIP3    H264661   1.547   1.547   3.981 -0.8840  0.2767  0.2441
14416TIP3   OH264662   3.982   3.821  15.887  0.6680 -0.0597 -0.1734
14416TIP3    H164663   3.929   3.755  15.932  0.3183  0.0650 -0.4015
14416TIP3    H264664   4.042   3.853  15.954  1.5953 -1.3874 -0.3098
14417TIP3   OH264665   5.068   2.760  16.653 -0.1769  0.2251 -0.0828
14417TIP3    H164666   4.987   2.725  16.615 -0.7880 -0.6035  1.8189
14417TIP3    H264667   5.038   2.826  16.715  0.4675 -0.8576  1.4561
14418TIP3   OH264668   1.530   6.731  12.406 -0.2244 -0.0838  0.5001
14418TIP3    H164669   1.509   6.640  12.431 -0.6892 -0.3862 -0.9346
14418TIP3    H264670   1.625   6.734  12.407 -0.2067 -0.5289  0.7556
14419TIP3   OH264671   4.189   1.844  12.472 -0.1610 -0.1670  0.0182
14419TIP3    H164672   4.157   1.863  12.384 -1.4034 -0.4476  0.3988
14419TIP3    H264673   4.227   1.927  12.502 -2.0769  0.6803  0.2051
14420TIP3   OH264674   3.920   1.408   4.453  0.3166  0.4344  0.0903
14420TIP3    H164675   3.963   1.487   4.486  1.5039  0.1589 -0.7456
14420TIP3    H264676   3.961   1.392   4.368 -0.5296 -0.5951 -0.1426
14421TIP3   OH264677   3.662   1.043   0.345 -0.3662  0.0821  0.9137
14421TIP3    H164678   3.721   0.995   0.402 -1.1738  0.4289  2.0660
14421TIP3    H264679   3.609   0.976   0.303  2.1325 -0.4409 -1.7682
14422TIP3   OH264680   4.966   6.168  11.435  0.5401 -0.0391  0.6039
14422TIP3    H164681   4.943   6.092  11.488 -0.0486  0.7538  1.5097
14422TIP3    H264682   4.884   6.217  11.426  0.6290 -0.1302 -1.0162
14423TIP3   OH264683   6.623   0.732   4.475 -0.4415 -0.0173 -0.2882
14423TIP3    H164684   6.578   0.749   4.558  0.0869  1.0352 -0.1968
14423TIP3    H264685   6.713   0.713   4.500 -0.1524  0.8452 -0.6419
14424TIP3   OH264686   4.116   2.800   4.452  0.3743 -0.4281  0.0401
14424TIP3    H164687   4.099   2.891   4.426 -0.3110 -0.3218  0.8126
14424TIP3    H264688   4.204   2.801   4.488  0.8488 -0.3264 -1.0825
14425TIP3   OH264689   3.617   1.910   4.676 -0.4086 -0.2998  0.3607
14425TIP3    H164690   3.656   1.898   4.589 -1.1875  0.9008 -0.1787
14425TIP3    H264691   3.558   1.835   4.686 -1.9738  0.6688 -1.1062
14426TIP3   OH264692   3.314   5.788  17.109  0.5588  0.0679 -0.8860
14426TIP3    H164693   3.392   5.758  17.155 -1.8477 -3.6961  1.3595
14426TIP3    H264694   3.272   5.848  17.170 -1.0481 -2.5023  0.7654
14427TIP3   OH264695   0.755   0.138   0.697  0.0177  0.1649  0.2493
14427TIP3    H164696   0.715   0.217   0.735 -2.1800  0.0311 -1.5379
14427TIP3    H264697   0.760   0.076   0.770 -2.6476  0.4033  0.7275
14428TIP3   OH264698   0.748   2.692  10.846  0.3317 -0.5617 -0.3804
14428TIP3    H164699   0.772   2.777  10.809  0.2139  0.7711  2.3543
14428TIP3    H264700   0.654   2.698  10.859 -0.1404 -2.2117 -2.5969
14429TIP3   OH264701   4.867   3.615   2.240 -0.0277  0.4639  0.3258
14429TIP3    H164702   4.841   3.673   2.312  1.2808  0.6777  0.6579
14429TIP3    H264703   4.947   3.654   2.206  1.2062 -1.4253  0.9105
14430TIP3   OH264704   0.827   4.020   1.366  0.0769  0.3382  0.2684
14430TIP3    H164705   0.834   4.061   1.280  0.0505 -0.8568 -0.3201
14430TIP3    H264706   0.902   4.053   1.415  1.2316 -0.5269 -0.8873
14431TIP3   OH264707   0.846   6.060   3.369  0.7527  0.6770  0.4619
14431TIP3    H164708   0.897   6.099   3.439  3.6977  1.0766 -1.7171
14431TIP3    H264709   0.810   6.134   3.320 -0.5909  0.4182  1.0070
14432TIP3   OH264710   1.063   4.046   5.476 -0.4719 -0.8497  0.1903
14432TIP3    H164711   0.994   4.028   5.540  0.3059 -0.8138  1.0578
14432TIP3    H264712   1.072   3.963   5.428  0.0979 -1.4400  1.2717
14433TIP3   OH264713   1.009   0.023  12.519  0.4946  0.5618 -0.1140
14433TIP3    H164714   0.927   0.071  12.505  0.5910  1.5746  2.3601
14433TIP3    H264715   1.077   0.083  12.490  0.4417 -0.0470 -1.5990
14434TIP3   OH264716   0.001   2.523   3.957  0.2012  0.0274 -0.3170
14434TIP3    H164717   0.062   2.589   3.924 -1.1344  1.2924 -0.3223
14434TIP3    H264718   0.030   2.442   3.915  1.0019  0.8548 -1.4372
14435TIP3   OH264719   4.337   1.128  12.902  0.2630 -0.5155  0.0753
14435TIP3    H164720   4.330   1.112  12.996  0.8317 -0.4671  0.1283
14435TIP3    H264721   4.372   1.217  12.895  0.2138 -0.5149 -0.1832
14436TIP3   OH264722   2.423   2.700   3.579 -0.1733 -0.5082  0.5076
14436TIP3    H164723   2.405   2.794   3.579  1.2748 -0.0603 -3.0832
14436TIP3    H264724   2.342   2.660   3.549 -0.4885 -0.3514  1.1188
14437TIP3   OH264725   6.184   3.639   2.318  0.5231  0.0324  0.2509
14437TIP3    H164726   6.142   3.555   2.303 -1.5087  0.8204  1.1968
14437TIP3    H264727   6.160   3.692   2.241  0.7112  0.1484  0.2712
14438TIP3   OH264728   3.862   0.791  10.940 -0.1154  0.3619  0.4645
14438TIP3    H164729   3.789   0.799  10.879  0.2156 -0.7821 -0.1258
14438TIP3    H264730   3.845   0.709  10.987  1.2224 -0.4256 -0.3313
14439TIP3   OH264731   2.278   4.531  16.982 -0.1187 -0.0431  0.3753
14439TIP3    H164732   2.241   4.494  17.062  0.6890 -0.4070  0.5853
14439TIP3    H264733   2.211   4.513  16.915 -1.4190  1.4873  1.2100
14440TIP3   OH264734   2.375   4.132  12.176  0.0874 -0.3094  0.2351
14440TIP3    H164735   2.336   4.216  12.150  2.1394  0.6192 -0.0904
14440TIP3    H264736   2.467   4.139  12.147  0.2934 -2.7132  0.1285
14441TIP3   OH264737   2.162   3.366   1.381 -0.2297  0.3878 -0.0873
14441TIP3    H164738   2.244   3.388   1.337 -0.8194  0.1511 -1.3465
14441TIP3    H264739   2.187   3.299   1.445  1.2284  3.1169  2.4334
14442TIP3   OH264740   2.455   1.826   2.333 -0.0391  0.8367  0.8205
14442TIP3    H164741   2.491   1.747   2.374 -3.6249 -2.6182 -1.8522
14442TIP3    H264742   2.430   1.882   2.406  1.8536 -0.8480  2.9298
14443TIP3   OH264743   2.100   4.971  12.992  0.6708 -0.0063 -0.0101
14443TIP3    H164744   2.071   5.051  13.036 -1.4040 -0.9159  0.3850
14443TIP3    H264745   2.161   4.930  13.053 -0.8389 -0.3718  1.3223
14444TIP3   OH264746   4.707   5.049  15.665 -0.2023 -0.1108  0.0544
14444TIP3    H164747   4.619   5.086  15.670 -0.2611 -0.1331 -0.7176
14444TIP3    H264748   4.694   4.959  15.636 -0.0283 -0.6390  1.5062
14445TIP3   OH264749   5.926   1.641  14.837 -0.2595 -0.2086 -0.4375
14445TIP3    H164750   5.946   1.734  14.825 -0.0526 -0.2913 -0.7506
14445TIP3    H264751   6.010   1.597  14.828 -0.4263 -0.4657 -0.7758
14446TIP3   OH264752   6.519   4.990  14.132  0.2311 -0.3404 -0.4317
14446TIP3    H164753   6.570   5.043  14.070 -1.2145 -0.2680 -1.5905
14446TIP3    H264754   6.459   5.052  14.173 -1.6359 -1.0548 -1.9628
14447TIP3   OH264755   5.991   6.478  14.284 -0.3900 -0.1685 -0.0605
14447TIP3    H164756   5.901   6.459  14.310 -0.2013  0.4608  1.1226
14447TIP3    H264757   6.006   6.568  14.313 -0.2444  0.7369 -2.6937
14448TIP3   OH264758   6.521   5.172  11.341 -0.3661 -0.3898  0.9071
14448TIP3    H164759   6.468   5.100  11.306 -1.1185  0.1887  0.8304
14448TIP3    H264760   6.585   5.189  11.272 -0.9916 -0.1535  0.3659
14449TIP3   OH264761   2.616   2.840  13.601 -0.0492 -0.2005 -0.4651
14449TIP3    H164762   2.552   2.900  13.561 -1.4033 -1.8974 -0.9549
14449TIP3    H264763   2.619   2.765  13.541  0.2604 -1.4088  1.0017
14450TIP3   OH264764   2.408   1.323  15.666 -0.5542  0.1670  0.3849
14450TIP3    H164765   2.371   1.327  15.754  1.5035  0.8955  1.2851
14450TIP3    H264766   2.367   1.396  15.619 -1.4852 -0.0854  0.7784
14451TIP3   OH264767   2.671   2.063  13.975  0.0672 -0.4557 -0.1587
14451TIP3    H164768   2.703   1.981  14.012 -1.3086  0.0527  2.3528
14451TIP3    H264769   2.749   2.119  13.972  0.4512 -0.8809  1.0318
14452TIP3   OH264770   2.676   5.913  14.028  0.4628 -0.3118 -0.2278
14452TIP3    H164771   2.724   5.983  13.984  3.3616 -1.4878  0.7995
14452TIP3    H264772   2.605   5.958  14.074  0.1275  1.4592 -2.2966
14453TIP3   OH264773   1.233   5.291   3.474  0.1211 -0.3833 -0.6249
14453TIP3    H164774   1.151   5.338   3.492  0.4397  0.4211 -1.2189
14453TIP3    H264775   1.235   5.282   3.378  1.5053  1.0633 -0.7662
14454TIP3   OH264776   1.792   0.506  16.602 -0.2354 -0.4985 -0.3477
14454TIP3    H164777   1.722   0.517  16.538 -0.0199 -3.2100 -1.1732
14454TIP3    H264778   1.757   0.445  16.666 -0.0919  1.4461  1.6790
14455TIP3   OH264779   0.309   2.472   6.381 -0.4306  0.0482 -0.5515
14455TIP3    H164780   0.220   2.506   6.373 -1.0699 -1.8107 -2.1081
14455TIP3    H264781   0.313   2.435   6.470 -1.2561  0.0017 -0.5285
14456TIP3   OH264782   6.769   5.366   3.874  0.5628  1.3371  0.4641
14456TIP3    H164783   6.713   5.304   3.921  1.3767  0.4916  0.3286
14456TIP3    H264784   6.848   5.317   3.853 -0.1274  1.3300 -2.6647
14457TIP3   OH264785   3.741   0.329  11.251 -0.1255  0.1344  0.0767
14457TIP3    H164786   3.749   0.424  11.262  2.3983  0.1609 -1.2935
14457TIP3    H264787   3.723   0.297  11.340  1.5069  1.7099  1.0619
14458TIP3   OH264788   3.611   2.819  14.403  0.3569 -0.6477  0.0460
14458TIP3    H164789   3.638   2.738  14.447 -0.3363 -0.6518  0.4828
14458TIP3    H264790   3.614   2.885  14.472  1.7293 -0.1143 -0.5017
14459TIP3   OH264791   5.112   1.270   1.808  0.5756  0.0822  0.1813
14459TIP3    H164792   5.200   1.277   1.771  0.1369  1.6484 -0.6552
14459TIP3    H264793   5.061   1.230   1.737  0.1396  1.3206 -0.2225
14460TIP3   OH264794   6.659   3.320   3.149 -0.1010 -0.0484 -0.5896
14460TIP3    H164795   6.615   3.241   3.180  1.4857 -0.3071  1.2013
14460TIP3    H264796   6.704   3.354   3.226 -0.2055  2.2560 -1.4899
14461TIP3   OH264797   1.206   5.730   3.474  0.3422 -0.0516 -0.1398
14461TIP3    H164798   1.259   5.715   3.396  0.8268 -1.5659  0.4473
14461TIP3    H264799   1.162   5.813   3.457  1.8867  0.6011 -1.2060
14462TIP3   OH264800   4.307   3.667   5.880  0.6455  0.1043  0.3863
14462TIP3    H164801   4.258   3.676   5.798 -0.3645 -1.8324  0.7295
14462TIP3    H264802   4.387   3.622   5.856  1.1358  1.0366  0.2250
14463TIP3   OH264803   4.114   4.266  15.057  0.6313  0.5364  0.2827
14463TIP3    H164804   4.180   4.335  15.049  0.7997  0.2832 -0.5921
14463TIP3    H264805   4.163   4.189  15.088  0.6641  0.4750  0.0786
14464TIP3   OH264806   4.983   2.466   2.920 -0.3991 -0.4765 -0.5560
14464TIP3    H164807   4.969   2.469   3.015  0.4419 -0.6445 -0.4237
14464TIP3    H264808   4.920   2.402   2.888 -2.2908  1.2109 -0.4151
14465TIP3   OH264809   3.366   1.061   1.931  0.3783  0.4477  0.4591
14465TIP3    H164810   3.394   1.145   1.894  1.3582 -1.0619 -2.6006
14465TIP3    H264811   3.446   1.020   1.962  1.1147 -1.6547 -3.4815
14466TIP3   OH264812   1.821   2.284   4.695 -0.6725 -0.0513  0.1040
14466TIP3    H164813   1.908   2.309   4.723 -0.5021  0.0745 -0.5276
14466TIP3    H264814   1.767   2.290   4.775 -0.1174 -0.1058  0.4865
14467TIP3   OH264815   4.662   1.493  11.992  0.2052 -0.0798 -0.7775
14467TIP3    H164816   4.696   1.467  12.078  0.0940 -0.1046 -0.7400
14467TIP3    H264817   4.613   1.574  12.009 -3.1337 -2.0446 -0.0542
14468TIP3   OH264818   3.329   2.593   5.791 -0.3215  0.0163 -0.3875
14468TIP3    H164819   3.420   2.609   5.816 -1.1686  2.2625  1.7226
14468TIP3    H264820   3.322   2.628   5.702  0.8107  0.0097 -0.4977
14469TIP3   OH264821   4.156   1.792  11.014 -0.6143 -0.3258 -0.7928
14469TIP3    H164822   4.188   1.821  10.928 -0.0044 -1.4917 -0.9739
14469TIP3    H264823   4.193   1.705  11.026 -3.2448 -1.5187 -0.7230
14470TIP3   OH264824   2.867   1.279   2.784 -0.7407  0.4644  0.0171
14470TIP3    H164825   2.898   1.338   2.853 -0.9214  1.1611 -0.4855
14470TIP3    H264826   2.777   1.306   2.767 -0.4148  0.9034 -1.1187
14471TIP3   OH264827   6.150   5.265   6.547  0.4585 -0.1933  0.0404
14471TIP3    H164828   6.152   5.360   6.542 -2.1413 -0.0523  0.2594
14471TIP3    H264829   6.200   5.243   6.626  0.4361  1.0425  0.4102
14472TIP3   OH264830   2.086   4.750  11.635  0.5449 -0.1381  0.8207
14472TIP3    H164831   2.158   4.689  11.652  1.0092 -0.0865 -0.8166
14472TIP3    H264832   2.117   4.833  11.671  0.0019 -0.7719  2.8635
14473TIP3   OH264833   6.718   0.337   6.109  0.3891  0.6157 -0.0165
14473TIP3    H164834   6.757   0.343   6.022 -0.5860 -0.0264 -0.5057
14473TIP3    H264835   6.679   0.250   6.113  2.2946 -0.2474  1.8776
14474TIP3   OH264836   6.120   5.437  12.794  0.0877 -0.2622  0.5377
14474TIP3    H164837   6.058   5.416  12.723  0.8030 -0.0840 -0.1548
14474TIP3    H264838   6.151   5.525  12.773  0.1077 -0.0988  1.2333
14475TIP3   OH264839   3.972   4.662   3.034  0.3703 -0.1236 -0.3429
14475TIP3    H164840   4.022   4.736   3.065  2.0761 -0.9116 -1.0627
14475TIP3    H264841   3.915   4.638   3.107  0.8823  0.9445  0.4265
14476TIP3   OH264842   3.367   3.863   2.947  0.2845 -0.2532  0.1427
14476TIP3    H164843   3.292   3.853   2.889 -1.6300  2.5590  1.9258
14476TIP3    H264844   3.339   3.823   3.029  0.8841  0.4322  0.6927
14477TIP3   OH264845   3.435   0.104  11.873 -0.0205 -0.5831  0.1337
14477TIP3    H164846   3.527   0.113  11.847  0.1219  1.4803  1.1956
14477TIP3    H264847   3.426   0.011  11.894  1.9678 -0.7455  0.4759
14478TIP3   OH264848   1.543   6.659   4.232 -0.0217  0.5144  0.9934
14478TIP3    H164849   1.611   6.593   4.242 -1.5331 -1.4229 -0.6572
14478TIP3    H264850   1.506   6.670   4.320 -0.1187 -1.3104  1.2143
14479TIP3   OH264851   2.253   0.587  17.115  0.1538  0.0199  0.1027
14479TIP3    H164852   2.203   0.638  17.051 -0.3412 -1.3610 -0.6426
14479TIP3    H264853   2.345   0.606  17.095  0.0196 -0.7989 -1.3849
14480TIP3   OH264854   4.374   0.619  15.597  0.1538 -0.0287  0.0884
14480TIP3    H164855   4.288   0.578  15.612 -0.1217  0.5111  0.0067
14480TIP3    H264856   4.424   0.598  15.675  0.0998 -0.7205 -0.0493
14481TIP3   OH264857   6.106   3.963  12.597  0.0432  0.0625 -0.1799
14481TIP3    H164858   6.195   3.956  12.563  0.3094 -2.2338  0.7814
14481TIP3    H264859   6.099   3.892  12.660 -2.5057  0.1423 -0.2648
14482TIP3   OH264860   2.158   1.709  11.871 -0.7801 -0.6552 -0.2804
14482TIP3    H164861   2.162   1.802  11.892 -0.0020 -0.7500  0.0239
14482TIP3    H264862   2.073   1.680  11.904 -0.5051 -0.3202  0.7719
14483TIP3   OH264863   5.763   3.162   5.280 -0.0152 -0.4663 -0.1035
14483TIP3    H164864   5.675   3.174   5.315  0.8597  1.4335  1.6687
14483TIP3    H264865   5.776   3.237   5.222  0.7489 -0.1827  0.4166
14484TIP3   OH264866   2.677   2.079   1.947  0.0252  0.7723 -0.2468
14484TIP3    H164867   2.695   2.079   1.853 -0.1693 -0.4218 -0.2918
14484TIP3    H264868   2.594   2.033   1.956  0.1403  0.7074  0.5346
14485TIP3   OH264869   5.940   5.824  13.373 -0.2721 -0.1288 -0.5873
14485TIP3    H164870   6.008   5.771  13.413 -0.9364 -1.0639 -0.6661
14485TIP3    H264871   5.951   5.813  13.279  0.9110  1.5903 -0.6906
14486TIP3   OH264872   0.105   4.061   4.890 -0.3673  0.2179  0.2449
14486TIP3    H164873   0.173   3.994   4.882  0.0987  0.6599  0.4430
14486TIP3    H264874   0.042   4.025   4.951  0.9525  0.8151  2.0537
14487TIP3   OH264875   3.603   5.815  11.972  0.5008 -0.0672 -0.3545
14487TIP3    H164876   3.677   5.871  11.996 -0.5683  1.7396 -0.9953
14487TIP3    H264877   3.599   5.821  11.877 -0.5226 -0.0217 -0.3188
14488TIP3   OH264878   3.704   5.720   4.876  0.9084 -0.4186 -0.0366
14488TIP3    H164879   3.756   5.719   4.956 -0.9643  0.3226  1.2832
14488TIP3    H264880   3.680   5.629   4.861  1.2208 -0.5561  0.2854
14489TIP3   OH264881   1.576   1.181  11.933 -0.0477  0.2929  0.3576
14489TIP3    H164882   1.482   1.175  11.916  0.2213  0.6568 -1.4524
14489TIP3    H264883   1.592   1.275  11.945  0.3731  0.4635 -1.3629
14490TIP3   OH264884   5.568   6.525   0.754 -0.9569  0.4034 -0.1408
14490TIP3    H164885   5.652   6.481   0.771  0.0785  2.5332  0.5858
14490TIP3    H264886   5.532   6.541   0.841 -1.2313  1.0979 -0.3764
14491TIP3   OH264887   4.341   2.730  13.327 -0.0409 -0.4818 -0.6302
14491TIP3    H164888   4.408   2.799  13.325 -1.0305  0.5958  1.0123
14491TIP3    H264889   4.383   2.655  13.286  1.4616  0.7684 -1.4806
14492TIP3   OH264890   4.963   6.002   3.171  0.2937 -0.5875 -0.0056
14492TIP3    H164891   4.894   5.990   3.106  0.4684  1.4212 -0.6285
14492TIP3    H264892   5.038   5.954   3.135  0.3134  0.2805 -1.1691
14493TIP3   OH264893   6.678   0.551   3.042 -0.3894  0.1631  0.8820
14493TIP3    H164894   6.613   0.487   3.073  0.4163 -0.7778  0.6744
14493TIP3    H264895   6.625   0.626   3.015 -1.5736 -1.1584 -0.7508
14494TIP3   OH264896   6.199   2.177   1.432 -0.0633  0.2544 -0.0122
14494TIP3    H164897   6.181   2.178   1.526  1.3863  0.3816  0.2862
14494TIP3    H264898   6.217   2.085   1.411 -2.5992 -0.1567 -0.6529
14495TIP3   OH264899   1.841   4.555   0.959 -0.4270  0.3212  0.0375
14495TIP3    H164900   1.901   4.622   0.991  0.7721 -0.0267 -1.4097
14495TIP3    H264901   1.792   4.529   1.037  1.8060  0.0699  1.4519
14496TIP3   OH264902   2.967   1.775   6.453 -0.2432  0.1836  0.0802
14496TIP3    H164903   2.912   1.800   6.527  0.6940 -0.6402  1.0962
14496TIP3    H264904   3.041   1.837   6.457  0.7501 -1.0055  1.0035
14497TIP3   OH264905   0.863   3.121   2.369 -0.4695 -0.0604 -0.0920
14497TIP3    H164906   0.891   3.189   2.308  0.6117 -0.2483  0.1754
14497TIP3    H264907   0.800   3.069   2.320 -0.8259  0.7566 -0.5058
14498TIP3   OH264908   3.312   0.164  15.776 -0.3624 -0.1104 -0.2103
14498TIP3    H164909   3.397   0.197  15.746 -0.3548  0.5964  0.5343
14498TIP3    H264910   3.250   0.231  15.749 -0.3440  0.6002  1.3700
14499TIP3   OH264911   2.651   5.813  11.617 -0.0409  0.6025 -0.0932
14499TIP3    H164912   2.590   5.745  11.588 -0.3147  0.4731  0.7414
14499TIP3    H264913   2.622   5.892  11.571 -0.0888  0.2874 -0.6145
14500TIP3   OH264914   5.954   1.146   1.057  0.2435 -0.3270  0.1671
14500TIP3    H164915   5.978   1.119   1.146 -0.9778 -2.1280  0.0118
14500TIP3    H264916   5.858   1.141   1.056  0.1477  1.2018 -0.8140
14501TIP3   OH264917   0.129   1.911   6.529  0.4095  0.6238 -0.2249
14501TIP3    H164918   0.042   1.949   6.535  0.1120 -0.0347 -0.3426
14501TIP3    H264919   0.186   1.985   6.506 -0.4968  0.6222 -2.8210
14502TIP3   OH264920   4.690   3.056  14.219 -0.3089  0.2902 -0.0137
14502TIP3    H164921   4.596   3.067  14.229 -0.2852 -0.8218  1.9551
14502TIP3    H264922   4.699   2.983  14.158 -0.6964  0.6143 -0.4679
14503TIP3   OH264923   1.764   4.646   1.607 -0.3686 -0.2236 -0.0746
14503TIP3    H164924   1.690   4.586   1.594 -0.0019 -0.5074 -0.9471
14503TIP3    H264925   1.730   4.731   1.579 -0.5625 -0.2266  0.1476
14504TIP3   OH264926   1.888   3.684  11.659  0.4538 -0.8372 -0.0564
14504TIP3    H164927   1.811   3.631  11.639 -0.4521  1.0794 -2.1538
14504TIP3    H264928   1.961   3.622  11.661 -0.6470 -2.2779 -1.5819
14505TIP3   OH264929   5.640   6.085  12.642  0.1733 -0.4954  0.7055
14505TIP3    H164930   5.551   6.108  12.615  0.4218  0.1798  0.4453
14505TIP3    H264931   5.674   6.164  12.684  0.7932 -0.6119  0.4365
14506TIP3   OH264932   0.810   4.331   2.353  0.8107  0.0736  0.2934
14506TIP3    H164933   0.723   4.294   2.360 -0.3079  2.0520 -1.8474
14506TIP3    H264934   0.867   4.266   2.394 -1.6019 -1.3733  1.5746
14507TIP3   OH264935   2.381   3.869  12.260  0.5192 -0.1149  0.3914
14507TIP3    H164936   2.385   3.882  12.355 -0.0767  2.3749  0.1468
14507TIP3    H264937   2.360   3.956  12.225  1.2023 -0.8646 -2.0673
14508TIP3   OH264938   2.582   2.265  16.718 -0.8623  0.2140  0.3710
14508TIP3    H164939   2.579   2.328  16.791  2.3855 -0.8124  1.5506
14508TIP3    H264940   2.634   2.192  16.751 -2.1853 -1.9248 -1.8890
14509TIP3   OH264941   5.769   3.692  11.456 -0.2046 -1.0413  0.0748
14509TIP3    H164942   5.687   3.692  11.505 -0.6952 -0.2866 -0.7374
14509TIP3    H264943   5.747   3.652  11.372 -0.8994  3.0855 -1.9521
14510TIP3   OH264944   1.925   0.305   4.931  0.4900  0.0061 -0.1737
14510TIP3    H164945   1.838   0.340   4.913 -0.6062 -3.0045 -1.4507
14510TIP3    H264946   1.919   0.272   5.020  1.1324  1.7861  0.5769
14511TIP3   OH264947   0.425   6.365   4.311 -0.1243 -0.0554 -0.4856
14511TIP3    H164948   0.371   6.380   4.388  0.9669  0.0801  0.2733
14511TIP3    H264949   0.432   6.450   4.269  0.1008  0.0788 -0.1780
14512TIP3   OH264950   2.070   4.960   0.264  0.0924 -0.5193  0.7991
14512TIP3    H164951   1.996   5.012   0.233  0.0376 -1.2750 -0.4100
14512TIP3    H264952   2.033   4.873   0.277  0.6563 -0.7759  0.6907
14513TIP3   OH264953   6.218   5.593  11.698  0.5975  0.6336 -0.2548
14513TIP3    H164954   6.256   5.506  11.714 -0.5140 -0.6018 -3.4747
14513TIP3    H264955   6.293   5.649  11.680  1.2384 -0.2044 -0.2634
14514TIP3   OH264956   0.862   6.353  14.942  0.1366 -0.0320 -0.1546
14514TIP3    H164957   0.916   6.431  14.957  1.6227 -0.6139 -2.0305
14514TIP3    H264958   0.806   6.377  14.869 -0.1668 -0.3597 -0.0302
14515TIP3   OH264959   4.360   2.843   1.949  0.6141 -0.1364 -0.3461
14515TIP3    H164960   4.347   2.920   2.003  0.5058  1.4602 -2.5467
14515TIP3    H264961   4.403   2.780   2.007 -0.2141  1.1789  1.7813
14516TIP3   OH264962   1.437   0.582   3.628 -0.8129 -0.0416 -0.0275
14516TIP3    H164963   1.400   0.494   3.630 -0.9516  0.0276  0.6547
14516TIP3    H264964   1.381   0.630   3.567  0.4705 -0.9380 -2.0406
14517TIP3   OH264965   1.620   1.581  13.276  0.6199 -0.2295  0.2627
14517TIP3    H164966   1.699   1.528  13.289  0.9812 -0.3839 -2.0540
14517TIP3    H264967   1.550   1.517  13.263  0.6576 -0.1290 -0.4635
14518TIP3   OH264968   0.904   0.331   5.901 -0.5396  0.0234  0.5245
14518TIP3    H164969   0.829   0.362   5.952  0.3500 -0.8464  2.4286
14518TIP3    H264970   0.981   0.363   5.948  0.3163 -1.0682 -0.0709
14519TIP3   OH264971   3.323   6.641   0.386 -0.1209 -0.5937 -0.6842
14519TIP3    H164972   3.417   6.642   0.366  0.4230  0.7461  1.5702
14519TIP3    H264973   3.291   6.726   0.355 -0.3449 -0.5842 -0.4285
14520TIP3   OH264974   0.629   6.094  11.631 -0.2485  0.4632  0.3959
14520TIP3    H164975   0.612   6.178  11.590 -1.1649 -0.4822 -1.3005
14520TIP3    H264976   0.662   6.039  11.560  0.3797 -0.6079  1.4684
14521TIP3   OH264977   5.332   4.644  14.123 -0.5385 -0.7098  0.0156
14521TIP3    H164978   5.279   4.662  14.045 -2.0573 -2.2103  0.6374
14521TIP3    H264979   5.344   4.549  14.122  2.6498 -0.4361 -0.3555
14522TIP3   OH264980   1.633   2.011   5.076 -0.5776  0.7040  0.2722
14522TIP3    H164981   1.619   1.926   5.034 -1.1461  0.6420  0.5718
14522TIP3    H264982   1.718   2.002   5.119 -0.4661  0.4128 -0.0007
14523TIP3   OH264983   6.503   1.965  15.463  0.2903  0.0871 -0.3810
14523TIP3    H164984   6.500   2.052  15.502  1.0346 -0.1112  0.1357
14523TIP3    H264985   6.584   1.926  15.498 -0.6545 -1.2621  0.3770
14524TIP3   OH264986   1.746   6.354  15.256 -0.6521  0.3630  0.3642
14524TIP3    H164987   1.835   6.327  15.236  0.1406  4.2149 -2.5624
14524TIP3    H264988   1.691   6.302  15.198  0.1396  0.5929 -0.6158
14525TIP3   OH264989   6.404   1.222   6.396  0.4943  0.0432  0.2877
14525TIP3    H164990   6.381   1.135   6.429 -1.9131  0.7984  0.8163
14525TIP3    H264991   6.480   1.208   6.340  0.9932 -2.1766  1.4290
14526TIP3   OH264992   4.075   4.909   2.734 -0.2799 -0.1328 -0.1342
14526TIP3    H164993   4.130   4.977   2.774 -0.5719  0.1978 -0.2869
14526TIP3    H264994   4.022   4.876   2.807 -1.0925  0.7440 -0.3027
14527TIP3   OH264995   6.468   1.675  12.999  0.0981  0.2029  0.2053
14527TIP3    H164996   6.493   1.605  13.060 -1.1754 -0.3727  0.0939
14527TIP3    H264997   6.376   1.659  12.980 -0.4746  2.3985  0.8153
14528TIP3   OH264998   5.555   3.902  10.527 -1.0261  0.3773  0.3697
14528TIP3    H164999   5.576   3.981  10.477  0.7918  0.3756  1.0372
14528TIP3    H265000   5.598   3.831  10.479  1.6268  0.5018  2.3375
14529TIP3   OH265001   4.931   3.917   3.490 -0.5802 -0.3445 -0.4520
14529TIP3    H165002   4.846   3.877   3.509  0.2243 -1.2834  1.4008
14529TIP3    H265003   4.909   3.997   3.442 -2.4008 -1.4206 -1.5766
14530TIP3   OH265004   1.226   0.343   2.271 -0.0322  0.1787  0.1686
14530TIP3    H165005   1.214   0.267   2.329  0.3531  1.9016  2.6791
14530TIP3    H265006   1.286   0.400   2.319 -2.2810  3.2241 -0.3371
14531TIP3   OH265007   0.223   4.837   3.512  0.0137  0.6158 -0.1203
14531TIP3    H165008   0.271   4.780   3.572  0.3000  1.4580  0.4589
14531TIP3    H265009   0.132   4.829   3.539  0.2995  2.3037  1.6085
14532TIP3   OH265010   2.211   6.540  12.123  0.6699  0.4371 -0.1562
14532TIP3    H165011   2.228   6.621  12.171  1.2329 -0.0435  0.4759
14532TIP3    H265012   2.219   6.564  12.031  1.6724  0.9335  0.0435
14533TIP3   OH265013   5.910   0.854  12.479  0.4162  0.1388  0.1057
14533TIP3    H165014   5.907   0.811  12.393 -0.1033 -0.9504  0.6409
14533TIP3    H265015   5.819   0.879  12.496  0.6082  0.8354  0.1038
14534TIP3   OH265016   0.345   0.631  15.907  0.1310  0.1041  0.5590
14534TIP3    H165017   0.252   0.652  15.904 -0.0436 -0.8375 -0.9410
14534TIP3    H265018   0.349   0.537  15.925  0.7970  0.0968  0.4057
14535TIP3   OH265019   2.558   2.497   1.566  0.5123 -0.2895  0.0496
14535TIP3    H165020   2.493   2.432   1.537  1.0945 -0.7909 -0.1442
14535TIP3    H265021   2.641   2.450   1.564  0.9747  0.5340 -0.3009
14536TIP3   OH265022   2.791   5.374   3.121 -0.3050 -0.5736 -0.2016
14536TIP3    H165023   2.812   5.464   3.097 -1.4205 -0.7889 -2.2381
14536TIP3    H265024   2.850   5.354   3.193 -2.8904  3.2025  3.4105
14537TIP3   OH265025   5.858   6.052   5.657 -0.0329  0.4762  0.3894
14537TIP3    H165026   5.891   5.996   5.727 -0.5735  0.0995  0.3506
14537TIP3    H265027   5.764   6.030   5.651 -0.1858  1.1672  0.1730
14538TIP3   OH265028   0.094   5.106   4.507 -0.6011  0.6555  0.9909
14538TIP3    H165029   0.053   5.114   4.593  1.6701  1.1867  2.0996
14538TIP3    H265030   0.171   5.162   4.512 -0.4656  0.7913 -1.4592
14539TIP3   OH265031   4.813   6.382   4.153  0.4352 -0.0433  0.4694
14539TIP3    H165032   4.724   6.400   4.124  1.3035  0.8132 -1.9391
14539TIP3    H265033   4.855   6.468   4.157  1.1130 -0.4205  1.7411
14540TIP3   OH265034   6.444   6.698  12.353  0.5286  0.4433 -0.4043
14540TIP3    H165035   6.511   6.663  12.295  0.2872  1.0920 -1.0834
14540TIP3    H265036   6.483   6.694  12.441  0.7450 -0.9180 -0.5395
14541TIP3   OH265037   6.480   1.683   3.199  0.0036 -0.6253  0.1831
14541TIP3    H165038   6.502   1.593   3.223 -0.0430 -0.6216  0.2409
14541TIP3    H265039   6.457   1.679   3.106  1.9240 -0.3465 -0.3435
14542TIP3   OH265040   3.146   2.947   4.610  0.1050 -0.2397 -0.5926
14542TIP3    H165041   3.185   3.022   4.656  1.4571 -2.0633  1.5065
14542TIP3    H265042   3.190   2.944   4.525  1.2140  0.4470 -0.0615
14543TIP3   OH265043   4.139   0.186   4.651 -0.5569 -0.1497  0.2284
14543TIP3    H165044   4.150   0.183   4.556 -0.9030 -1.3756  0.2022
14543TIP3    H265045   4.064   0.129   4.668  0.7990 -1.6958  1.3858
14544TIP3   OH265046   2.854   4.761  15.515  0.2512  0.0414  0.0662
14544TIP3    H165047   2.900   4.845  15.515 -2.4387  1.6323 -0.9072
14544TIP3    H265048   2.815   4.754  15.603 -1.4384  1.0220 -0.5580
14545TIP3   OH265049   0.963   6.471   0.489 -0.1511 -0.3502  0.3445
14545TIP3    H165050   0.989   6.557   0.454  0.9175 -0.5643  0.5519
14545TIP3    H265051   0.974   6.411   0.416  1.5013 -0.6977  0.8206
14546TIP3   OH265052   1.419   5.251  14.922  0.0684  0.2923  0.3735
14546TIP3    H165053   1.373   5.304  14.857 -0.6168 -1.0453 -0.2689
14546TIP3    H265054   1.471   5.314  14.972 -0.0396  1.4456 -0.9187
14547TIP3   OH265055   3.636   6.743  12.474 -0.2646 -0.1365 -0.0859
14547TIP3    H165056   3.695   6.815  12.451 -3.0418  2.2896 -0.2488
14547TIP3    H265057   3.576   6.737  12.400 -1.2336 -1.3557  0.7753
14548TIP3   OH265058   1.490   5.589   3.050 -0.4621 -0.0875  0.1756
14548TIP3    H165059   1.468   5.636   2.969  2.2600  0.3575 -0.3879
14548TIP3    H265060   1.454   5.501   3.036  1.7867 -0.7386 -2.6150
14549TIP3   OH265061   3.763   0.393   4.884 -0.5398 -0.3449 -0.4196
14549TIP3    H165062   3.782   0.467   4.942  0.3638 -0.4039 -0.6132
14549TIP3    H265063   3.847   0.377   4.840 -0.8186 -1.2758 -0.6117
14550TIP3   OH265064   0.154   4.822   1.559 -0.2234 -0.3731 -0.1059
14550TIP3    H165065   0.139   4.904   1.605  0.1873  0.3445 -1.2200
14550TIP3    H265066   0.218   4.775   1.613  1.9103  1.3842 -1.0207
14551TIP3   OH265067   4.590   2.173  12.880 -0.0074  0.2142 -0.4217
14551TIP3    H165068   4.564   2.220  12.959 -0.0210 -1.2217  0.4505
14551TIP3    H265069   4.544   2.089  12.886 -1.1861  0.6093 -2.6811
14552TIP3   OH265070   6.638   0.536   4.055  0.2596  0.4090  0.1116
14552TIP3    H165071   6.665   0.502   3.970  0.5752  0.7996  0.0526
14552TIP3    H265072   6.683   0.620   4.063 -1.0376  1.1601 -0.0664
14553TIP3   OH265073   5.618   6.693  15.178 -0.0303  0.1918  0.2508
14553TIP3    H165074   5.645   6.783  15.162  0.9624  0.3852  2.6376
14553TIP3    H265075   5.670   6.641  15.116  0.5974  1.1323 -0.0269
14554TIP3   OH265076   1.397   0.604   1.222  0.5787  0.7495 -0.0586
14554TIP3    H165077   1.337   0.635   1.290  0.7360  0.9093  0.0089
14554TIP3    H265078   1.431   0.684   1.183  1.1851  0.6671  0.2878
14555TIP3   OH265079   2.107   4.256  14.477  0.0166 -0.0736 -0.1853
14555TIP3    H165080   2.059   4.260  14.559 -0.0618  0.6470 -0.2598
14555TIP3    H265081   2.198   4.238  14.503 -0.2788 -1.5408 -0.0492
14556TIP3   OH265082   1.047   1.638  13.816 -0.1482 -0.0563  0.2560
14556TIP3    H165083   1.013   1.660  13.729  0.7826 -0.5739 -0.2499
14556TIP3    H265084   1.129   1.592  13.799 -0.4831 -1.1223  1.3739
14557TIP3   OH265085   1.953   5.653  16.381  0.1146 -0.2086 -0.1746
14557TIP3    H165086   2.022   5.707  16.343 -0.6468  1.5424  0.8267
14557TIP3    H265087   2.000   5.584  16.429  1.1591  0.7685  0.2400
14558TIP3   OH265088   3.905   1.181   4.167  0.1929  0.6976  0.1103
14558TIP3    H165089   3.975   1.120   4.189  0.3725  1.4626  1.7527
14558TIP3    H265090   3.879   1.156   4.078  2.0748 -0.0283 -0.2755
14559TIP3   OH265091   5.901   3.389  15.865  0.1198  0.8788 -0.0851
14559TIP3    H165092   5.947   3.341  15.934  0.2884 -0.2804 -0.9809
14559TIP3    H265093   5.812   3.399  15.898 -0.1265 -0.7344 -0.1796
14560TIP3   OH265094   4.052   6.687   0.120 -0.4578  0.7325  0.2291
14560TIP3    H165095   4.040   6.707   0.027  0.1490 -2.8180 -0.7562
14560TIP3    H265096   4.017   6.599   0.130 -1.4805  1.3746  3.6726
14561TIP3   OH265097   1.102   5.820   0.969 -0.1518 -0.9109 -0.1436
14561TIP3    H165098   1.143   5.821   1.055  0.2950 -0.7390 -0.3525
14561TIP3    H265099   1.171   5.790   0.910  1.5389  4.3799 -1.3766
14562TIP3   OH265100   4.857   1.164  13.186  0.0094  0.2302  0.2401
14562TIP3    H165101   4.932   1.216  13.157 -1.0574  0.4822 -2.4049
14562TIP3    H265102   4.866   1.081  13.140  0.6049 -1.2649  2.8543
14563TIP3   OH265103   3.853   3.805   2.629 -0.8357 -0.8555 -0.1685
14563TIP3    H165104   3.841   3.764   2.543  1.4193 -1.8474 -0.0997
14563TIP3    H265105   3.781   3.771   2.683 -0.4236 -2.8771 -0.7976
14564TIP3   OH265106   5.951   2.491  15.912 -0.5305 -0.1858 -0.1685
14564TIP3    H165107   5.878   2.526  15.963  1.5265  1.5861  1.8161
14564TIP3    H265108   5.989   2.424  15.969 -1.2022 -1.8676 -1.6427
14565TIP3   OH265109   1.720   5.333   1.276  0.2697  0.0504 -0.2999
14565TIP3    H165110   1.783   5.277   1.320  0.4170  0.2425 -0.2658
14565TIP3    H265111   1.672   5.274   1.218 -0.1442 -0.2640  0.3499
14566TIP3   OH265112   0.956   5.259  11.976  0.2176 -0.3014 -0.3934
14566TIP3    H165113   0.974   5.336  11.922 -0.3546  0.1090 -0.0118
14566TIP3    H265114   1.024   5.196  11.952  1.2231  0.6306 -0.0747
14567TIP3   OH265115   3.882   4.292  14.367  0.3441 -0.4312  0.0297
14567TIP3    H165116   3.825   4.367  14.352  1.9748  0.5460 -1.7651
14567TIP3    H265117   3.860   4.262  14.456 -0.5968  1.9282  0.6673
14568TIP3   OH265118   6.791   1.802  14.384 -0.4392 -0.1386  0.3491
14568TIP3    H165119   6.721   1.754  14.339 -0.5462 -1.1276  1.5123
14568TIP3    H265120   6.865   1.741  14.385  0.5807  1.0165 -1.1565
14569TIP3   OH265121   6.577   3.145  12.348 -0.5871  0.2881  0.2000
14569TIP3    H165122   6.577   3.057  12.384  0.2904  0.9660  1.9438
14569TIP3    H265123   6.549   3.201  12.420 -0.3795  1.5335 -0.6501
14570TIP3   OH265124   1.472   4.173   6.045  0.3530 -0.1560  0.3507
14570TIP3    H165125   1.563   4.193   6.024  0.1574 -1.0430 -1.5803
14570TIP3    H265126   1.458   4.212   6.131  2.4516  0.2848  0.5527
14571TIP3   OH265127   1.273   1.042   3.524  0.4142  0.1740  0.2878
14571TIP3    H165128   1.219   1.115   3.493  0.8961  0.8457  0.9876
14571TIP3    H265129   1.249   0.968   3.468 -1.4359  0.3786  0.7349
14572TIP3   OH265130   5.426   1.386  13.418 -0.1305  0.0549 -0.0665
14572TIP3    H165131   5.406   1.324  13.488 -1.0480 -1.5290 -1.6654
14572TIP3    H265132   5.484   1.337  13.359  0.5582  1.3304 -0.4855
14573TIP3   OH265133   5.896   4.952   4.813  0.0986 -0.0979  0.2681
14573TIP3    H165134   5.976   4.956   4.761  1.7096  4.4191  2.5776
14573TIP3    H265135   5.915   4.887   4.881  0.4318 -1.3846 -0.9882
14574TIP3   OH265136   2.040   3.140   0.943  0.3232 -0.0500 -0.2316
14574TIP3    H165137   1.962   3.128   0.998  0.6325 -1.7446 -0.1176
14574TIP3    H265138   2.101   3.074   0.974  1.8822  1.3200 -0.2627
14575TIP3   OH265139   0.113   2.472  16.998  0.1378 -0.4467 -0.0602
14575TIP3    H165140   0.164   2.542  17.039  1.1506 -1.6707  0.8738
14575TIP3    H265141   0.117   2.400  17.061 -1.4531 -1.1240 -0.6859
14576TIP3   OH265142   1.002   2.439   4.585  0.2510  0.4136  0.3480
14576TIP3    H165143   1.074   2.417   4.644 -1.0417 -0.1676  1.7719
14576TIP3    H265144   0.923   2.409   4.630 -0.9672  1.6164 -0.8627
14577TIP3   OH265145   0.729   6.443   0.220 -0.6613 -0.1838 -0.2129
14577TIP3    H165146   0.795   6.462   0.153  0.7720 -1.5862  0.7471
14577TIP3    H265147   0.724   6.523   0.272 -0.6763  0.3833 -1.0614
14578TIP3   OH265148   6.245   2.844   4.207  0.7177 -0.1664  0.2658
14578TIP3    H165149   6.271   2.879   4.292 -1.6326  1.3915  0.4445
14578TIP3    H265150   6.303   2.887   4.144  1.0529  0.3500  0.9154
14579TIP3   OH265151   0.073   0.709  13.811 -0.4983 -0.1533  0.0850
14579TIP3    H165152   0.155   0.740  13.849 -0.4120 -0.7878  0.4252
14579TIP3    H265153   0.098   0.633  13.758 -0.7649  0.1002 -0.4162
14580TIP3   OH265154   6.131   6.309   1.313  0.4328 -0.2890 -0.1448
14580TIP3    H165155   6.048   6.274   1.347  0.9667 -0.7227  0.7447
14580TIP3    H265156   6.107   6.352   1.231 -0.6584 -0.5036  0.0463
14581TIP3   OH265157   3.518   3.108  15.397  0.2146 -0.7899  0.1546
14581TIP3    H165158   3.551   3.020  15.380  0.9237 -0.1223 -2.3901
14581TIP3    H265159   3.445   3.119  15.336  0.6440  0.6294 -0.1607
14582TIP3   OH265160   3.824   5.804  11.412 -0.1469  0.2753  0.0075
14582TIP3    H165161   3.896   5.780  11.353  0.0212 -0.8920  0.6666
14582TIP3    H265162   3.851   5.889  11.448  1.9041 -0.9858  1.7147
14583TIP3   OH265163   1.823   3.381  14.665  0.4793  0.3658 -0.2627
14583TIP3    H165164   1.835   3.291  14.633 -0.4756 -0.2581  1.0631
14583TIP3    H265165   1.907   3.423  14.647  1.0664 -0.8899 -0.6088
14584TIP3   OH265166   5.351   2.201   0.984  0.2551 -0.4810  0.1545
14584TIP3    H165167   5.355   2.120   1.034  0.8377 -0.1570  0.6456
14584TIP3    H265168   5.259   2.227   0.989  0.2530 -0.5933  0.8382
14585TIP3   OH265169   2.141   2.834   0.723 -0.4439 -0.2982 -0.5469
14585TIP3    H165170   2.151   2.739   0.723  1.9169 -0.1124 -0.4489
14585TIP3    H265171   2.161   2.860   0.813 -2.5701  0.2225 -0.1737
14586TIP3   OH265172   6.343   1.566  11.891 -0.2741  0.1751  0.2274
14586TIP3    H165173   6.308   1.549  11.803  2.5390  0.6034 -1.0928
14586TIP3    H265174   6.294   1.508  11.948 -1.6379 -0.7243 -1.7489
14587TIP3   OH265175   4.209   2.902  11.462  0.3723 -0.4423  0.2578
14587TIP3    H165176   4.233   2.964  11.531  0.3683  1.8718 -1.6958
14587TIP3    H265177   4.293   2.874  11.425  0.3611  1.7662 -1.6112
14588TIP3   OH265178   4.086   0.620   5.468  0.1656  0.5726 -0.4274
14588TIP3    H165179   4.101   0.695   5.525 -0.7832  1.1482 -0.9058
14588TIP3    H265180   3.997   0.590   5.489  0.6307 -0.6145 -0.0376
14589TIP3   OH265181   5.679   0.899   1.974  1.0493  0.3530 -0.8110
14589TIP3    H165182   5.734   0.973   2.001 -1.0359  1.7186 -0.0509
14589TIP3    H265183   5.602   0.940   1.934 -0.9078 -1.2949  1.0175
14590TIP3   OH265184   1.389   6.382  13.815 -0.0063  0.2385 -0.3254
14590TIP3    H165185   1.463   6.442  13.818 -0.9740  1.4792 -0.4233
14590TIP3    H265186   1.335   6.414  13.742 -1.7323  0.7107  1.0864
14591TIP3   OH265187   4.895   1.289  15.986  0.2353 -0.5223  0.2847
14591TIP3    H165188   4.930   1.224  15.925 -1.1444 -0.5386 -0.5340
14591TIP3    H265189   4.958   1.291  16.058  1.3283 -1.3094 -0.6214
14592TIP3   OH265190   4.781   1.382   0.433  0.0327  0.2294  0.2100
14592TIP3    H165191   4.840   1.456   0.418 -1.0734  1.5501  2.0648
14592TIP3    H265192   4.825   1.330   0.500  0.2017 -0.1220 -0.1662
14593TIP3   OH265193   6.165   3.560   1.378 -0.1436 -0.3552 -0.3714
14593TIP3    H165194   6.075   3.533   1.397 -0.0393 -1.8744 -1.8115
14593TIP3    H265195   6.219   3.506   1.436 -0.1235  0.2911  0.2262
14594TIP3   OH265196   4.249   2.602  15.158  0.1150 -0.1513  0.0200
14594TIP3    H165197   4.162   2.586  15.196  0.3179  1.0681  1.0360
14594TIP3    H265198   4.242   2.566  15.069 -1.1869 -0.7434  0.3249
14595TIP3   OH265199   5.115   3.829   0.372 -0.0642  0.0532 -0.6353
14595TIP3    H165200   5.024   3.832   0.342 -0.1908 -0.6181 -0.3354
14595TIP3    H265201   5.113   3.873   0.458 -0.3050 -0.8376 -0.1683
14596TIP3   OH265202   3.000   0.863   1.090 -0.3072 -0.1330  0.8948
14596TIP3    H165203   3.060   0.867   1.166  0.6969  0.4571  0.0946
14596TIP3    H265204   3.054   0.828   1.019 -1.2280 -0.6371  0.4278
14597TIP3   OH265205   2.744   3.376   2.125 -0.1161  0.4458  0.1079
14597TIP3    H165206   2.695   3.417   2.196 -0.9293  0.3849 -0.4015
14597TIP3    H265207   2.711   3.418   2.046  2.5678  2.3383 -0.1293
14598TIP3   OH265208   0.949   1.221  12.752  0.6465  0.0726 -0.5308
14598TIP3    H165209   0.939   1.259  12.665 -0.4070  1.3343  0.1104
14598TIP3    H265210   0.862   1.187  12.774  0.9879 -0.5586 -0.1079
14599TIP3   OH265211   4.920   0.108  13.688  0.4464 -0.4481  0.3533
14599TIP3    H165212   4.839   0.088  13.735 -0.0328 -2.4345 -1.1931
14599TIP3    H265213   4.984   0.046  13.724  0.8247 -0.0467  0.3729
14600TIP3   OH265214   4.991   5.757  16.022  0.1669 -0.0551 -0.4991
14600TIP3    H165215   4.934   5.771  16.098  0.7500 -0.2660 -0.0074
14600TIP3    H265216   4.999   5.843  15.981  0.1393  0.1381 -0.1063
14601TIP3   OH265217   0.753   6.144  14.231 -0.5470 -0.6263  0.3025
14601TIP3    H165218   0.707   6.099  14.301  0.6457  0.7871  2.0973
14601TIP3    H265219   0.712   6.230  14.226  0.3656 -0.1750  0.3348
14602TIP3   OH265220   5.413   5.728  15.646 -0.2384 -0.1848  0.0095
14602TIP3    H165221   5.372   5.710  15.731  0.0504 -1.7339 -0.1552
14602TIP3    H265222   5.406   5.823  15.636  0.4460  0.1495  2.1372
14603TIP3   OH265223   2.128   6.691   0.979 -0.2953  0.2271 -0.2922
14603TIP3    H165224   2.150   6.732   1.062 -1.3485 -0.3346  0.2977
14603TIP3    H265225   2.033   6.679   0.983 -0.4571  0.7000 -1.8204
14604TIP3   OH265226   5.728   0.982  15.205 -0.5343 -0.1327 -0.2682
14604TIP3    H165227   5.677   0.956  15.128 -2.0512  0.5908  0.4387
14604TIP3    H265228   5.814   1.006  15.171 -1.4518  1.0655 -1.8794
14605TIP3   OH265229   0.801   1.982  14.670 -0.0754 -0.3413  0.5593
14605TIP3    H165230   0.732   1.946  14.614  1.2941 -0.3842 -1.1728
14605TIP3    H265231   0.802   2.075  14.649 -1.1500  0.1131  2.3357
14606TIP3   OH265232   0.930   3.237   0.373  0.1030 -0.3931 -0.1407
14606TIP3    H165233   0.876   3.299   0.422 -1.0087 -1.7406  0.4328
14606TIP3    H265234   0.870   3.198   0.310  1.1777  0.2614 -1.6161
14607TIP3   OH265235   4.277   3.896  14.798  0.6224  0.2190  0.8345
14607TIP3    H165236   4.191   3.912  14.760  1.1034  0.3071 -0.2296
14607TIP3    H265237   4.275   3.804  14.824  1.1341 -0.5748 -1.7105
14608TIP3   OH265238   5.933   0.475   1.813 -0.2727  0.7660  0.2408
14608TIP3    H165239   6.010   0.532   1.812  0.0740  0.3922  1.7881
14608TIP3    H265240   5.860   0.534   1.798  0.2298  1.3271 -0.0502
14609TIP3   OH265241   3.280   2.023   0.402 -0.1508  0.3209  0.2446
14609TIP3    H165242   3.357   1.989   0.357 -0.8321  0.1571 -0.8213
14609TIP3    H265243   3.237   2.080   0.338 -2.0698 -1.2557  0.0131
14610TIP3   OH265244   5.891   2.962  12.395  0.3173  0.2772  0.6746
14610TIP3    H165245   5.931   3.045  12.419 -1.1165  1.3298 -0.4528
14610TIP3    H265246   5.858   2.927  12.478  0.1941  1.2384  1.0413
14611TIP3   OH265247   1.492   5.511  10.726  0.6601  0.5212  0.4344
14611TIP3    H165248   1.497   5.553  10.640 -0.5688  0.2512  0.2116
14611TIP3    H265249   1.543   5.431  10.716  0.2325  0.3117 -0.1611
14612TIP3   OH265250   3.340   3.024  13.610  0.2774  0.2155  0.2581
14612TIP3    H165251   3.377   2.955  13.665 -1.3538  0.5986  1.9372
14612TIP3    H265252   3.403   3.096  13.614 -0.4260  0.7770  2.8555
14613TIP3   OH265253   0.569   3.582   5.924 -0.1131 -0.1263  0.2471
14613TIP3    H165254   0.479   3.555   5.905 -0.1193 -1.3277  1.7993
14613TIP3    H265255   0.561   3.674   5.948 -0.4649  0.6773 -2.5320
14614TIP3   OH265256   2.971   3.783   3.684  0.0815 -0.4037 -0.4814
14614TIP3    H165257   2.975   3.867   3.731  1.8331 -0.0889 -1.1190
14614TIP3    H265258   2.901   3.796   3.619 -0.8877 -0.0915  0.6047
14615TIP3   OH265259   3.412   2.613  16.030  0.6334  0.0037 -1.0344
14615TIP3    H165260   3.434   2.681  15.967  0.9726 -0.4862 -1.4593
14615TIP3    H265261   3.485   2.613  16.092  0.0313  0.8648 -0.3022
14616TIP3   OH265262   6.503   0.239   2.835 -0.8031  0.3658 -0.1427
14616TIP3    H165263   6.420   0.197   2.858 -0.7042 -0.1084 -0.6268
14616TIP3    H265264   6.535   0.188   2.761 -0.5824  1.1921 -0.6189
14617TIP3   OH265265   3.556   4.114   3.487  0.2809 -0.2763 -0.5572
14617TIP3    H165266   3.531   4.061   3.411  0.3030 -0.5794 -0.3570
14617TIP3    H265267   3.525   4.202   3.466 -0.8621 -0.6121 -0.3710
14618TIP3   OH265268   1.073   1.029  12.959  0.4095  0.3260 -0.4069
14618TIP3    H165269   1.010   1.100  12.966 -0.2041 -0.2136 -0.3449
14618TIP3    H265270   1.115   1.042  12.874  1.0928  1.3907  0.0754
14619TIP3   OH265271   2.265   5.438  13.815 -0.0778  0.2920  0.2958
14619TIP3    H165272   2.354   5.460  13.841 -0.2565  1.2147  0.1594
14619TIP3    H265273   2.273   5.412  13.723 -0.0357  0.9891  0.0979
14620TIP3   OH265274   0.592   3.631  10.994 -0.0886 -0.0112 -0.3807
14620TIP3    H165275   0.554   3.543  11.001  1.1048 -0.4334  2.7225
14620TIP3    H265276   0.529   3.681  10.943 -2.4149 -1.8788  0.4617
14621TIP3   OH265277   3.450   0.945   5.457 -0.8097  0.7836  0.0285
14621TIP3    H165278   3.443   0.860   5.502 -0.2472  1.1980  0.9260
14621TIP3    H265279   3.396   0.935   5.378 -0.8557 -0.3616  0.1902
14622TIP3   OH265280   6.550   6.567   0.196 -0.3928  0.1324 -0.1058
14622TIP3    H165281   6.571   6.479   0.164 -2.6583 -0.0344 -1.3102
14622TIP3    H265282   6.457   6.578   0.177 -0.0484  3.0267 -0.5307
14623TIP3   OH265283   2.169   4.496  16.455 -1.0393  0.1524  0.2824
14623TIP3    H165284   2.164   4.414  16.406 -0.4972 -0.7478  1.6535
14623TIP3    H265285   2.156   4.470  16.547 -0.3515  1.5309  0.8093
14624TIP3   OH265286   2.235   4.938  15.014  0.3891 -0.2682  0.5622
14624TIP3    H165287   2.283   4.955  14.933 -2.0869 -0.4005 -1.0414
14624TIP3    H265288   2.168   5.005  15.017 -0.9493 -1.5710  1.3217
14625TIP3   OH265289   0.806   2.155   0.716  0.6315 -0.6340 -0.5153
14625TIP3    H165290   0.744   2.212   0.762  0.0442 -0.9212 -0.9513
14625TIP3    H265291   0.760   2.071   0.707  1.9779 -1.6774  1.3805
14626TIP3   OH265292   5.910   4.200   2.753 -0.1944 -0.0973 -0.1978
14626TIP3    H165293   5.864   4.255   2.816 -2.3874 -0.7407 -1.1495
14626TIP3    H265294   5.938   4.261   2.685 -0.7577  0.1440 -0.2184
14627TIP3   OH265295   6.645   3.632   1.523  0.0884 -0.1036  0.3969
14627TIP3    H165296   6.676   3.668   1.606 -1.1181  2.2482 -0.0911
14627TIP3    H265297   6.723   3.598   1.480  0.9054 -0.3088  1.9827
14628TIP3   OH265298   5.309   5.065   1.041  0.0444  0.7827 -0.1836
14628TIP3    H165299   5.332   4.988   0.990 -0.8422  0.2168  0.2405
14628TIP3    H265300   5.380   5.126   1.026  3.2727 -1.7401  2.9977
14629TIP3   OH265301   1.189   4.851   1.293 -0.5195  0.0110  0.3474
14629TIP3    H165302   1.096   4.833   1.303 -0.0014 -1.6829  2.8468
14629TIP3    H265303   1.217   4.796   1.220 -1.2887 -0.0890  0.1208
14630TIP3   OH265304   5.130   4.657  11.314 -0.0537  0.3079  0.1393
14630TIP3    H165305   5.176   4.736  11.285 -0.4510  0.7903  0.8134
14630TIP3    H265306   5.054   4.652  11.256 -1.0065  1.4369  1.2157
14631TIP3   OH265307   4.229   0.060  14.527 -0.5601 -0.3882  0.0498
14631TIP3    H165308   4.191   0.148  14.522 -1.9197 -0.9439  0.1211
14631TIP3    H265309   4.312   0.072  14.572 -0.6817  0.8795 -0.0296
14632TIP3   OH265310   5.940   0.284   1.590  0.4194 -0.0668  0.4943
14632TIP3    H165311   5.973   0.308   1.676 -0.1117 -0.2666  0.7622
14632TIP3    H265312   5.979   0.347   1.530  2.3293 -1.0711  0.5963
14633TIP3   OH265313   0.996   0.469  14.685 -0.8105 -0.1576  0.2318
14633TIP3    H165314   0.947   0.549  14.664 -0.4706 -0.1401 -0.5340
14633TIP3    H265315   1.086   0.491  14.664 -0.5205 -0.3356  1.2319
14634TIP3   OH265316   6.302   5.082   1.955  0.4182 -0.2829  0.3202
14634TIP3    H165317   6.210   5.099   1.976  0.2431 -2.7926  2.0343
14634TIP3    H265318   6.299   5.021   1.882  0.9429  3.0219 -2.7272
14635TIP3   OH265319   0.079   5.318  14.323  0.2065  0.2517 -0.5565
14635TIP3    H165320   0.113   5.393  14.274 -0.1967  1.2389  0.6155
14635TIP3    H265321   0.098   5.339  14.415  1.3559 -1.7594 -0.2901
14636TIP3   OH265322   0.899   1.235  13.181 -0.3768  0.0783 -0.2727
14636TIP3    H165323   0.843   1.294  13.129  0.7904  0.8062 -0.7286
14636TIP3    H265324   0.891   1.267  13.271 -0.3765  0.4224 -0.3954
14637TIP3   OH265325   5.356   4.780   6.080 -0.0155  0.1723  0.7638
14637TIP3    H165326   5.310   4.850   6.127  0.1487 -0.7273  2.3356
14637TIP3    H265327   5.442   4.777   6.122  0.3752 -0.2301 -0.0582
14638TIP3   OH265328   4.733   5.441  13.476  0.1381 -0.4574  0.3080
14638TIP3    H165329   4.828   5.435  13.486  0.3576  1.0744 -0.6146
14638TIP3    H265330   4.713   5.532  13.494 -1.2838 -0.9423  1.2886
14639TIP3   OH265331   1.756   2.556  10.713  0.3020 -0.0363 -0.0100
14639TIP3    H165332   1.784   2.493  10.647 -2.6263 -1.7228  0.1698
14639TIP3    H265333   1.719   2.628  10.663  0.9227  0.1655 -0.1910
14640TIP3   OH265334   3.058   1.622  14.832  0.5398 -0.5612  0.3611
14640TIP3    H165335   3.147   1.653  14.850  0.9062 -0.2524 -1.7492
14640TIP3    H265336   3.014   1.698  14.794 -1.0143 -0.3767  2.3635
14641TIP3   OH265337   3.578   5.740   3.041  0.1364  0.2708  0.0574
14641TIP3    H165338   3.610   5.716   3.128  2.7641 -2.1580 -1.4218
14641TIP3    H265339   3.505   5.680   3.025  0.0836  0.2699  0.2920
14642TIP3   OH265340   2.330   3.773   4.340 -0.0144 -0.2459  0.2981
14642TIP3    H165341   2.383   3.850   4.362  0.2658 -0.1003 -0.7848
14642TIP3    H265342   2.352   3.755   4.248  0.0949 -1.7541  0.5856
14643TIP3   OH265343   1.809   1.458   1.217  0.7134 -0.2417  0.3782
14643TIP3    H165344   1.842   1.474   1.305  1.9817  2.8897 -0.5368
14643TIP3    H265345   1.727   1.507   1.212  0.8284 -0.1067 -0.2863
14644TIP3   OH265346   5.118   4.397  14.383  0.2549  0.6432 -0.6606
14644TIP3    H165347   5.210   4.414  14.363  0.9117 -1.9399 -0.2314
14644TIP3    H265348   5.074   4.401  14.297  1.0117  0.6276 -1.0580
14645TIP3   OH265349   6.503   3.940   2.371  0.4767  0.8729 -0.4350
14645TIP3    H165350   6.564   3.967   2.302  0.8498  2.2528  0.4105
14645TIP3    H265351   6.480   4.021   2.416 -0.1092  0.0515  0.7834
14646TIP3   OH265352   1.434   0.042   4.053 -0.1412 -0.4213 -0.3961
14646TIP3    H165353   1.453  -0.019   3.982 -1.2752 -0.7265 -0.4533
14646TIP3    H265354   1.458  -0.007   4.132 -1.5421 -1.1716 -0.4082
14647TIP3   OH265355   6.782   3.295  15.252  0.4717 -0.1544 -0.0897
14647TIP3    H165356   6.847   3.365  15.246 -0.2554  0.8059  2.2512
14647TIP3    H265357   6.698   3.341  15.246 -0.0133 -0.9493  0.5420
14648TIP3   OH265358   5.984   0.646   2.803 -0.1066  0.5534 -0.6258
14648TIP3    H165359   5.972   0.664   2.709 -1.1454  2.1656 -0.2281
14648TIP3    H265360   5.955   0.726   2.846 -4.3496 -1.7056  1.3279
14649TIP3   OH265361   3.521   1.740   6.109 -0.2785 -0.3694 -0.2854
14649TIP3    H165362   3.433   1.745   6.146  0.2595  0.7995  0.9175
14649TIP3    H265363   3.507   1.736   6.014 -1.6520  3.4802 -0.4353
14650TIP3   OH265364   6.052   3.054   0.558 -0.3137  0.2836  0.3920
14650TIP3    H165365   6.137   3.089   0.531 -0.3835 -0.9654 -1.7239
14650TIP3    H265366   6.072   2.988   0.623  0.2149  0.8566  0.8196
14651TIP3   OH265367   5.061   4.469   2.539  0.2109 -0.0229 -0.2510
14651TIP3    H165368   5.083   4.388   2.493 -0.9706  0.9300 -2.6088
14651TIP3    H265369   5.111   4.537   2.494 -0.6339  0.8846  0.1407
14652TIP3   OH265370   0.139   6.536   4.039 -0.3279 -0.1691 -0.0014
14652TIP3    H165371   0.215   6.570   4.086 -1.3440  2.0054  0.1977
14652TIP3    H265372   0.118   6.604   3.975 -1.8674 -0.8894 -0.3019
14653TIP3   OH265373   3.293   2.842   6.254  0.2473 -0.2838  0.7914
14653TIP3    H165374   3.311   2.831   6.347 -0.7535  1.3824  1.2160
14653TIP3    H265375   3.337   2.924   6.230 -0.8380  0.1514  0.2016
14654TIP3   OH265376   0.082   3.473   6.223 -0.5348  0.7964  0.1290
14654TIP3    H165377   0.011   3.475   6.287  0.8576  1.1334  1.7560
14654TIP3    H265378   0.102   3.380   6.212 -2.0148  0.6110 -1.3199
14655TIP3   OH265379   1.304   5.716  15.474 -0.3262 -0.2282  0.1144
14655TIP3    H165380   1.213   5.743  15.482 -0.2753  0.3827 -1.1478
14655TIP3    H265381   1.300   5.620  15.471 -0.8422 -0.2422  0.8616
14656TIP3   OH265382   3.520   5.796   0.121 -0.6379  0.2109 -0.1269
14656TIP3    H165383   3.521   5.730   0.190  0.0747 -0.9952 -1.2313
14656TIP3    H265384   3.584   5.862   0.150  2.2288 -1.9449 -1.0841
14657TIP3   OH265385   6.649   5.913   1.754 -0.1229  0.3972  0.1065
14657TIP3    H165386   6.555   5.902   1.765 -0.2298 -0.2890 -1.2624
14657TIP3    H265387   6.670   5.864   1.674  1.3809  0.6055  0.3372
14658TIP3   OH265388   2.446   1.948  11.652 -0.4488 -0.1727  0.1890
14658TIP3    H165389   2.479   1.893  11.723  1.1518  0.7311  0.1994
14658TIP3    H265390   2.403   2.021  11.696  2.3142  1.4714  0.3885
14659TIP3   OH265391   0.522   4.172   5.033 -0.4634  0.2589 -0.7276
14659TIP3    H165392   0.471   4.201   5.108 -1.2079 -0.8982 -0.7590
14659TIP3    H265393   0.463   4.184   4.958 -0.1158  0.4156 -0.9768
14660TIP3   OH265394   3.619   4.872   3.643 -0.4678 -0.4061 -0.1695
14660TIP3    H165395   3.557   4.938   3.612 -0.4748 -0.1733  0.3247
14660TIP3    H265396   3.650   4.906   3.727 -1.1498 -1.4515  0.5363
14661TIP3   OH265397   4.525   6.739  10.175 -0.2426 -0.1455  0.1129
14661TIP3    H165398   4.443   6.787  10.188 -1.5124 -1.7459 -1.4493
14661TIP3    H265399   4.522   6.669  10.240 -0.1770 -0.2887 -0.0391
14662TIP3   OH265400   2.189   2.015   1.238  0.1871 -0.2623  0.0490
14662TIP3    H165401   2.253   1.966   1.187 -1.0563  0.2330 -2.1459
14662TIP3    H265402   2.211   2.107   1.221 -1.6692 -0.0653 -1.6503
14663TIP3   OH265403   2.492   3.460   3.658 -0.0892  0.0896  0.1952
14663TIP3    H165404   2.399   3.482   3.649  0.2744  1.5582 -0.1527
14663TIP3    H265405   2.522   3.446   3.569  0.1601  0.1902  0.2633
14664TIP3   OH265406   4.616   3.100  12.339  0.3204 -0.0140  0.0683
14664TIP3    H165407   4.541   3.145  12.377  1.3776  0.5390  1.5995
14664TIP3    H265408   4.687   3.115  12.402  1.3257 -1.7842 -0.5842
14665TIP3   OH265409   2.608   2.076  12.459 -0.2003  0.2979 -0.1524
14665TIP3    H165410   2.531   2.021  12.446  0.4310 -0.3236 -1.5311
14665TIP3    H265411   2.673   2.041  12.398 -0.4251  3.8353 -2.7654
14666TIP3   OH265412   4.234   0.965   3.329  0.8985 -0.1903 -0.1188
14666TIP3    H165413   4.182   1.040   3.299 -1.5056 -0.9586  1.8361
14666TIP3    H265414   4.265   0.991   3.416 -0.0342 -1.4160  0.6203
14667TIP3   OH265415   5.356   2.010  16.943 -0.1678  0.2806  0.3195
14667TIP3    H165416   5.349   1.973  16.855  0.5740  1.1588 -0.1228
14667TIP3    H265417   5.410   2.088  16.932  1.9253 -0.8247  1.9184
14668TIP3   OH265418   6.541   2.449  11.014  0.5828 -0.6761  0.1972
14668TIP3    H165419   6.632   2.455  10.987  0.8355  1.0198  1.2718
14668TIP3    H265420   6.492   2.486  10.940  0.9632  0.4873  0.5082
14669TIP3   OH265421   5.649   2.658   1.084  0.3940  0.1270 -0.0272
14669TIP3    H165422   5.728   2.606   1.071 -0.8001 -1.4192 -1.4359
14669TIP3    H265423   5.638   2.705   1.002 -1.1894 -1.1925 -0.6225
14670TIP3   OH265424   4.056   5.462   0.611  1.1539 -0.5748 -0.0863
14670TIP3    H165425   4.131   5.504   0.653 -0.1834  2.0104 -0.0447
14670TIP3    H265426   4.042   5.512   0.531  0.1321 -1.7063 -0.6393
14671TIP3   OH265427   2.221   2.245   4.267  0.6229  0.0244 -0.7447
14671TIP3    H165428   2.277   2.171   4.290  1.2112  0.0524 -2.0267
14671TIP3    H265429   2.138   2.205   4.239  0.3771 -0.0606  0.0657
14672TIP3   OH265430   6.102   6.558   5.341 -0.7185  0.0503 -0.5241
14672TIP3    H165431   6.061   6.495   5.400  1.0176  0.6939  1.5064
14672TIP3    H265432   6.102   6.640   5.390  1.8869  0.3248 -0.8549
14673TIP3   OH265433   2.661   3.533  16.960  0.5013 -0.0147 -0.3890
14673TIP3    H165434   2.596   3.584  17.007 -1.3868 -0.1358 -2.6976
14673TIP3    H265435   2.650   3.444  16.993 -0.4577 -0.0063 -0.6471
14674TIP3   OH265436   6.573   2.202   1.409 -0.1160  0.4487  0.8898
14674TIP3    H165437   6.538   2.117   1.437  1.6737 -0.0090  1.8613
14674TIP3    H265438   6.496   2.258   1.401 -1.5712 -1.6747 -1.4253
14675TIP3   OH265439   6.643   0.654   5.829  0.1381  0.0970 -0.9681
14675TIP3    H165440   6.695   0.574   5.832 -1.3701 -0.9237  2.0148
14675TIP3    H265441   6.680   0.710   5.897 -0.4679  0.8157 -1.2110
14676TIP3   OH265442   3.062   4.777   0.693 -0.5865  0.3043 -0.4240
14676TIP3    H165443   3.016   4.706   0.736  2.1481 -0.4100  1.5553
14676TIP3    H265444   3.073   4.844   0.760 -0.6048  1.3780 -1.4482
14677TIP3   OH265445   1.717   5.152  15.815 -0.5841  0.1269 -0.5160
14677TIP3    H165446   1.756   5.140  15.728 -1.5275  1.7211 -1.2108
14677TIP3    H265447   1.703   5.063  15.847 -0.1318 -0.5032 -1.9591
14678TIP3   OH265448   0.930   2.598  13.642 -0.6973 -0.1193  0.5035
14678TIP3    H165449   0.862   2.531  13.648 -1.6944  0.7719 -0.4253
14678TIP3    H265450   0.945   2.609  13.548 -0.0890  0.5041  0.6639
14679TIP3   OH265451   1.166   1.104   3.998  0.4742 -0.2961  0.0158
14679TIP3    H165452   1.184   1.012   3.978  1.2442 -0.3011  0.6573
14679TIP3    H265453   1.080   1.121   3.960 -0.5941 -1.8349  1.5720
14680TIP3   OH265454   4.659   4.724  12.466 -0.5895  0.0878  0.6859
14680TIP3    H165455   4.740   4.675  12.452  0.1838  1.5057  0.0292
14680TIP3    H265456   4.607   4.669  12.525  0.0573 -1.7062 -0.3361
14681TIP3   OH265457   4.371   2.367   4.980 -0.0018 -0.2409 -0.0643
14681TIP3    H165458   4.415   2.393   5.061 -1.1960  1.5216  0.0826
14681TIP3    H265459   4.441   2.332   4.925  1.1613  0.2963  1.0241
14682TIP3   OH265460   3.153   3.034   3.063  0.2172  0.2152 -0.4988
14682TIP3    H165461   3.160   2.939   3.070  1.4054  0.2712 -0.7092
14682TIP3    H265462   3.062   3.053   3.085  0.0965 -0.9235  0.0716
14683TIP3   OH265463   1.500   4.025  13.603  0.4154 -0.2720  0.3207
14683TIP3    H165464   1.554   4.084  13.550 -0.2180  0.0687  0.0413
14683TIP3    H265465   1.522   3.937  13.571  0.5532 -0.1158 -0.0229
14684TIP3   OH265466   6.211   2.860  14.454  0.7552 -0.7509 -0.3181
14684TIP3    H165467   6.146   2.846  14.385  0.5970 -0.7595 -0.1682
14684TIP3    H265468   6.203   2.783  14.510 -0.5999  0.2287  0.8996
14685TIP3   OH265469   6.383   4.802  15.822 -0.4559 -0.2515 -0.0473
14685TIP3    H165470   6.407   4.891  15.796 -0.9452  0.4189  1.6493
14685TIP3    H265471   6.291   4.808  15.846 -0.4829 -1.2106  0.1291
14686TIP3   OH265472   4.136   1.632   3.906 -0.2177  0.3628  0.2532
14686TIP3    H165473   4.191   1.560   3.936 -0.8689 -0.3463 -0.2216
14686TIP3    H265474   4.184   1.711   3.930  0.7362 -0.2360  0.3338
14687TIP3   OH265475   3.910   6.690  13.827 -0.2583 -0.2795 -0.3240
14687TIP3    H165476   3.911   6.596  13.807 -0.7032 -0.3721  0.0588
14687TIP3    H265477   3.963   6.697  13.907 -0.9915 -0.3389  0.1754
14688TIP3   OH265478   1.869   1.033  16.206 -0.1457  0.4183  0.2455
14688TIP3    H165479   1.960   1.005  16.205  0.0243  0.9799 -0.1320
14688TIP3    H265480   1.869   1.117  16.161 -0.7735  0.6512  0.6673
14689TIP3   OH265481   0.536   1.770  12.021  0.0339 -0.3060  0.2270
14689TIP3    H165482   0.629   1.790  12.008  0.4505 -2.7081 -0.8726
14689TIP3    H265483   0.528   1.759  12.116  0.5985  0.9190  0.4496
14690TIP3   OH265484   1.230   4.360  12.242  0.0694  0.0573 -0.4703
14690TIP3    H165485   1.318   4.325  12.256  0.1458  0.2408 -0.4942
14690TIP3    H265486   1.215   4.350  12.148  0.2936  0.5680 -0.5607
14691TIP3   OH265487   3.774   0.629  15.755 -0.0773 -0.1024  0.1071
14691TIP3    H165488   3.814   0.653  15.671  1.1474  1.4945  1.0934
14691TIP3    H265489   3.681   0.621  15.735 -0.2294  2.8653 -0.9318
14692TIP3   OH265490   6.747   5.177   2.511  0.3727 -0.0235 -0.3736
14692TIP3    H165491   6.761   5.225   2.592  0.7086  1.2495 -1.1571
14692TIP3    H265492   6.768   5.240   2.442 -0.9571 -0.7354 -1.4699
14693TIP3   OH265493   4.502   5.249   1.323 -0.1657 -0.1477 -0.3656
14693TIP3    H165494   4.545   5.197   1.255  1.0747 -0.4644  0.6147
14693TIP3    H265495   4.547   5.334   1.320 -1.1846  0.3885 -0.9757
14694TIP3   OH265496   6.490   3.232   2.578 -0.3027  0.1536  0.6206
14694TIP3    H165497   6.522   3.315   2.613 -0.5038  0.2474  0.5840
14694TIP3    H265498   6.494   3.243   2.483 -2.8225  1.1233  0.5576
14695TIP3   OH265499   5.769   1.302  15.395 -0.1193 -0.0838  0.3175
14695TIP3    H165500   5.826   1.251  15.452  0.0880 -1.8253 -1.3416
14695TIP3    H265501   5.816   1.385  15.383  1.2967 -0.8465  0.2924
14696TIP3   OH265502   1.148   5.545  11.444  0.1567  0.2238  0.4030
14696TIP3    H165503   1.158   5.450  11.447 -0.5636  0.1153 -0.3478
14696TIP3    H265504   1.082   5.564  11.511 -0.2038  0.1143  0.0829
14697TIP3   OH265505   2.472   2.746   4.625  0.3847  0.4441 -0.2691
14697TIP3    H165506   2.392   2.798   4.629 -0.3702 -0.7239  0.2836
14697TIP3    H265507   2.503   2.743   4.716 -0.3483 -1.1950 -0.0396
14698TIP3   OH265508   4.313   4.775  11.379  0.3518  0.4972  0.4301
14698TIP3    H165509   4.222   4.747  11.391  0.8668 -0.5972  2.2537
14698TIP3    H265510   4.309   4.844  11.314 -1.9351  1.1772  1.2034
14699TIP3   OH265511   4.014   4.324  14.140  0.0847  0.3560 -0.1765
14699TIP3    H165512   3.987   4.309  14.230 -1.3160  2.0470 -0.2617
14699TIP3    H265513   4.041   4.415  14.137 -0.4179  0.4933 -1.5649
14700TIP3   OH265514   3.174   4.720  15.540 -0.6301  0.5636  0.2746
14700TIP3    H165515   3.079   4.726  15.551 -0.5976  0.6982  0.4793
14700TIP3    H265516   3.206   4.808  15.560 -0.6130  0.9717 -1.3589
14701TIP3   OH265517   5.851   6.543  15.563 -0.5902  0.1237  0.4928
14701TIP3    H165518   5.920   6.553  15.629  1.6353 -0.8940 -1.5086
14701TIP3    H265519   5.868   6.457  15.524 -0.4408  1.4910 -2.7772
14702TIP3   OH265520   1.375   0.230  13.468 -0.0715  0.0704  0.1171
14702TIP3    H165521   1.377   0.320  13.437  0.1112 -0.2148 -0.7065
14702TIP3    H265522   1.389   0.177  13.390  1.5292 -0.6301  0.8374
14703TIP3   OH265523   3.529   2.093  17.043 -0.2119 -0.5870 -0.6920
14703TIP3    H165524   3.535   2.004  17.011  2.2485 -0.8479  0.3002
14703TIP3    H265525   3.565   2.147  16.972  0.3100 -0.6183 -0.4543
14704TIP3   OH265526   0.931   3.555  16.854  0.0094  0.0610  0.2138
14704TIP3    H165527   0.962   3.536  16.766  1.6020  0.0677  0.7564
14704TIP3    H265528   0.920   3.469  16.895 -0.8058  0.0544  0.0074
14705TIP3   OH265529   0.928   3.522  13.611  0.8174 -0.0440  0.0724
14705TIP3    H165530   0.963   3.433  13.602  1.2943  0.1576 -0.1189
14705TIP3    H265531   0.918   3.534  13.705  0.1532 -0.5234  0.0690
14706TIP3   OH265532   4.835   4.401  15.203 -0.4918  0.1100 -0.3202
14706TIP3    H165533   4.845   4.348  15.125 -1.2279  0.8214 -0.9205
14706TIP3    H265534   4.919   4.444  15.215 -0.1314 -0.5959 -0.2610
14707TIP3   OH265535   0.436   2.046  13.372  0.0369  0.4893 -1.5333
14707TIP3    H165536   0.435   2.132  13.413 -1.3134  0.5315 -1.5912
14707TIP3    H265537   0.467   1.987  13.440 -2.6512  0.4794 -0.1744
14708TIP3   OH265538   2.115   1.517   3.551  0.9403 -0.2102 -0.2450
14708TIP3    H165539   2.064   1.441   3.523  1.0529 -0.2994 -0.2091
14708TIP3    H265540   2.158   1.547   3.471  0.1668  0.3801 -0.4530
14709TIP3   OH265541   5.117   1.849   1.962  0.3623  0.4792  0.2523
14709TIP3    H165542   5.075   1.775   2.008 -0.3681 -0.4889 -1.8398
14709TIP3    H265543   5.068   1.926   1.990 -0.6555 -0.2088  0.4188
14710TIP3   OH265544   3.381   4.413  11.894  0.1775 -0.2597  0.6148
14710TIP3    H165545   3.313   4.371  11.841  1.0231 -0.1142 -0.6292
14710TIP3    H265546   3.376   4.369  11.979 -0.1828 -1.5916 -0.0673
14711TIP3   OH265547   1.903   2.337  13.521 -0.1386  0.9397  0.0396
14711TIP3    H165548   1.984   2.291  13.495 -1.8234 -2.0628 -0.3189
14711TIP3    H265549   1.907   2.340  13.617 -0.9633 -2.1592  0.2729
14712TIP3   OH265550   4.171   5.335   2.976  0.4238 -0.6185  0.5224
14712TIP3    H165551   4.183   5.241   2.964 -0.2034 -0.5662 -0.5854
14712TIP3    H265552   4.136   5.366   2.893  2.2524  0.8928  0.2430
14713TIP3   OH265553   6.516   4.843   3.395  0.0951  0.7209 -0.2692
14713TIP3    H165554   6.604   4.827   3.361  0.4090  1.1951  0.2939
14713TIP3    H265555   6.485   4.920   3.347  1.1028  2.2767  1.4715
14714TIP3   OH265556   6.082   3.374  15.006  0.2753 -0.8490 -0.1863
14714TIP3    H165557   6.116   3.441  15.064 -1.3395  0.4498 -0.6755
14714TIP3    H265558   6.161   3.330  14.972  1.4227  1.1101 -0.2372
14715TIP3   OH265559   0.469   5.586   3.727 -0.2454  0.0975  0.0158
14715TIP3    H165560   0.471   5.545   3.641  0.4314 -0.2409  0.1862
14715TIP3    H265561   0.520   5.666   3.717 -1.2313  0.6991 -0.2161
14716TIP3   OH265562   5.618   2.666  12.940 -0.2132  0.4715  0.5641
14716TIP3    H165563   5.525   2.651  12.957 -0.4999  2.5312  1.1136
14716TIP3    H265564   5.642   2.600  12.874 -1.9884 -0.2420  0.5827
14717TIP3   OH265565   1.805   5.367  16.509  0.2832 -0.2002 -0.4863
14717TIP3    H165566   1.827   5.303  16.577  0.6784 -1.3388 -1.6511
14717TIP3    H265567   1.717   5.397  16.532  0.4527 -0.4852  0.5848
14718TIP3   OH265568   1.751   6.476   4.307  0.1458  0.0511  0.4135
14718TIP3    H165569   1.823   6.535   4.286  0.3422  0.0798  1.1332
14718TIP3    H265570   1.793   6.391   4.323  0.0395  0.0876  0.9205
14719TIP3   OH265571   6.788   3.442   5.947  0.1634 -0.1394  0.7254
14719TIP3    H165572   6.769   3.527   5.908 -2.2234 -1.5657 -1.5958
14719TIP3    H265573   6.741   3.442   6.031 -1.8369  0.0783 -0.3338
14720TIP3   OH265574   6.644   6.148  13.450 -0.3843  0.3167 -0.1223
14720TIP3    H165575   6.655   6.135  13.355 -0.1996  1.6980 -0.3158
14720TIP3    H265576   6.565   6.201  13.458 -1.2582 -1.0356  0.6274
14721TIP3   OH265577   6.215   3.199   2.969  0.1027 -0.7460  0.0926
14721TIP3    H165578   6.187   3.275   3.019 -1.3435  0.9893 -3.0491
14721TIP3    H265579   6.231   3.131   3.035 -1.1172  1.4564  2.8553
14722TIP3   OH265580   0.329   1.387   4.080  0.6671  0.0365 -0.1846
14722TIP3    H165581   0.409   1.336   4.071  0.2796 -0.6214 -0.0073
14722TIP3    H265582   0.347   1.446   4.153  0.7436 -0.6109  0.3369
14723TIP3   OH265583   1.757   2.189  13.194  0.1622  0.0937  0.4975
14723TIP3    H165584   1.833   2.131  13.188 -0.2812 -0.4527  0.0684
14723TIP3    H265585   1.795   2.277  13.195  0.7825 -0.1533 -0.1273
14724TIP3   OH265586   4.687   0.777  15.253 -0.1606 -0.6758 -0.2047
14724TIP3    H165587   4.772   0.799  15.292 -0.8713  0.2159  0.9236
14724TIP3    H265588   4.703   0.776  15.159  1.0461 -0.2248 -0.0205
14725TIP3   OH265589   5.033   5.939   5.189  0.3468 -0.1187  0.1631
14725TIP3    H165590   4.984   5.988   5.254 -2.8568  1.9760 -3.4581
14725TIP3    H265591   5.125   5.957   5.211 -0.5773  4.0680  1.6224
14726TIP3   OH265592   0.829   2.193  16.748 -0.4393 -0.2317 -0.0515
14726TIP3    H165593   0.759   2.234  16.698  1.0909  2.7070 -0.0544
14726TIP3    H265594   0.909   2.231  16.711  0.8295  1.3072  3.7815
14727TIP3   OH265595   0.231   3.113   2.222  0.5594  0.2617 -0.1140
14727TIP3    H165596   0.300   3.154   2.169  0.9371 -0.7145 -0.4087
14727TIP3    H265597   0.149   3.146   2.184  0.7452 -1.7740 -2.5659
14728TIP3   OH265598   2.254   4.386   1.876 -0.0629 -0.2939 -0.1247
14728TIP3    H165599   2.208   4.470   1.887 -0.7370 -0.5381 -1.0053
14728TIP3    H265600   2.214   4.328   1.941 -0.0613 -0.1276  0.0259
14729TIP3   OH265601   4.978   3.426  12.109  0.1111 -0.2909  0.2908
14729TIP3    H165602   5.056   3.411  12.056  1.0931 -1.4136  1.9417
14729TIP3    H265603   5.004   3.495  12.170  0.0588 -1.0643  1.2230
14730TIP3   OH265604   1.789   6.125   6.057 -0.3860 -0.0029  0.1641
14730TIP3    H165605   1.740   6.120   5.975 -0.3483  1.9529 -0.0092
14730TIP3    H265606   1.853   6.054   6.051  1.1120  1.4369 -2.4990
14731TIP3   OH265607   3.277   6.368   4.374 -0.0416  0.0909 -0.0861
14731TIP3    H165608   3.317   6.448   4.339 -0.0318  0.0753 -0.1102
14731TIP3    H265609   3.267   6.311   4.298 -0.3750  0.2038 -0.1286
14732TIP3   OH265610   3.355   0.209   1.854  0.2225 -0.4232  0.3034
14732TIP3    H165611   3.276   0.217   1.802 -0.0115 -3.1604  0.0882
14732TIP3    H265612   3.324   0.191   1.943  0.6174  0.4888  0.6338
14733TIP3   OH265613   0.648   6.104  13.154 -0.0026 -0.1234 -0.0323
14733TIP3    H165614   0.559   6.089  13.122 -0.5587  1.4777  0.6258
14733TIP3    H265615   0.637   6.114  13.249  0.9655 -0.4496  0.1227
14734TIP3   OH265616   1.625   4.195   5.618  0.0177 -0.3104  0.0028
14734TIP3    H165617   1.596   4.134   5.551 -0.2389  0.0113 -0.1811
14734TIP3    H265618   1.554   4.194   5.683 -0.3702  0.3883 -0.3904
14735TIP3   OH265619   6.142   2.019   4.031  1.0708 -0.3723  0.0739
14735TIP3    H165620   6.080   2.089   4.053  2.5145  1.8519 -2.3449
14735TIP3    H265621   6.224   2.046   4.073  1.4857 -0.9676 -0.3311
14736TIP3   OH265622   3.977   2.860   1.413 -0.1925 -0.4385 -0.7797
14736TIP3    H165623   3.983   2.955   1.418  1.0305 -0.5727  1.2726
14736TIP3    H265624   3.885   2.840   1.433 -0.3114  0.2750 -0.5898
14737TIP3   OH265625   1.811   6.307  10.938 -0.2316 -0.1962  0.0066
14737TIP3    H165626   1.873   6.380  10.940 -0.4074 -0.0576  1.2230
14737TIP3    H265627   1.773   6.311  10.851  1.3310 -0.1699 -0.7052
14738TIP3   OH265628   0.737   4.278  14.662  0.1003  0.3863  0.6796
14738TIP3    H165629   0.678   4.313  14.728  1.0620 -0.2607  1.9312
14738TIP3    H265630   0.797   4.350  14.642  0.6433  0.2013  1.5466
14739TIP3   OH265631   2.641   0.828   1.182  0.2668 -0.3140  0.3038
14739TIP3    H165632   2.717   0.770   1.174  1.0220  0.5759  0.8222
14739TIP3    H265633   2.646   0.863   1.271 -1.5318 -1.2646  0.8198
14740TIP3   OH265634   3.771   0.702   6.128 -0.6422  0.2334 -0.3351
14740TIP3    H165635   3.757   0.608   6.138  2.9717 -0.3067  1.5285
14740TIP3    H265636   3.807   0.730   6.212 -1.2277  3.2309 -0.9641
14741TIP3   OH265637   1.508   2.688  16.241 -0.0229 -0.2172  0.3599
14741TIP3    H165638   1.579   2.648  16.190 -1.7449 -1.2211 -1.3701
14741TIP3    H265639   1.432   2.683  16.184 -1.4934  0.9529  2.1101
14742TIP3   OH265640   4.590   1.356   6.209  0.2098  0.1917 -0.7822
14742TIP3    H165641   4.667   1.347   6.264 -0.1780  0.0061 -0.2659
14742TIP3    H265642   4.570   1.450   6.209 -0.0193  0.1422 -0.2933
14743TIP3   OH265643   5.560   0.110   5.407  0.1470  0.3239 -0.2822
14743TIP3    H165644   5.582   0.036   5.464 -0.6447  0.2653 -0.0377
14743TIP3    H265645   5.642   0.131   5.362  0.5316 -0.2955  0.1130
14744TIP3   OH265646   0.439   2.144  12.042 -0.2043 -0.2739 -0.5473
14744TIP3    H165647   0.400   2.220  11.999  0.4819 -1.2702 -3.0901
14744TIP3    H265648   0.432   2.073  11.978 -1.6006 -2.6760  2.0159
14745TIP3   OH265649   1.126   1.608   2.087 -0.0673 -0.4328 -0.1227
14745TIP3    H165650   1.207   1.591   2.135  0.0427  0.7698  0.1296
14745TIP3    H265651   1.117   1.532   2.029  2.0297  0.0957 -1.2369
14746TIP3   OH265652   6.547   2.828  16.800  0.1095 -0.1928  0.4657
14746TIP3    H165653   6.624   2.840  16.855  0.8450 -0.4823 -0.4706
14746TIP3    H265654   6.573   2.761  16.737 -0.5869  0.3547 -0.4323
14747TIP3   OH265655   5.881   3.868  13.833 -0.6982  0.0430 -0.0310
14747TIP3    H165656   5.848   3.958  13.827  0.7168  0.5125 -1.2925
14747TIP3    H265657   5.957   3.875  13.892  0.6493  0.1115 -1.6908
14748TIP3   OH265658   4.830   5.385   1.751 -0.6003 -0.4522 -0.3150
14748TIP3    H165659   4.806   5.319   1.816  1.8004 -2.4841 -1.3138
14748TIP3    H265660   4.924   5.397   1.762 -0.9034  2.9104 -0.2226
14749TIP3   OH265661   2.053   5.856   2.750  0.1384  0.5019  0.2821
14749TIP3    H165662   2.126   5.797   2.732  0.4522  1.0320 -0.2075
14749TIP3    H265663   2.000   5.855   2.670  1.2776  2.4901 -0.5683
14750TIP3   OH265664   4.853   1.592  16.109  0.0410 -0.1843 -0.4495
14750TIP3    H165665   4.783   1.580  16.046  1.1893  0.2642 -1.8596
14750TIP3    H265666   4.924   1.537  16.078  0.3618 -0.5952  0.9294
14751TIP3   OH265667   0.827   5.232  13.327 -0.2762  0.2030  0.2067
14751TIP3    H165668   0.826   5.229  13.423 -0.1478  1.3122  0.2650
14751TIP3    H265669   0.768   5.304  13.305  0.5297  0.6723 -0.4959
14752TIP3   OH265670   4.859   2.548  11.999  0.4347  0.6996  0.6081
14752TIP3    H165671   4.915   2.569  11.924  0.4037  2.9112  1.1404
14752TIP3    H265672   4.819   2.464  11.976  0.2807  1.3790 -1.9466
14753TIP3   OH265673   0.873   1.671  17.164 -0.8156  0.4667  0.3796
14753TIP3    H165674   0.968   1.680  17.164 -0.7227  0.8855 -3.1154
14753TIP3    H265675   0.854   1.620  17.242  2.4272 -0.7561  0.5324
14754TIP3   OH265676   4.811   1.461   5.925  0.7765  0.2286 -0.1591
14754TIP3    H165677   4.740   1.433   5.866  1.1637 -1.0465 -0.0531
14754TIP3    H265678   4.891   1.437   5.879  1.0935 -0.2723  0.6330
14755TIP3   OH265679   0.349   1.286  10.840 -0.2875  0.0297  0.2924
14755TIP3    H165680   0.257   1.269  10.822  0.3733 -0.9154 -2.9672
14755TIP3    H265681   0.370   1.364  10.789  1.4832 -2.0393 -2.4769
14756TIP3   OH265682   6.021   5.385  11.589  0.1207  0.0688 -0.1571
14756TIP3    H165683   5.963   5.358  11.660  0.3160 -2.5785 -0.8906
14756TIP3    H265684   6.097   5.422  11.633 -0.5292  0.1304  0.9520
14757TIP3   OH265685   1.089   4.003   4.238  0.3152  0.0950 -0.7815
14757TIP3    H165686   1.116   4.080   4.187 -1.2184  1.9108  0.9664
14757TIP3    H265687   1.025   4.037   4.300 -0.9713 -2.7687 -0.3793
14758TIP3   OH265688   0.627   3.403  12.489  0.2896 -0.1260  0.5258
14758TIP3    H165689   0.718   3.407  12.462 -0.5810  0.7150 -2.7462
14758TIP3    H265690   0.577   3.410  12.407 -2.7200  0.6127  2.2600
14759TIP3   OH265691   0.161   2.820  12.457  0.0657 -0.6841 -0.0512
14759TIP3    H165692   0.237   2.876  12.459  0.3517 -1.0638 -0.1163
14759TIP3    H265693   0.163   2.774  12.541 -1.4001  1.0012  0.9753
14760TIP3   OH265694   0.009   3.513  16.326 -0.5083  0.2527  0.1039
14760TIP3    H165695  -0.078   3.488  16.295 -0.7413  1.1044  0.0607
14760TIP3    H265696   0.062   3.434  16.313 -1.2247 -0.2178 -0.0324
14761TIP3   OH265697   1.729   6.355  12.667 -1.1362 -0.4328 -0.7325
14761TIP3    H165698   1.746   6.266  12.699  0.3438 -0.1331 -0.6164
14761TIP3    H265699   1.799   6.371  12.604 -1.6076  0.5228 -1.0209
14762TIP3   OH265700   4.996   3.177  14.444  0.2290 -0.0720 -0.2652
14762TIP3    H165701   5.022   3.261  14.407  2.4847 -0.4589  0.2900
14762TIP3    H265702   4.908   3.192  14.479  0.5723  2.0445 -0.1828
14763TIP3   OH265703   3.518   6.470   2.631  0.4151  0.1550  0.0735
14763TIP3    H165704   3.535   6.424   2.549  1.2475 -0.6854  0.7074
14763TIP3    H265705   3.553   6.413   2.699 -1.4253  0.2322  1.1369
14764TIP3   OH265706   5.133   6.151  15.527 -0.5739 -0.1192 -0.2184
14764TIP3    H165707   5.116   6.073  15.580  1.3519 -0.8916 -0.6462
14764TIP3    H265708   5.191   6.120  15.457 -1.5125  1.2721 -1.6766
14765TIP3   OH265709   0.025   5.110  12.350 -0.0924 -0.1695 -0.2936
14765TIP3    H165710   0.090   5.159  12.300 -1.7749  0.7053 -1.7452
14765TIP3    H265711  -0.004   5.171  12.418  1.3629 -0.9605  1.1041
14766TIP3   OH265712   0.782   4.213  13.016  0.0517  0.5371  0.5246
14766TIP3    H165713   0.861   4.264  13.034 -0.2141  1.4099 -0.6488
14766TIP3    H265714   0.716   4.247  13.076  0.5173 -0.1284  1.4424
14767TIP3   OH265715   4.160   2.933  13.753 -0.0395  0.3357 -0.5296
14767TIP3    H165716   4.190   2.940  13.843  1.6801 -1.4613 -0.8824
14767TIP3    H265717   4.240   2.928  13.701 -0.9276 -1.5068 -1.8542
14768TIP3   OH265718   3.330   4.589  14.229 -0.9579 -0.0897  0.6079
14768TIP3    H165719   3.253   4.644  14.214 -0.5847  0.0648 -0.8707
14768TIP3    H265720   3.352   4.603  14.321 -1.8475  0.9621  0.6775
14769TIP3   OH265721   1.678   0.810  11.665  0.1168 -0.0493  0.2053
14769TIP3    H165722   1.585   0.833  11.672  0.0663  0.2725 -1.1789
14769TIP3    H265723   1.724   0.885  11.703 -0.1830 -1.2182  3.1143
14770TIP3   OH265724   6.559   5.952   1.185 -0.1050 -0.0684  0.5331
14770TIP3    H165725   6.498   6.018   1.150 -0.6282  0.6657  2.6915
14770TIP3    H265726   6.629   6.004   1.225  0.0634 -0.8505  1.2669
14771TIP3   OH265727   3.471   5.890  11.449 -0.2224  0.7338  0.4618
14771TIP3    H165728   3.514   5.806  11.436 -1.4034 -0.1964  2.1526
14771TIP3    H265729   3.456   5.924  11.361 -2.1294 -2.0783 -0.4455
14772TIP3   OH265730   3.696   3.024  14.799  0.3191  0.4528 -0.2689
14772TIP3    H165731   3.678   3.085  14.871 -0.0750  0.5729 -0.4691
14772TIP3    H265732   3.614   3.017  14.752 -0.1506 -1.5384  0.7160
14773TIP3   OH265733   0.461   1.129   1.901  0.0146  0.1029  0.1450
14773TIP3    H165734   0.538   1.186   1.913 -0.3377  1.0518 -1.7345
14773TIP3    H265735   0.477   1.083   1.819 -1.4919  0.4893 -0.4103
14774TIP3   OH265736   3.498   6.386  12.652  0.4821  0.3984  0.0969
14774TIP3    H165737   3.504   6.299  12.692 -0.4453  0.7393  1.0450
14774TIP3    H265738   3.535   6.375  12.565  1.9149 -0.5475  0.7817
14775TIP3   OH265739   3.897   6.036  11.586 -0.2392  0.4728  0.4844
14775TIP3    H165740   3.992   6.040  11.575 -0.0992  1.6095  1.8125
14775TIP3    H265741   3.866   6.122  11.555 -0.6144  0.8154  1.7695
14776TIP3   OH265742   1.807   1.262   2.885  0.5532  0.2476 -0.2093
14776TIP3    H165743   1.727   1.213   2.863  0.1420  1.6827 -2.1470
14776TIP3    H265744   1.878   1.207   2.853  0.3310 -0.6474  0.7627
14777TIP3   OH265745   2.058   4.646  14.679  0.2894  0.7487  0.0212
14777TIP3    H165746   2.149   4.617  14.691  0.7146  1.8300 -0.4000
14777TIP3    H265747   2.015   4.625  14.762  1.3017  1.4805  0.7713
14778TIP3   OH265748   6.735   3.780   6.369 -0.1566 -0.2336  0.3145
14778TIP3    H165749   6.829   3.768   6.381  0.0547 -1.5746 -2.0252
14778TIP3    H265750   6.717   3.868   6.402  1.3281 -0.9858  3.5000
14779TIP3   OH265751   5.898   0.335  12.353 -0.2709 -0.0036  0.4901
14779TIP3    H165752   5.932   0.330  12.264 -0.2150 -2.3832  0.5854
14779TIP3    H265753   5.976   0.337  12.409 -0.1532 -3.1557  0.6087
14780TIP3   OH265754   2.545   1.719  12.312 -0.5038  0.3475 -0.3574
14780TIP3    H165755   2.552   1.720  12.217  2.3079  1.6490 -0.2181
14780TIP3    H265756   2.514   1.807  12.334 -1.9876 -0.2186 -0.0547
14781TIP3   OH265757   3.983   4.966   1.495 -0.2273  0.1975 -0.3018
14781TIP3    H165758   3.896   5.006   1.498 -1.3687 -2.0719 -0.6330
14781TIP3    H265759   3.970   4.878   1.531  2.2754  0.3065  1.0474
14782TIP3   OH265760   1.178   1.258  12.387  0.5603 -0.5905 -0.2179
14782TIP3    H165761   1.217   1.234  12.471 -0.1191 -1.1316 -0.0491
14782TIP3    H265762   1.101   1.310  12.411  0.8723  0.0283 -0.5336
14783TIP3   OH265763   6.476   3.625  11.446 -0.5726  0.3196 -0.4196
14783TIP3    H165764   6.406   3.690  11.434 -1.5660 -0.6941 -0.3269
14783TIP3    H265765   6.432   3.541  11.431  0.0173 -0.5127  2.1255
14784TIP3   OH265766   2.589   5.676   2.061  0.5239  0.0603 -0.0417
14784TIP3    H165767   2.515   5.701   2.117 -0.4540 -2.1755 -0.2149
14784TIP3    H265768   2.651   5.633   2.121  1.4323  1.3859 -0.0022
14785TIP3   OH265769   0.264   1.599   1.264 -0.3365 -0.4255 -0.2077
14785TIP3    H165770   0.275   1.691   1.290  0.5990 -0.0042 -1.9145
14785TIP3    H265771   0.174   1.593   1.233 -1.0194 -0.5954  1.6903
14786TIP3   OH265772   5.546   5.675  13.735  0.5964 -0.4758  0.5659
14786TIP3    H165773   5.465   5.625  13.735  1.2533 -1.8778 -2.9452
14786TIP3    H265774   5.601   5.632  13.801  0.3479 -3.1416 -0.8168
14787TIP3   OH265775   3.115   3.672  13.471 -0.2713 -0.0319  0.1047
14787TIP3    H165776   3.103   3.657  13.378 -0.7611  0.5107  0.0768
14787TIP3    H265777   3.032   3.710  13.501 -0.3749 -0.8305  0.8969
14788TIP3   OH265778   5.002   3.422  15.269 -0.1812  0.3043  0.1098
14788TIP3    H165779   4.915   3.431  15.230 -0.0743 -0.9101 -0.4502
14788TIP3    H265780   5.055   3.485  15.220 -0.1859 -0.7735 -1.3706
14789TIP3   OH265781   6.287   3.809   5.021  0.2101  0.0631  0.2661
14789TIP3    H165782   6.206   3.792   5.068  0.3081 -0.1043  0.3752
14789TIP3    H265783   6.345   3.738   5.046 -0.0658 -0.6026 -0.9168
14790TIP3   OH265784   1.731   6.143  14.173 -0.2548 -0.1251 -0.5603
14790TIP3    H165785   1.644   6.108  14.151 -1.2583  1.8220  0.0910
14790TIP3    H265786   1.778   6.141  14.090 -2.1434  1.9858 -1.8253
14791TIP3   OH265787   1.836   2.895  15.320  0.1194  0.1191 -0.2810
14791TIP3    H165788   1.861   2.953  15.248  1.3465 -0.2079 -0.1497
14791TIP3    H265789   1.759   2.849  15.288 -1.0598  2.0002 -0.2851
14792TIP3   OH265790   4.991   0.097  13.044 -0.2136  0.4044 -0.5866
14792TIP3    H165791   4.986   0.123  13.136  1.7945  0.2250 -0.3853
14792TIP3    H265792   5.011   0.003  13.046  1.0909  0.6400 -1.1442
14793TIP3   OH265793   0.446   5.943   0.993 -0.6455 -0.8349 -0.3399
14793TIP3    H165794   0.446   5.964   0.899  2.7149  1.8872  0.0837
14793TIP3    H265795   0.377   5.998   1.030 -1.5936 -1.4920 -1.0403
14794TIP3   OH265796   4.043   6.381   3.611  0.3881 -0.5433 -0.3727
14794TIP3    H165797   4.011   6.394   3.522 -0.8580  2.0058  0.3551
14794TIP3    H265798   4.102   6.455   3.627 -0.2657 -0.3128  1.2405
14795TIP3   OH265799   3.999   0.516   0.795  0.4739 -0.1206  0.0832
14795TIP3    H165800   3.926   0.464   0.827  2.2884 -2.8083  0.2426
14795TIP3    H265801   4.072   0.491   0.852  1.7464  1.7188 -0.6605
14796TIP3   OH265802   2.280   5.017   3.103  0.8613  0.6758  0.1902
14796TIP3    H165803   2.339   5.019   3.028  0.7922  2.0490  0.1439
14796TIP3    H265804   2.207   5.074   3.077 -0.8595 -1.4785 -0.0310
14797TIP3   OH265805   2.607   4.195   0.269  0.4829  0.6515  0.1663
14797TIP3    H165806   2.661   4.142   0.328 -0.0925  1.6265  1.6234
14797TIP3    H265807   2.517   4.170   0.290  0.2685 -0.6927 -1.9863
14798TIP3   OH265808   2.600   6.137   1.853 -0.1137  0.1670 -0.5463
14798TIP3    H165809   2.596   6.169   1.943 -0.1484 -0.7809 -0.1986
14798TIP3    H265810   2.634   6.048   1.860  0.0528  0.1423 -1.4878
14799TIP3   OH265811   1.257   2.684  13.492  0.1217  0.2468  0.4707
14799TIP3    H165812   1.201   2.606  13.498 -1.1827  1.0505 -0.6049
14799TIP3    H265813   1.346   2.649  13.485 -0.4580 -1.1689 -0.3699
14800TIP3   OH265814   5.690   1.811  15.838 -0.1846 -0.2332  0.5032
14800TIP3    H165815   5.663   1.779  15.924  1.6844 -0.7126  0.9597
14800TIP3    H265816   5.622   1.873  15.812 -0.6683  0.0833  2.4311
14801TIP3   OH265817   4.931   6.606  12.252 -0.4900  0.2901  0.0071
14801TIP3    H165818   4.986   6.542  12.297 -2.1071 -1.7756 -0.7958
14801TIP3    H265819   4.977   6.626  12.170  0.1682  0.4099  0.4062
14802TIP3   OH265820   6.710   5.336   5.552 -0.2723  0.3194 -0.2721
14802TIP3    H165821   6.628   5.315   5.507 -0.5768  1.0577 -0.0717
14802TIP3    H265822   6.692   5.418   5.598 -0.4990 -1.2064  2.5439
14803TIP3   OH265823   2.306   4.542  14.671 -0.3920 -0.5365  0.2895
14803TIP3    H165824   2.314   4.510  14.581 -3.5338 -0.6315 -0.0547
14803TIP3    H265825   2.345   4.473  14.725  0.9724 -0.7570 -0.9397
14804TIP3   OH265826   0.324   2.381  11.366  0.1948 -0.3168  0.2586
14804TIP3    H165827   0.344   2.310  11.427 -0.5962 -1.3360 -0.6275
14804TIP3    H265828   0.276   2.339  11.295 -1.0288  1.2313  0.1002
14805TIP3   OH265829   2.672   3.606   4.894  0.3169 -0.0994  0.7164
14805TIP3    H165830   2.638   3.528   4.850 -1.0775  0.0183  1.5296
14805TIP3    H265831   2.741   3.572   4.952  0.6022 -0.5486  0.1271
14806TIP3   OH265832   2.938   4.111  14.079 -0.2891 -0.2347 -0.2643
14806TIP3    H165833   2.863   4.074  14.125 -0.5364  0.6684  0.0710
14806TIP3    H265834   3.010   4.105  14.143 -1.1417  3.1914  1.2814
14807TIP3   OH265835   1.754   0.276   0.705 -1.3187  0.1901 -0.5792
14807TIP3    H165836   1.778   0.184   0.692 -0.3751  0.4847 -1.0146
14807TIP3    H265837   1.719   0.304   0.620 -2.5505 -0.0251 -0.1646
14808TIP3   OH265838   4.566   2.604   5.429  0.1072  0.0839  0.3576
14808TIP3    H165839   4.475   2.596   5.458 -0.5565 -0.9476 -1.7779
14808TIP3    H265840   4.569   2.688   5.384  0.0866 -0.0985  0.0168
14809TIP3   OH265841   3.566   1.978  11.604 -0.6223 -0.0615  0.3660
14809TIP3    H165842   3.517   2.058  11.590 -2.3372 -1.2308 -0.7642
14809TIP3    H265843   3.500   1.911  11.621  0.4764 -1.7518 -1.4322
14810TIP3   OH265844   5.884   6.495  15.227 -0.2105 -0.0674 -0.2878
14810TIP3    H165845   5.950   6.529  15.287 -0.4657  1.0260 -0.6170
14810TIP3    H265846   5.872   6.564  15.162 -2.3422  0.1297  0.2652
14811TIP3   OH265847   3.250   6.170   0.806 -1.3023  0.2273  0.0794
14811TIP3    H165848   3.259   6.250   0.857  1.1509 -1.6404  2.9721
14811TIP3    H265849   3.312   6.179   0.734 -1.6668  1.2197 -0.1199
14812TIP3   OH265850   2.968   6.036  14.054  0.3015  0.1313  0.2223
14812TIP3    H165851   3.056   6.060  14.083  0.5259  0.3910 -0.6308
14812TIP3    H265852   2.942   5.963  14.110  1.6851 -0.9655 -0.5145
14813TIP3   OH265853   4.559   4.329  17.121 -0.0755 -0.1694  0.0799
14813TIP3    H165854   4.604   4.392  17.178  1.5189 -0.2713 -1.0141
14813TIP3    H265855   4.534   4.381  17.044 -0.1220 -0.5573 -0.1653
14814TIP3   OH265856   5.559   5.639   1.903  0.1106  0.2337 -0.2254
14814TIP3    H165857   5.573   5.557   1.855  0.9006  0.1783  0.0843
14814TIP3    H265858   5.647   5.677   1.912 -0.2946  1.3796 -0.8230
14815TIP3   OH265859   0.257   6.521  14.685  0.3339  0.4634  0.3512
14815TIP3    H165860   0.176   6.527  14.735 -0.2844  2.2445 -0.7849
14815TIP3    H265861   0.326   6.528  14.750 -0.3927 -1.0570  1.3368
14816TIP3   OH265862   3.654   0.314   3.802  0.3856 -0.0062  0.2439
14816TIP3    H165863   3.705   0.286   3.725  1.2435 -3.0537  1.7675
14816TIP3    H265864   3.580   0.253   3.804 -1.0657  1.7105  0.4428
14817TIP3   OH265865   0.704   0.456   1.239  0.1907  0.1376  0.4389
14817TIP3    H165866   0.688   0.370   1.201 -1.2296 -0.0049  1.2717
14817TIP3    H265867   0.761   0.438   1.314 -0.7860 -0.2293  1.1231
14818TIP3   OH265868   2.162   1.087  14.271 -0.0169  0.2054  0.5084
14818TIP3    H165869   2.168   1.068  14.178  2.4643  0.8787  0.4667
14818TIP3    H265870   2.125   1.007  14.309  1.2942 -1.0723 -0.7695
14819TIP3   OH265871   4.815   5.879  10.900 -0.2154  0.0716 -0.6262
14819TIP3    H165872   4.729   5.920  10.896 -0.1953  0.0546 -1.2776
14819TIP3    H265873   4.848   5.900  10.987 -1.7785 -1.7081  0.4680
14820TIP3   OH265874   0.183   5.770  13.891 -0.2084  0.7044 -0.1771
14820TIP3    H165875   0.117   5.833  13.918  0.1422  1.2671 -0.6157
14820TIP3    H265876   0.228   5.812  13.818  0.4296  0.1984 -0.0826
14821TIP3   OH265877   2.888   3.372  16.865 -0.3369 -0.2297 -0.8001
14821TIP3    H165878   2.976   3.408  16.876  0.4354 -1.8938 -1.1278
14821TIP3    H265879   2.830   3.435  16.907  0.9995  0.9709 -0.6961
14822TIP3   OH265880   3.525   0.199  13.036 -0.3947 -0.2413 -0.0807
14822TIP3    H165881   3.578   0.189  12.957  0.1972  0.2177  0.2464
14822TIP3    H265882   3.436   0.177  13.009  0.2623 -3.3068 -0.1025
14823TIP3   OH265883   2.638   3.315   6.495 -0.0581  0.4091  0.2428
14823TIP3    H165884   2.676   3.300   6.581 -0.3768 -2.4481 -0.0297
14823TIP3    H265885   2.543   3.303   6.507 -0.0382 -0.8287 -0.6124
14824TIP3   OH265886   6.758   4.871   3.290 -0.0653 -0.0344 -0.4069
14824TIP3    H165887   6.832   4.920   3.327  0.6883 -1.4150 -0.0192
14824TIP3    H265888   6.799   4.810   3.229 -0.9938 -0.1756 -0.9076
14825TIP3   OH265889   5.060   5.701  17.043  0.4641 -0.8848  0.3760
14825TIP3    H165890   5.106   5.713  17.126  2.2432  2.9414 -0.9145
14825TIP3    H265891   5.126   5.665  16.984 -0.3222 -2.0437  0.1646
14826TIP3   OH265892   0.084   2.570   0.383 -0.9107  0.6257  0.1838
14826TIP3    H165893   0.078   2.508   0.310  1.0543  0.7742 -0.1746
14826TIP3    H265894   0.062   2.519   0.461  0.9943 -0.6561 -0.0659
14827TIP3   OH265895   5.145   5.224  16.136  0.0467 -0.2238 -0.1518
14827TIP3    H165896   5.218   5.283  16.156 -1.3589  2.2284 -1.7218
14827TIP3    H265897   5.091   5.226  16.215 -0.2690  1.1166 -0.3744
14828TIP3   OH265898   6.363   4.033   0.035  0.6236  0.3014  0.3761
14828TIP3    H165899   6.339   3.950  -0.007 -0.5982  0.2736  1.0982
14828TIP3    H265900   6.338   4.100  -0.029 -1.0693  0.2499  0.9640
14829TIP3   OH265901   4.441   3.120  15.656 -0.0897  0.3581 -0.3130
14829TIP3    H165902   4.449   3.030  15.689  0.7439 -0.3653 -2.3277
14829TIP3    H265903   4.356   3.121  15.611 -1.4294  1.4651  2.0584
14830TIP3   OH265904   0.563   3.027   4.647  0.3654 -0.7653 -0.0215
14830TIP3    H165905   0.585   2.941   4.685 -1.7280 -1.8269 -1.0501
14830TIP3    H265906   0.472   3.018   4.618  0.4674  1.4435 -1.2332
14831TIP3   OH265907   3.542   2.404  12.776 -0.8529 -0.4079 -0.4036
14831TIP3    H165908   3.508   2.492  12.789  0.4572  0.0151  0.3305
14831TIP3    H265909   3.637   2.413  12.786 -0.8374 -2.2806  2.1479
14832TIP3   OH265910   2.299   4.992  13.193  0.0271 -0.4021 -0.3005
14832TIP3    H165911   2.317   4.919  13.134 -2.2032 -0.9600 -0.4002
14832TIP3    H265912   2.381   5.041  13.198  0.7368 -1.2368 -2.6041
14833TIP3   OH265913   0.971   6.737  11.884  0.3144  0.5233  0.0750
14833TIP3    H165914   0.944   6.826  11.906  1.7580  0.9065  0.3820
14833TIP3    H265915   1.048   6.721  11.939  0.6187 -0.5765 -0.6405
14834TIP3   OH265916   0.233   6.443  11.945 -0.2047  0.0637  0.0818
14834TIP3    H165917   0.310   6.415  11.994  0.0490  0.5479 -0.0307
14834TIP3    H265918   0.234   6.388  11.866  0.0846  0.1358  0.0318
14835TIP3   OH265919   4.215   4.125   2.893 -0.3889  0.3040 -0.0966
14835TIP3    H165920   4.138   4.070   2.877 -1.7612  2.0014  0.4321
14835TIP3    H265921   4.250   4.093   2.976 -1.2772  0.3273  0.3000
14836TIP3   OH265922   4.245   6.119   1.569 -0.3189  0.0500 -0.3461
14836TIP3    H165923   4.185   6.068   1.623  0.1716  1.0219  1.1955
14836TIP3    H265924   4.218   6.210   1.583  0.5730  0.3985 -0.8048
14837TIP3   OH265925   3.885   4.421  16.937 -0.0514 -0.4206  0.1428
14837TIP3    H165926   3.882   4.479  17.013 -1.4790  0.7431 -0.7514
14837TIP3    H265927   3.924   4.340  16.970 -0.7599  0.0014  2.1497
14838TIP3   OH265928   2.687   0.634  11.288  0.0885  0.3286  0.1150
14838TIP3    H165929   2.636   0.563  11.248 -1.5644  1.3129  0.3774
14838TIP3    H265930   2.742   0.666  11.217 -0.1363 -0.3405 -0.3754
14839TIP3   OH265931   6.505   4.127  14.607 -0.4561 -0.0163  0.3458
14839TIP3    H165932   6.480   4.097  14.520  1.3469  1.0652 -0.5998
14839TIP3    H265933   6.590   4.087  14.624 -0.7967 -0.2497  1.6548
14840TIP3   OH265934   2.732   0.399  10.485  0.3038 -0.1097  0.1309
14840TIP3    H165935   2.808   0.457  10.490  0.5993 -0.5433  0.8806
14840TIP3    H265936   2.707   0.384  10.576 -1.5383  1.1056 -0.1170
14841TIP3   OH265937   1.972   6.064   4.051  0.8463  0.6014 -0.5094
14841TIP3    H165938   2.006   6.001   4.114  2.4433  1.6070 -0.3061
14841TIP3    H265939   2.014   6.040   3.968 -0.9202 -0.4557 -1.1477
14842TIP3   OH265940   5.666   0.891   0.067 -0.0820  0.3159 -0.7671
14842TIP3    H165941   5.570   0.891   0.069 -0.1209 -2.0498  0.0661
14842TIP3    H265942   5.691   0.839   0.144  1.8920  1.2486 -0.7385
14843TIP3   OH265943   2.927   5.035   4.232  0.0493 -0.5548 -0.6341
14843TIP3    H165944   2.867   5.105   4.258 -0.1580 -0.6885 -0.7499
14843TIP3    H265945   3.013   5.076   4.232 -0.2399  0.1620 -2.3102
14844TIP3   OH265946   3.347   5.281   4.048 -0.7035  0.6247  0.2414
14844TIP3    H165947   3.359   5.260   4.140  1.3674  2.1317  0.3879
14844TIP3    H265948   3.397   5.214   4.001  0.5667  1.4083  0.4048
14845TIP3   OH265949   1.674   1.146   5.712 -0.4815 -0.1892  0.4918
14845TIP3    H165950   1.593   1.187   5.682  0.2544  1.9191  1.2490
14845TIP3    H265951   1.708   1.205   5.778  2.1258 -0.5949 -0.3841
14846TIP3   OH265952   4.658   2.623  16.585 -0.5193  0.1516 -0.3850
14846TIP3    H165953   4.681   2.545  16.534 -0.6338 -0.0722 -0.0980
14846TIP3    H265954   4.719   2.622  16.659 -0.4311  0.4086 -0.4544
14847TIP3   OH265955   0.447   1.375  13.227 -0.4065  0.0254 -0.2226
14847TIP3    H165956   0.482   1.290  13.254  1.3424  0.6842 -0.2674
14847TIP3    H265957   0.375   1.392  13.288  1.3710  0.0049  2.0159
14848TIP3   OH265958   1.343   3.900   5.104  0.0309 -0.0684  0.2401
14848TIP3    H165959   1.277   3.877   5.039 -1.3022  0.3637  1.4114
14848TIP3    H265960   1.399   3.964   5.059 -0.5546 -0.1606 -0.6454
14849TIP3   OH265961   3.700   0.008  15.916  0.3302  0.2331 -0.5474
14849TIP3    H165962   3.707  -0.020  16.007  0.3010  1.2634 -0.2113
14849TIP3    H265963   3.640  -0.054  15.875 -0.2559  0.2137  0.3261
14850TIP3   OH265964   0.743   5.627   4.185 -0.3013 -0.4610 -0.3671
14850TIP3    H165965   0.742   5.537   4.220 -3.5148 -0.8308 -1.1469
14850TIP3    H265966   0.707   5.619   4.097  2.0173  1.2972 -1.5836
14851TIP3   OH265967   5.527   2.322  11.888  0.1109 -0.2184  0.2731
14851TIP3    H165968   5.485   2.244  11.923  0.4771 -0.5524 -0.0140
14851TIP3    H265969   5.494   2.329  11.798  0.8534 -0.6366 -0.0437
14852TIP3   OH265970   1.530   1.940   3.019 -0.1871 -0.6232  0.2771
14852TIP3    H165971   1.591   2.009   3.046 -1.6046  0.7688  0.1043
14852TIP3    H265972   1.445   1.970   3.052 -1.5632 -0.2320 -3.1594
14853TIP3   OH265973   6.114   4.968   0.290  0.1568 -0.0697 -0.3563
14853TIP3    H165974   6.042   4.974   0.227  0.6442 -0.0149 -0.9160
14853TIP3    H265975   6.121   4.875   0.311  1.0405 -0.3052 -1.6256
14854TIP3   OH265976   5.182   1.423   3.356 -0.2698 -0.4319  0.6740
14854TIP3    H165977   5.205   1.373   3.278  0.0830 -0.7792  1.0024
14854TIP3    H265978   5.244   1.496   3.357 -0.8791  0.1154  0.1127
14855TIP3   OH265979   3.742   0.309  15.184 -0.3234 -0.3088  0.1918
14855TIP3    H165980   3.816   0.257  15.215  1.7221  1.4247 -1.4240
14855TIP3    H265981   3.715   0.360  15.260  2.1386  1.1366  0.2249
14856TIP3   OH265982   6.657   0.961   0.375  0.0146  0.0758 -0.4888
14856TIP3    H165983   6.702   0.933   0.455 -1.0062  1.4206  0.6297
14856TIP3    H265984   6.572   0.918   0.379  0.3096 -0.5938 -1.3520
14857TIP3   OH265985   5.045   6.332  16.391  0.1591 -0.0387 -0.1344
14857TIP3    H165986   5.127   6.382  16.400 -0.7604  1.3908  0.8473
14857TIP3    H265987   5.039   6.282  16.472 -0.6850  1.1121  0.5565
14858TIP3   OH265988   5.096   3.184  15.051  0.4415 -0.2086 -0.0049
14858TIP3    H165989   5.161   3.223  15.109  0.9596 -0.3437 -0.4867
14858TIP3    H265990   5.134   3.191  14.964  0.5591 -1.8131 -0.1070
14859TIP3   OH265991   0.457   5.073   0.671  0.7479 -0.3556  0.5035
14859TIP3    H165992   0.479   4.996   0.723  1.1990 -1.2322 -0.9498
14859TIP3    H265993   0.492   5.055   0.584  0.0664  1.1027 -0.1079
14860TIP3   OH265994   6.551   0.025   3.275  0.3325 -0.2847  0.4992
14860TIP3    H165995   6.622  -0.038   3.260 -0.1512 -0.9242  0.8373
14860TIP3    H265996   6.548   0.035   3.370  0.6455  0.5332  0.4248
14861TIP3   OH265997   1.908   4.463  12.190  0.4598 -0.4620  0.0113
14861TIP3    H165998   1.814   4.467  12.204  0.6065 -0.6384  1.1583
14861TIP3    H265999   1.946   4.506  12.267  1.3052  0.2857 -0.8001
14862TIP3   OH266000   2.371   3.295   6.575 -0.0387 -0.0548 -0.2490
14862TIP3    H166001   2.341   3.242   6.502 -0.0922  1.3136 -1.2621
14862TIP3    H266002   2.299   3.355   6.593  0.1369 -0.1055  0.6581
14863TIP3   OH266003   0.329   4.219   4.010 -0.4432 -0.0282  0.1075
14863TIP3    H166004   0.259   4.216   4.075  0.1360 -1.0033  0.7088
14863TIP3    H266005   0.402   4.263   4.055 -1.0696  2.2775 -0.9612
14864TIP3   OH266006   0.445   6.316  12.067  0.2296  0.0411  0.3771
14864TIP3    H166007   0.370   6.256  12.072 -0.2827  0.7430  1.7778
14864TIP3    H266008   0.514   6.265  12.024 -1.6111  0.0134 -2.8453
14865TIP3   OH266009   2.451   4.224   0.672 -0.2129  0.3609  0.1115
14865TIP3    H166010   2.466   4.241   0.765  1.0711 -0.2032  0.0354
14865TIP3    H266011   2.474   4.132   0.661 -0.9502  0.2564 -0.6540
14866TIP3   OH266012   2.778   0.203   2.887 -0.4754 -0.7010 -0.5062
14866TIP3    H166013   2.774   0.164   2.974  0.0813  0.8739  0.2659
14866TIP3    H266014   2.708   0.160   2.838 -0.3586 -2.0934  0.4989
14867TIP3   OH266015   5.927   2.541   4.345  0.0187 -0.7876 -0.2821
14867TIP3    H166016   5.921   2.473   4.412 -1.2445  0.0397  0.4893
14867TIP3    H266017   6.021   2.549   4.327  0.3392 -1.3723  1.0309
14868TIP3   OH266018   2.910   2.375   0.571 -0.4328  0.1793 -0.0706
14868TIP3    H166019   2.864   2.394   0.489 -1.5158  0.2468  0.5343
14868TIP3    H266020   2.843   2.387   0.639 -0.7400 -3.7406  0.5533
14869TIP3   OH266021   4.035   6.548   4.803  0.4642  0.0594  0.6212
14869TIP3    H166022   4.002   6.483   4.865  0.7421  1.3666  2.2116
14869TIP3    H266023   4.130   6.543   4.812  0.6611 -1.6071 -1.7384
14870TIP3   OH266024   6.388   3.989  14.373 -0.0732 -0.5944 -0.4562
14870TIP3    H166025   6.475   3.953  14.356  0.5335 -1.0214  2.9244
14870TIP3    H266026   6.330   3.913  14.371  0.0166 -0.6653 -0.3595
14871TIP3   OH266027   2.403   6.735  12.667  0.2565 -0.0170  0.6083
14871TIP3    H166028   2.360   6.820  12.660 -0.5596 -0.3108  1.6422
14871TIP3    H266029   2.445   6.721  12.582 -1.0899  0.6277 -0.1936
14872TIP3   OH266030   2.376   3.835   1.641 -0.3367 -0.0336  0.0192
14872TIP3    H166031   2.281   3.840   1.639 -0.2888  0.9592 -0.6556
14872TIP3    H266032   2.397   3.743   1.626 -1.1720 -0.1801 -0.2578
14873TIP3   OH266033   6.501   2.407   2.332 -0.8167  0.1200 -0.3276
14873TIP3    H166034   6.561   2.465   2.379 -0.5339 -0.0669 -0.4565
14873TIP3    H266035   6.524   2.418   2.240 -0.0396 -0.9859 -0.2863
14874TIP3   OH266036   0.440   3.601  14.452 -0.0431  0.3647  0.4891
14874TIP3    H166037   0.535   3.597  14.458 -0.1401  0.2332  3.4493
14874TIP3    H266038   0.415   3.522  14.405  1.2798  0.5302 -0.5579
14875TIP3   OH266039   5.711   3.514  11.240  0.2756  0.6909 -0.2371
14875TIP3    H166040   5.721   3.461  11.162 -1.8828 -1.0770  0.5832
14875TIP3    H266041   5.718   3.452  11.313  0.3105  1.9690  0.8912
14876TIP3   OH266042   5.018   2.696  15.387  0.7960 -0.0575  0.1584
14876TIP3    H166043   4.965   2.624  15.353 -0.7783  0.4700  1.3859
14876TIP3    H266044   4.965   2.774  15.370  1.0316  0.4524  1.6847
14877TIP3   OH266045   6.621   3.533  13.699  0.0472 -0.2688  0.3653
14877TIP3    H166046   6.608   3.527  13.793  0.7287 -0.9726  0.4256
14877TIP3    H266047   6.715   3.545  13.688 -0.1839  1.2469 -0.1786
14878TIP3   OH266048   1.746   5.749  17.064 -0.0898 -0.2609 -0.5489
14878TIP3    H166049   1.817   5.685  17.060  0.7143  0.6319 -1.9860
14878TIP3    H266050   1.732   5.774  16.972 -0.5585  1.3700 -0.0745
14879TIP3   OH266051   3.019   1.376  14.967  0.0237 -0.1551  0.0017
14879TIP3    H166052   3.044   1.468  14.967 -2.0128  0.4524  0.8280
14879TIP3    H266053   2.995   1.357  15.057 -0.3616 -1.2727 -0.3101
14880TIP3   OH266054   0.718   3.667  14.465  0.1602 -0.4066  0.6702
14880TIP3    H166055   0.762   3.740  14.422 -0.6352  0.6967  1.6524
14880TIP3    H266056   0.748   3.589  14.418  0.6747  0.5858 -0.7025
14881TIP3   OH266057   2.323   1.334  10.950 -0.0689 -0.1123 -0.8541
14881TIP3    H166058   2.387   1.341  10.879  2.6563  0.0165  1.4306
14881TIP3    H266059   2.297   1.424  10.968  0.3489 -0.0137 -0.7451
14882TIP3   OH266060   4.413   0.030  10.707  0.0881 -0.7067  0.1456
14882TIP3    H166061   4.488   0.017  10.649 -1.5562 -2.1809 -1.8184
14882TIP3    H266062   4.378   0.115  10.682  0.1400 -0.7579 -0.1037
14883TIP3   OH266063   3.854   4.851   1.738 -0.2122  0.3437  0.2374
14883TIP3    H166064   3.945   4.834   1.760 -0.4353 -0.4349  0.6110
14883TIP3    H266065   3.822   4.767   1.705 -0.8211  0.5764  0.2295
14884TIP3   OH266066   0.592   2.249   6.201 -0.0548 -0.2824 -0.2395
14884TIP3    H166067   0.675   2.266   6.156  0.0646 -0.0398  0.0739
14884TIP3    H266068   0.617   2.227   6.290 -0.3565  0.2883 -0.0101
14885TIP3   OH266069   5.808   4.051  17.122  0.0196  0.0759  0.7231
14885TIP3    H166070   5.838   4.135  17.086  0.3203 -0.1376  0.4759
14885TIP3    H266071   5.797   3.995  17.045 -1.8463  0.4052  0.6983
14886TIP3   OH266072   6.206   2.963  12.418  0.3103 -0.2075  0.3232
14886TIP3    H166073   6.226   3.013  12.497  1.2318 -0.4394  0.2510
14886TIP3    H266074   6.130   3.007  12.380 -0.1043 -0.0538  1.2953
14887TIP3   OH266075   2.238   6.294   3.954 -0.3988 -0.1026 -0.2318
14887TIP3    H166076   2.263   6.256   4.038  0.0225  0.4874 -0.0831
14887TIP3    H266077   2.302   6.364   3.940 -0.4963 -0.1675 -1.0193
14888TIP3   OH266078   4.058   3.954   6.319 -0.1095 -0.8359  0.3838
14888TIP3    H166079   4.130   3.897   6.293  0.7340  0.1768  0.4301
14888TIP3    H266080   4.032   3.999   6.238 -0.0690 -0.5156  0.5476
14889TIP3   OH266081   3.151   6.109   1.853  0.3108 -0.4188 -0.0186
14889TIP3    H166082   3.226   6.155   1.890  2.7531 -0.6057 -4.2005
14889TIP3    H266083   3.177   6.016   1.855  0.1907 -0.4956 -1.4297
14890TIP3   OH266084   4.543   0.857  13.269 -0.2405 -0.0608  0.1462
14890TIP3    H166085   4.462   0.809  13.286 -0.8489  1.0408  0.4662
14890TIP3    H266086   4.535   0.937  13.321  1.3822 -0.2574  0.7522
14891TIP3   OH266087   6.735   0.212  13.369 -0.1696 -0.5424 -0.7319
14891TIP3    H166088   6.690   0.173  13.294 -1.0486  0.3908 -0.7165
14891TIP3    H266089   6.825   0.178  13.364 -0.3254 -0.8209 -1.9680
14892TIP3   OH266090   5.015   4.083   1.419  0.0578 -0.5562  0.1939
14892TIP3    H166091   4.932   4.040   1.400  0.3618 -1.4910  0.8919
14892TIP3    H266092   5.082   4.021   1.388  0.4962 -0.2734  0.5589
14893TIP3   OH266093   2.154   4.900   3.914  0.2594  0.3177  0.6376
14893TIP3    H166094   2.195   4.820   3.881 -1.3051  0.0289 -0.7848
14893TIP3    H266095   2.115   4.875   3.998  0.4759 -0.1848  0.5881
14894TIP3   OH266096   3.098   6.228  13.595 -0.3810 -0.0412 -0.4442
14894TIP3    H166097   3.041   6.157  13.563 -1.1843 -0.5974  2.0296
14894TIP3    H266098   3.158   6.184  13.655 -0.1047  1.1953  0.2023
14895TIP3   OH266099   0.269   5.360   3.768  0.0924 -0.3211  0.3929
14895TIP3    H166100   0.255   5.315   3.684  2.6429 -1.2259  0.3841
14895TIP3    H266101   0.256   5.453   3.747  0.7575 -0.5200 -1.0330
14896TIP3   OH266102   3.442   0.624   1.312 -0.1251 -0.1792  1.0299
14896TIP3    H166103   3.462   0.615   1.405 -0.8802  0.1889  1.2353
14896TIP3    H266104   3.528   0.628   1.269  0.2355  0.2456  1.7662
14897TIP3   OH266105   6.674   4.047  14.385  0.3077 -0.5245  0.2040
14897TIP3    H166106   6.703   3.970  14.433 -2.4992 -2.7653 -1.4190
14897TIP3    H266107   6.709   4.036  14.297 -0.9150 -0.5344 -0.3077
14898TIP3   OH266108   4.576   0.199   2.208  0.2478  0.2291 -0.1373
14898TIP3    H166109   4.642   0.165   2.268  0.7672  0.6011 -0.4870
14898TIP3    H266110   4.588   0.294   2.210  0.4183  0.2340 -0.9827
14899TIP3   OH266111   2.588   0.241  15.525  0.7286 -0.6620 -0.3358
14899TIP3    H166112   2.502   0.267  15.495  0.0430 -1.7309  0.6086
14899TIP3    H266113   2.592   0.269  15.616  1.0126 -1.4324 -0.1005
14900TIP3   OH266114   2.828   2.098   4.676  0.1975  0.0888 -0.4114
14900TIP3    H166115   2.893   2.146   4.624 -0.3688  0.1166 -1.1086
14900TIP3    H266116   2.751   2.154   4.678 -0.1980 -0.4360 -0.5605
14901TIP3   OH266117   3.360   0.013  14.342 -0.8668  0.4611  0.3193
14901TIP3    H166118   3.313  -0.046  14.282 -1.6239  0.5966  0.7687
14901TIP3    H266119   3.436  -0.037  14.371 -0.8229  0.1725 -0.2822
14902TIP3   OH266120   5.160   0.950  16.685  0.3084 -0.1246  0.6540
14902TIP3    H166121   5.187   1.042  16.693 -0.3123  0.0934  0.3119
14902TIP3    H266122   5.088   0.952  16.622  0.3275 -0.8574  0.6034
14903TIP3   OH266123   1.734   1.723   3.310 -0.0950 -0.2090 -0.1375
14903TIP3    H166124   1.689   1.676   3.239 -0.3751 -0.5854  0.2844
14903TIP3    H266125   1.827   1.704   3.296 -0.0061  0.9085 -1.2558
14904TIP3   OH266126   5.471   5.787  11.351 -0.0770  0.3677 -0.6880
14904TIP3    H166127   5.559   5.825  11.348 -0.0035  0.3945  0.9136
14904TIP3    H266128   5.413   5.863  11.363 -0.3329  0.3593 -1.8382
14905TIP3   OH266129   5.603   4.273  16.368  0.2868 -0.6361  0.6389
14905TIP3    H166130   5.600   4.353  16.420  0.1461 -0.6254  0.6150
14905TIP3    H266131   5.682   4.282  16.315 -2.4471  2.1072 -3.5396
14906TIP3   OH266132   5.382   0.731  12.047  0.3887 -0.3431  0.0111
14906TIP3    H166133   5.311   0.778  12.090  1.1252 -1.0449  2.1142
14906TIP3    H266134   5.428   0.797  11.996  0.8161  1.0658  2.1112
14907TIP3   OH266135   4.301   0.221   2.266 -0.0716  0.2974 -0.3170
14907TIP3    H166136   4.395   0.213   2.248  0.1748  2.5516 -0.3151
14907TIP3    H266137   4.261   0.236   2.181 -0.6378 -1.7894 -0.4733
14908TIP3   OH266138   1.842   2.286   2.336  0.3317 -0.1557  0.0785
14908TIP3    H166139   1.922   2.262   2.383  0.9705  0.7315 -0.5316
14908TIP3    H266140   1.788   2.207   2.339  1.2496 -0.7892  0.4436
14909TIP3   OH266141   1.715   1.790  13.737  0.1734 -0.7849  0.3535
14909TIP3    H166142   1.782   1.823  13.797  1.4255 -1.1648 -0.7648
14909TIP3    H266143   1.762   1.726  13.683 -1.1414 -1.1495 -0.4014
14910TIP3   OH266144   1.435   6.218  12.621  0.1031 -0.2241 -0.5019
14910TIP3    H166145   1.453   6.288  12.558 -2.3194 -0.4774 -1.6059
14910TIP3    H266146   1.485   6.143  12.588  1.6088  0.5622 -0.0985
14911TIP3   OH266147   4.767   0.544   1.700  0.0974  0.2153 -0.1028
14911TIP3    H166148   4.723   0.612   1.750  1.8118  2.4366 -1.4012
14911TIP3    H266149   4.846   0.587   1.667  2.6032 -3.1066  1.0162
14912TIP3   OH266150   2.073   3.338   3.842  0.0493  0.4142 -0.1145
14912TIP3    H166151   1.994   3.363   3.890  0.6301 -0.7148  1.5055
14912TIP3    H266152   2.051   3.254   3.801 -0.0513  0.8081 -0.8971
14913TIP3   OH266153   0.811   3.103  13.210 -0.1102  0.1824 -0.3454
14913TIP3    H166154   0.860   3.175  13.170  1.0450 -1.2194 -1.5356
14913TIP3    H266155   0.845   3.098  13.299  0.4961  0.4813 -0.5531
14914TIP3   OH266156   4.485   0.665   1.645 -0.4503  0.6266 -0.0010
14914TIP3    H166157   4.391   0.649   1.640 -0.4361  0.6658 -0.5337
14914TIP3    H266158   4.505   0.669   1.738 -0.5484 -1.9519  0.2005
14915TIP3   OH266159   6.026   5.345   4.893 -0.6643 -0.1777  0.1408
14915TIP3    H166160   5.996   5.288   4.822 -0.4748  0.1165 -0.1799
14915TIP3    H266161   6.091   5.293   4.940 -1.6905 -0.8333  0.8678
14916TIP3   OH266162   0.489   5.258  14.794 -0.4019  0.6369  0.3312
14916TIP3    H166163   0.460   5.335  14.843  0.3185  0.5284  0.9616
14916TIP3    H266164   0.533   5.204  14.860  0.4847  0.4280 -0.4079
14917TIP3   OH266165   0.096   4.328   3.052  0.0255  0.6447 -0.3537
14917TIP3    H166166   0.113   4.309   3.145 -0.2751 -0.7424 -0.5650
14917TIP3    H266167   0.040   4.406   3.054  1.0862  1.4185  0.5646
14918TIP3   OH266168   3.600   2.922   5.878 -0.2899 -0.4847 -0.3291
14918TIP3    H166169   3.656   2.941   5.953  1.7051 -0.4091 -1.7700
14918TIP3    H266170   3.533   2.991   5.881  1.8494  1.7444 -0.6191
14919TIP3   OH266171   1.842   5.506   3.637 -0.6128  0.1545 -0.3113
14919TIP3    H166172   1.855   5.473   3.548  0.3179  2.3831 -1.0591
14919TIP3    H266173   1.876   5.436   3.693  3.6879  0.7177 -1.8578
14920TIP3   OH266174   0.820   3.049  17.081  0.2671  0.2298 -0.3897
14920TIP3    H166175   0.891   3.010  17.030 -1.5363 -0.7345 -2.2945
14920TIP3    H266176   0.779   2.975  17.125  0.0763  0.7130  0.2612
14921TIP3   OH266177   4.805   2.308   6.162 -0.0839  0.0231  0.1970
14921TIP3    H166178   4.788   2.229   6.213  1.4508 -0.8750 -0.6079
14921TIP3    H266179   4.900   2.308   6.147  0.2794  2.9769  1.6807
14922TIP3   OH266180   2.461   3.130   2.730  0.3690  0.0402 -0.3844
14922TIP3    H166181   2.452   3.220   2.701  1.0186  0.5428  0.9340
14922TIP3    H266182   2.551   3.122   2.760  0.4694 -1.1883 -0.9154
14923TIP3   OH266183   5.596   1.818   0.723 -0.1687 -0.5637  0.8209
14923TIP3    H166184   5.542   1.751   0.680 -0.8136  0.1103  0.5598
14923TIP3    H266185   5.533   1.883   0.753  0.5652  0.7994 -0.4591
14924TIP3   OH266186   3.122   6.285  11.205  0.1595 -0.2696 -0.7904
14924TIP3    H166187   3.081   6.232  11.137 -0.2410  1.2714 -1.7887
14924TIP3    H266188   3.167   6.355  11.158  0.6477  0.3083  0.4904
14925TIP3   OH266189   3.662   1.695   2.211  0.4247  0.1126  0.1509
14925TIP3    H166190   3.653   1.684   2.305  2.3096 -0.8179  0.2624
14925TIP3    H266191   3.679   1.788   2.199 -0.7327  0.4049  0.6121
14926TIP3   OH266192   0.805   4.562  14.649 -0.0976  0.0194 -0.0878
14926TIP3    H166193   0.812   4.587  14.741  0.1906 -1.2683  0.2586
14926TIP3    H266194   0.738   4.620  14.613  0.4027  1.1268  0.7116
14927TIP3   OH266195   6.656   4.833  14.735  0.1505  0.2531 -0.4508
14927TIP3    H166196   6.748   4.832  14.708  0.0744  2.0753 -0.9017
14927TIP3    H266197   6.609   4.801  14.658  0.3084  0.7878 -0.7782
14928TIP3   OH266198   5.178   4.339  12.123  0.2149 -0.9369  0.0075
14928TIP3    H166199   5.225   4.413  12.162 -0.1772 -0.5991 -0.1507
14928TIP3    H266200   5.197   4.265  12.181  1.9140 -1.0988 -0.6970
14929TIP3   OH266201   6.377   0.056  11.130  0.1102  0.1544  0.1314
14929TIP3    H166202   6.336  -0.026  11.102 -2.6641  1.1777  0.8340
14929TIP3    H266203   6.439   0.029  11.198 -0.8196 -1.3624  0.4401
14930TIP3   OH266204   4.007   0.524  16.822  0.3571  0.3798  0.6492
14930TIP3    H166205   3.930   0.497  16.771  1.2378 -1.9354  0.4233
14930TIP3    H266206   3.986   0.499  16.912 -0.0326  1.8713  1.0112
14931TIP3   OH266207   3.306   2.368  16.812  0.4198 -0.1525 -1.0148
14931TIP3    H166208   3.342   2.320  16.886  0.0195 -1.3097 -1.5374
14931TIP3    H266209   3.235   2.312  16.780 -0.1152  0.8410 -1.6039
14932TIP3   OH266210   2.535   3.756  13.994  0.3953 -0.2481 -0.3047
14932TIP3    H166211   2.500   3.819  13.931 -1.8499 -0.9068  0.2135
14932TIP3    H266212   2.557   3.679  13.941  0.5618 -0.0355 -0.5512
14933TIP3   OH266213   5.496   0.776  14.079  0.8709 -0.6070 -0.5611
14933TIP3    H166214   5.546   0.696  14.066  1.2329 -0.6314  0.8498
14933TIP3    H266215   5.416   0.749  14.123  1.0022 -0.2023 -0.0581
14934TIP3   OH266216   3.127   5.919   3.331  0.3067  0.8094 -0.0572
14934TIP3    H166217   3.053   5.884   3.282  1.6675 -1.5570 -0.5562
14934TIP3    H266218   3.097   5.924   3.421  0.3331 -2.9233  0.2864
14935TIP3   OH266219   2.420   0.338  14.879  0.2570 -0.4460 -0.3026
14935TIP3    H166220   2.336   0.372  14.848  0.5016 -0.2454 -0.7632
14935TIP3    H266221   2.404   0.313  14.970 -0.4191 -0.8372 -0.5190
14936TIP3   OH266222   5.022   2.316  13.517  0.2928  0.0246  0.5739
14936TIP3    H166223   5.105   2.355  13.544  1.4717 -2.8193  1.4320
14936TIP3    H266224   4.980   2.291  13.599 -0.6093 -0.1214  0.0785
14937TIP3   OH266225   2.312   0.713  16.331 -0.0974 -0.1991 -0.0584
14937TIP3    H166226   2.261   0.640  16.296  0.0528 -0.1925 -0.2969
14937TIP3    H266227   2.324   0.692  16.423  1.2325 -1.2370 -0.4344
14938TIP3   OH266228   6.324   4.216  15.991  0.3214  0.1499  0.3437
14938TIP3    H166229   6.356   4.163  15.919  0.1165  1.7600 -0.9986
14938TIP3    H266230   6.392   4.211  16.058  0.0159 -2.2648  0.5575
14939TIP3   OH266231   1.011   0.119  14.363  0.2874  0.1270  0.1325
14939TIP3    H166232   1.106   0.107  14.365  0.2407 -0.6821 -0.9750
14939TIP3    H266233   0.984   0.077  14.281 -0.8706  1.5562 -0.2623
14940TIP3   OH266234   2.146   1.549   5.886 -0.2086  0.1858 -0.1667
14940TIP3    H166235   2.053   1.570   5.884 -0.2069  0.2434  0.1998
14940TIP3    H266236   2.188   1.622   5.841 -0.4554 -0.5638 -1.6813
14941TIP3   OH266237   0.589   4.499  10.945  0.3298 -0.2001  0.5456
14941TIP3    H166238   0.655   4.445  10.903  1.8692  1.1694  1.1064
14941TIP3    H266239   0.562   4.449  11.022  0.4482 -0.9152  0.1298
14942TIP3   OH266240   2.846   6.542  15.553  0.3388 -0.6565  0.5540
14942TIP3    H166241   2.927   6.545  15.502  0.4449 -1.5178  0.6601
14942TIP3    H266242   2.798   6.621  15.527 -0.3806 -1.8800 -2.1720
14943TIP3   OH266243   4.893   4.939   4.432 -0.0865  0.7107 -0.2958
14943TIP3    H166244   4.860   5.028   4.416 -1.7054 -0.0832 -1.6464
14943TIP3    H266245   4.915   4.906   4.344 -1.2219 -0.8418 -0.0319
14944TIP3   OH266246   3.480   4.145   2.426 -0.3852  0.1977  0.4253
14944TIP3    H166247   3.555   4.177   2.375  1.0359 -1.2063  1.4903
14944TIP3    H266248   3.410   4.135   2.362  0.1681  2.0452 -0.5231
14945TIP3   OH266249   4.672   2.202   1.929 -0.2199  0.5587 -0.0540
14945TIP3    H166250   4.686   2.297   1.931  0.0078  0.5136  1.4752
14945TIP3    H266251   4.750   2.167   1.887 -0.4842  1.0672 -0.9978
14946TIP3   OH266252   0.899   5.675   1.246  0.3800  0.0278  0.0866
14946TIP3    H166253   0.982   5.628   1.242 -0.2610 -1.0707 -1.7409
14946TIP3    H266254   0.841   5.620   1.299  0.5906  0.4479  0.7690
14947TIP3   OH266255   4.092   1.995   3.796  0.8619 -0.7992  0.3601
14947TIP3    H166256   4.186   2.004   3.813  0.7429  1.2269  0.1222
14947TIP3    H266257   4.050   2.047   3.864  0.0616  0.7900 -1.2674
14948TIP3   OH266258   1.339   0.843  11.153 -0.2998  0.0604  0.0186
14948TIP3    H166259   1.391   0.764  11.164 -0.7678 -0.1311  0.9136
14948TIP3    H266260   1.402   0.911  11.131  0.2372 -0.3309  0.3369
14949TIP3   OH266261   6.193   4.473  14.200 -0.4993 -0.2143  0.3427
14949TIP3    H166262   6.277   4.493  14.158  0.0889 -1.8010  0.7028
14949TIP3    H266263   6.153   4.559  14.214  1.2167  0.6064  0.5087
14950TIP3   OH266264   3.013   4.658   1.770 -0.4808  0.0068 -0.2862
14950TIP3    H166265   3.087   4.704   1.730  0.1501 -0.2932  0.5099
14950TIP3    H266266   3.003   4.578   1.718 -0.9937  0.5747 -1.1004
14951TIP3   OH266267   2.093   6.336  16.739 -0.1195 -0.0912  0.2969
14951TIP3    H166268   2.009   6.314  16.780  0.1032 -0.1859  0.7091
14951TIP3    H266269   2.147   6.368  16.811 -0.4898  2.0361 -0.3022
14952TIP3   OH266270   5.275   0.981  11.706 -0.1603  0.8674  0.0361
14952TIP3    H166271   5.298   0.958  11.616 -0.4567 -0.4497  0.2697
14952TIP3    H266272   5.339   1.049  11.731 -1.1379  2.5244 -1.7080
14953TIP3   OH266273   1.063   4.959   3.850 -0.1752 -0.3240  0.2889
14953TIP3    H166274   0.992   4.979   3.910  1.1480 -0.2736  1.9192
14953TIP3    H266275   1.024   4.901   3.784 -1.6731 -0.3709  1.1818
14954TIP3   OH266276   5.413   0.967  10.469  0.2103 -0.1289 -0.6401
14954TIP3    H166277   5.336   0.959  10.413 -1.4668 -1.9303  1.6971
14954TIP3    H266278   5.483   0.992  10.410 -2.1594  1.7691 -2.8675
14955TIP3   OH266279   4.684   1.810  11.762  0.2413  0.0631 -0.0747
14955TIP3    H166280   4.591   1.825  11.780 -0.1270 -3.9518  2.5985
14955TIP3    H266281   4.685   1.738  11.698  1.5755  0.7917 -0.9154
14956TIP3   OH266282   4.379   4.573   5.726  0.0039 -0.2182 -0.1055
14956TIP3    H166283   4.341   4.493   5.689  0.7407 -0.5131 -0.2471
14956TIP3    H266284   4.348   4.573   5.817 -0.8011 -0.1387 -0.3700
14957TIP3   OH266285   2.492   3.251  10.614 -0.2023 -0.4185 -0.2534
14957TIP3    H166286   2.575   3.205  10.623 -0.2225 -0.4184 -0.0620
14957TIP3    H266287   2.427   3.192  10.652  0.0309  0.5616  1.8096
14958TIP3   OH266288   6.064   3.708  16.366  0.4848  0.0026 -0.3903
14958TIP3    H166289   5.992   3.769  16.349 -0.9071 -1.1569  1.0143
14958TIP3    H266290   6.037   3.627  16.322  1.1333 -0.3233 -0.1990
14959TIP3   OH266291   2.436   1.109  12.923 -0.3916 -0.5601  0.6213
14959TIP3    H166292   2.476   1.024  12.943 -0.7656 -1.2634 -1.3757
14959TIP3    H266293   2.342   1.091  12.926 -0.4656 -0.4563 -0.6250
14960TIP3   OH266294   2.896   6.746  12.520 -0.5450 -0.3127  0.2390
14960TIP3    H166295   2.901   6.841  12.511  1.2171 -0.2818  1.1814
14960TIP3    H266296   2.826   6.731  12.583 -0.3728  0.3909  0.5979
14961TIP3   OH266297   4.602   2.443  12.464  0.2657 -0.6331  0.0887
14961TIP3    H166298   4.573   2.355  12.486  0.4319 -0.9050 -0.7667
14961TIP3    H266299   4.618   2.485  12.549 -0.9327 -1.0334  0.5264
14962TIP3   OH266300   5.907   5.296  12.089  0.7736  0.1450  0.1494
14962TIP3    H166301   5.822   5.317  12.052  0.4527 -0.2059  0.6648
14962TIP3    H266302   5.953   5.248  12.020  0.7777  0.8331 -0.3338
14963TIP3   OH266303   6.055   2.757  10.750  0.7000 -0.8257 -0.0252
14963TIP3    H166304   5.963   2.737  10.733 -0.1760  1.1570  1.9743
14963TIP3    H266305   6.074   2.714  10.833  1.3161 -0.4089  0.0529
14964TIP3   OH266306   2.361   1.676  10.679 -0.0822 -0.3896 -0.5750
14964TIP3    H166307   2.416   1.741  10.636 -1.0851  1.1627  0.3744
14964TIP3    H266308   2.271   1.701  10.656 -0.7309  0.8478  2.6332
14965TIP3   OH266309   5.681   3.960   1.847  0.0896  0.0539 -0.4706
14965TIP3    H166310   5.768   3.996   1.826 -0.3153  0.7849 -0.9266
14965TIP3    H266311   5.700   3.883   1.901  0.9833  0.8421  0.3912
14966TIP3   OH266312   0.845   2.182   1.957 -0.4510 -0.0017 -0.7728
14966TIP3    H166313   0.750   2.194   1.950 -0.3444  0.2532 -2.0618
14966TIP3    H266314   0.877   2.191   1.867  0.8342  0.2406 -0.3159
14967TIP3   OH266315   0.561   3.904  12.241 -0.5246  0.3798 -0.0599
14967TIP3    H166316   0.594   3.896  12.151 -0.1557  2.0086 -0.0918
14967TIP3    H266317   0.477   3.856  12.239 -0.0075 -0.5422 -0.9653
14968TIP3   OH266318   6.357   1.940  16.046  0.1337 -0.5902  0.7332
14968TIP3    H166319   6.313   1.977  15.969  0.0375 -2.0802  0.0348
14968TIP3    H266320   6.303   1.968  16.120 -1.5474 -1.6754 -0.0225
14969TIP3   OH266321   2.216   4.522  15.455 -0.5410  0.3125  0.1421
14969TIP3    H166322   2.274   4.545  15.528  0.9333  0.4099 -1.0241
14969TIP3    H266323   2.255   4.445  15.415  0.0212  1.5969 -1.9600
14970TIP3   OH266324   0.279   1.504   4.342 -0.2188  0.3540  0.5863
14970TIP3    H166325   0.271   1.410   4.362 -3.3375  0.5152  0.6619
14970TIP3    H266326   0.268   1.547   4.427 -2.2975  0.7957  0.1513
14971TIP3   OH266327   3.749   4.327   6.365  0.4549  0.4180 -0.4104
14971TIP3    H166328   3.783   4.253   6.414  0.7948  0.6242 -0.3328
14971TIP3    H266329   3.705   4.381   6.431  2.1521  1.4347 -0.0522
14972TIP3   OH266330   0.204   3.709   6.169  0.1030  0.5571  0.1461
14972TIP3    H166331   0.152   3.630   6.188 -0.4964  0.5614 -1.3483
14972TIP3    H266332   0.292   3.688   6.200 -0.0578 -0.7071 -0.1996
14973TIP3   OH266333   2.746   3.462  16.399  0.0566  0.3493  0.0772
14973TIP3    H166334   2.743   3.500  16.311 -0.5537 -1.8272 -0.9223
14973TIP3    H266335   2.838   3.469  16.424  0.2408  1.0182 -0.7364
14974TIP3   OH266336   2.387   1.169   5.411  0.0725  0.0089 -0.3551
14974TIP3    H166337   2.431   1.186   5.328 -0.7887  0.8394 -0.6625
14974TIP3    H266338   2.448   1.202   5.478 -0.4962  2.1647 -0.8251
14975TIP3   OH266339   5.555   5.506  11.456 -0.0232 -0.2370  0.3147
14975TIP3    H166340   5.626   5.565  11.482 -0.6025  1.1407 -1.0731
14975TIP3    H266341   5.493   5.562  11.410 -1.7187 -1.5368  0.9322
14976TIP3   OH266342   0.797   1.299   6.095 -0.0513 -0.6646  0.7717
14976TIP3    H166343   0.792   1.327   6.004 -0.3866  1.7037  1.4502
14976TIP3    H266344   0.708   1.306   6.128  0.2096 -0.5843  1.4989
14977TIP3   OH266345   2.086   2.062   2.476 -0.2494 -0.1604 -0.2352
14977TIP3    H166346   2.111   1.970   2.467  2.7645  0.0755  3.3220
14977TIP3    H266347   2.045   2.068   2.562  0.7293  1.9720  0.1657
14978TIP3   OH266348   5.108   4.100  13.221 -0.3107 -0.3921  0.2034
14978TIP3    H166349   5.162   4.111  13.143  0.8126 -1.2730  0.8255
14978TIP3    H266350   5.106   4.186  13.261  0.1651 -0.2188 -0.1338
14979TIP3   OH266351   1.280   6.017   3.536  0.3806  0.0308 -0.4594
14979TIP3    H166352   1.340   6.011   3.462  2.0700 -0.1805  0.8693
14979TIP3    H266353   1.333   6.050   3.608 -1.0444 -0.3777  0.8475
14980TIP3   OH266354   6.311   4.431   6.152  0.9953 -0.7182  0.4115
14980TIP3    H166355   6.338   4.520   6.175 -0.4128  0.1160 -0.9847
14980TIP3    H266356   6.364   4.375   6.209  4.8035  0.8021 -1.2733
14981TIP3   OH266357   4.038   6.171  12.510 -0.4832  0.1955 -0.4819
14981TIP3    H166358   4.011   6.247  12.561  0.1727  0.9280 -1.1817
14981TIP3    H266359   3.985   6.176  12.430 -1.5465 -0.9717  0.1255
14982TIP3   OH266360   1.793   2.159   6.587  0.9671  0.1844 -0.9465
14982TIP3    H166361   1.875   2.112   6.575  0.4711 -0.1609 -3.7312
14982TIP3    H266362   1.738   2.099   6.638  2.5363  0.6405  1.4158
14983TIP3   OH266363   6.789   3.957  11.649  0.8170  0.6321 -0.6884
14983TIP3    H166364   6.876   3.918  11.660  1.0198  1.2301 -0.0995
14983TIP3    H266365   6.729   3.882  11.651  1.2374  0.2961 -0.0436
14984TIP3   OH266366   3.007   5.679  13.418  0.2368  0.0651 -0.3339
14984TIP3    H166367   2.958   5.679  13.336 -0.9900  0.6547  0.3774
14984TIP3    H266368   3.073   5.748  13.406 -0.4572  0.7120 -0.5396
14985TIP3   OH266369   5.222   5.636   4.103 -0.0190 -0.0625 -0.4133
14985TIP3    H166370   5.293   5.630   4.168  0.3742  0.7598 -0.7491
14985TIP3    H266371   5.263   5.677   4.027 -1.1089  1.4699 -0.2248
14986TIP3   OH266372   3.304   4.724   5.752 -0.8417  0.7735 -0.0083
14986TIP3    H166373   3.384   4.775   5.740 -0.3688  0.1727  0.5890
14986TIP3    H266374   3.332   4.642   5.792 -1.7348  0.4909  0.0684
14987TIP3   OH266375   6.075   3.697  11.956 -0.2240  0.0203  0.0236
14987TIP3    H166376   6.058   3.756  12.029  0.7577 -0.4696  0.6653
14987TIP3    H266377   6.144   3.741  11.906  0.2530 -0.4063  0.3017
14988TIP3   OH266378   1.882   1.968  13.440  0.0889 -0.0910  0.3569
14988TIP3    H166379   1.795   1.927  13.433  0.0453  0.0539  0.0372
14988TIP3    H266380   1.930   1.934  13.364 -0.1267  0.8788 -0.2228
14989TIP3   OH266381   3.339   3.039   1.570  0.0552  1.1801 -0.5048
14989TIP3    H166382   3.353   3.130   1.598 -0.9425  1.0062  0.6641
14989TIP3    H266383   3.246   3.023   1.587  0.6789 -0.7676  1.5793
14990TIP3   OH266384   3.593   5.984  11.686  0.0949  0.4883 -0.4572
14990TIP3    H166385   3.676   5.992  11.640 -0.2170 -1.5180 -1.4483
14990TIP3    H266386   3.541   5.925  11.632 -1.0500 -0.3272  1.4386
14991TIP3   OH266387   4.195   0.547  13.775 -0.0841 -0.3734  0.2554
14991TIP3    H166388   4.190   0.635  13.813  1.2046  0.6417 -1.7016
14991TIP3    H266389   4.115   0.504  13.803 -1.8572  2.1983 -0.4429
14992TIP3   OH266390   4.144   0.599  16.142  0.4905  0.6998  0.2573
14992TIP3    H166391   4.083   0.637  16.205 -1.4812 -2.3820  0.4335
14992TIP3    H266392   4.089   0.546  16.084  2.7685 -0.3902 -1.0586
14993TIP3   OH266393   4.052   1.041   2.226  0.3002 -0.7382  0.2243
14993TIP3    H166394   4.035   1.008   2.314  0.6066  0.3422  0.7098
14993TIP3    H266395   4.093   0.968   2.180 -1.6827 -1.9846  0.3242
14994TIP3   OH266396   3.312   2.251  12.742  0.0614 -0.3880  0.2234
14994TIP3    H166397   3.402   2.275  12.765  0.0555 -0.3900  0.2493
14994TIP3    H266398   3.284   2.320  12.682 -0.3012  0.2370  1.0831
14995TIP3   OH266399   5.493   1.756   4.137  0.7735 -0.2042 -0.3653
14995TIP3    H166400   5.473   1.791   4.224  1.3893 -0.5120 -0.0964
14995TIP3    H266401   5.411   1.765   4.088  0.7643  1.1209 -0.1456
14996TIP3   OH266402   5.447   6.498   2.073  0.6282 -0.1060  0.0629
14996TIP3    H166403   5.467   6.552   1.997  0.8938 -1.1939 -0.6634
14996TIP3    H266404   5.500   6.535   2.144  2.0446 -0.3851 -0.8160
14997TIP3   OH266405   4.552   1.704   4.698 -0.2117 -0.1186 -0.3186
14997TIP3    H166406   4.560   1.693   4.603 -2.2366  0.1872 -0.5767
14997TIP3    H266407   4.462   1.734   4.711 -0.4615 -1.5272  1.8059
14998TIP3   OH266408   6.715   4.120  12.289 -0.0843 -0.0419 -0.8633
14998TIP3    H166409   6.709   4.213  12.313 -1.6145  0.3364 -2.4727
14998TIP3    H266410   6.750   4.077  12.367 -0.5425  1.7081  0.3644
14999TIP3   OH266411   5.296   6.202   1.706 -0.0375 -0.3385  0.3564
14999TIP3    H166412   5.246   6.202   1.624 -1.5999 -0.6542  1.2688
14999TIP3    H266413   5.335   6.289   1.711  0.7515 -0.5745 -1.0906
15000TIP3   OH266414   0.075   2.595  15.972  0.0760 -0.0302 -0.2358
15000TIP3    H166415   0.006   2.531  15.953 -0.4154  0.5077 -0.2751
15000TIP3    H266416   0.055   2.669  15.916 -0.9543  1.2894  1.7531
15001TIP3   OH266417   6.145   3.573   3.690  0.4891  0.3951  0.1638
15001TIP3    H166418   6.075   3.515   3.720 -0.8291  2.3109  1.0483
15001TIP3    H266419   6.118   3.599   3.602  0.9091 -0.0634 -0.1038
15002TIP3   OH266420   0.660   6.794  13.147  0.2435 -1.5001 -0.5845
15002TIP3    H166421   0.568   6.769  13.135  0.6529 -3.1091 -0.5413
15002TIP3    H266422   0.675   6.862  13.080 -0.9012 -1.3831 -0.7423
15003TIP3   OH266423   4.024   0.855  11.362  0.3327  0.3937  0.6301
15003TIP3    H166424   4.112   0.885  11.386  1.1431  0.1620 -1.7826
15003TIP3    H266425   4.006   0.898  11.278 -1.2573 -0.6895  0.3742
15004TIP3   OH266426   1.775   5.039   0.681  0.1071  0.1130  0.7016
15004TIP3    H166427   1.864   5.032   0.716 -0.0574  1.1363  1.3893
15004TIP3    H266428   1.727   5.087   0.749 -0.4990  1.1988 -0.4516
15005TIP3   OH266429   6.547   4.220   1.110 -0.0413 -0.5098 -0.0255
15005TIP3    H166430   6.490   4.282   1.156  0.7839  0.3979 -0.2078
15005TIP3    H266431   6.504   4.135   1.123 -0.5545 -0.0854  1.2447
15006TIP3   OH266432   1.080   4.215  15.850 -0.5033  0.1671 -0.2403
15006TIP3    H166433   1.071   4.196  15.943 -1.4684  0.7541 -0.2001
15006TIP3    H266434   1.038   4.141  15.806 -1.5174  0.6675 -0.1538
15007TIP3   OH266435   2.063   3.581  16.937  0.2998  0.1984 -0.2054
15007TIP3    H166436   2.115   3.590  17.017  0.6303 -0.5296 -0.3346
15007TIP3    H266437   1.972   3.577  16.967  0.3561  0.8065  0.0681
15008TIP3   OH266438   3.345   4.164  16.157 -0.1438 -0.7177  0.0694
15008TIP3    H166439   3.398   4.136  16.083 -0.5801 -0.2055 -0.4417
15008TIP3    H266440   3.288   4.090  16.176 -1.6310 -0.0583 -1.5802
15009TIP3   OH266441   3.907   0.325   3.645  0.0171  0.5931  0.4538
15009TIP3    H166442   3.906   0.229   3.639  0.3191  0.5879  0.4322
15009TIP3    H266443   3.941   0.353   3.560 -2.3307  0.8294 -0.4617
15010TIP3   OH266444   3.754   3.568   2.803  0.0001  0.0555 -0.6790
15010TIP3    H166445   3.848   3.550   2.815 -0.3596 -2.0226 -0.6601
15010TIP3    H266446   3.724   3.500   2.743 -1.2297  1.5975 -1.8933
15011TIP3   OH266447   3.842   1.827   2.669  0.1157  0.1969 -0.2644
15011TIP3    H166448   3.859   1.861   2.756 -0.5399  0.5188 -0.2656
15011TIP3    H266449   3.779   1.756   2.682  3.4073 -2.9637  0.1038
15012TIP3   OH266450   6.307   5.889   4.783  0.3305 -0.2728 -0.4353
15012TIP3    H166451   6.310   5.810   4.729  0.9033 -0.8503  0.4069
15012TIP3    H266452   6.303   5.856   4.873 -1.3393  0.6676 -0.1284
15013TIP3   OH266453   4.590   2.540  15.452 -0.5630 -0.7977 -0.1195
15013TIP3    H166454   4.664   2.542  15.512 -1.4377  0.7389  0.9723
15013TIP3    H266455   4.515   2.567  15.505 -1.2763  1.2281 -1.9882
15014TIP3   OH266456   3.134   1.821   2.428  0.0100  0.3645 -0.2805
15014TIP3    H166457   3.053   1.782   2.395  0.4698 -0.8026 -0.0756
15014TIP3    H266458   3.122   1.825   2.523  0.1541  0.2553 -0.2568
15015TIP3   OH266459   6.615   5.412  14.602  0.2457 -0.2068  0.2848
15015TIP3    H166460   6.598   5.501  14.634  2.2978 -0.2517  1.7360
15015TIP3    H266461   6.531   5.381  14.569 -1.1567  1.3057  2.2245
15016TIP3   OH266462   3.795   4.719  13.912  0.4943 -0.3102  0.2216
15016TIP3    H166463   3.734   4.715  13.986 -0.2600  1.7404 -0.2433
15016TIP3    H266464   3.739   4.715  13.835  0.9088  1.5636 -0.2121
15017TIP3   OH266465   1.528   6.336   1.167  0.1117 -0.0057  0.5319
15017TIP3    H166466   1.590   6.265   1.149 -1.4554 -1.4429  0.5373
15017TIP3    H266467   1.453   6.292   1.208 -0.5067  1.8133  1.4705
15018TIP3   OH266468   2.736   3.083  12.425 -0.0907 -0.1460 -0.0579
15018TIP3    H166469   2.704   3.007  12.376 -1.2062  0.9802 -1.1618
15018TIP3    H266470   2.741   3.153  12.359  2.4232  0.3626  0.5832
15019TIP3   OH266471   4.711   2.466   1.917  0.3619  0.9157  0.0944
15019TIP3    H166472   4.636   2.499   1.868 -0.8228 -0.7085  0.6861
15019TIP3    H266473   4.711   2.517   1.998 -0.1470  0.9030  0.1057
15020TIP3   OH266474   3.514   3.327   6.276  0.2087 -0.3934 -0.2102
15020TIP3    H166475   3.513   3.401   6.217 -0.4963 -0.1866  0.0543
15020TIP3    H266476   3.444   3.344   6.338  1.0303 -0.5187  0.7933
15021TIP3   OH266477   0.485   6.351  11.596  0.0561  0.0552  0.4166
15021TIP3    H166478   0.498   6.315  11.685  0.4587  0.5535  0.5631
15021TIP3    H266479   0.574   6.370  11.566  0.0191 -1.2235 -0.5665
15022TIP3   OH266480   2.690   5.274   3.666  0.1765  0.3202  0.4086
15022TIP3    H166481   2.720   5.225   3.742 -0.1419  0.2223  0.4729
15022TIP3    H266482   2.621   5.220   3.628  1.7997 -0.7102 -1.2374
15023TIP3   OH266483   3.435   5.513  16.675 -0.4537  0.2908 -0.1665
15023TIP3    H166484   3.455   5.606  16.682  1.6245  0.0076 -1.3790
15023TIP3    H266485   3.440   5.480  16.764 -1.9095  1.4321  0.3745
15024TIP3   OH266486   2.710   2.830   4.426 -0.8712  0.3799  0.2102
15024TIP3    H166487   2.626   2.805   4.464 -0.7358 -0.2596  0.0843
15024TIP3    H266488   2.687   2.874   4.344 -1.0243 -1.5251 -0.8227
15025TIP3   OH266489   5.769   6.057  16.883  0.2160  0.0895 -0.0217
15025TIP3    H166490   5.740   6.074  16.793  2.2045  1.4251 -0.4704
15025TIP3    H266491   5.697   6.089  16.937 -1.7606 -2.2465 -1.0672
15026TIP3   OH266492   6.647   1.878  13.064  0.8526 -0.4491 -0.6025
15026TIP3    H166493   6.647   1.936  12.988 -0.8098  0.8920  0.3366
15026TIP3    H266494   6.598   1.801  13.036 -1.6729  0.9668 -0.3175
15027TIP3   OH266495   3.980   1.353   2.888 -0.3962 -0.8498  0.0122
15027TIP3    H166496   4.038   1.386   2.819 -1.4911 -0.6285 -0.8430
15027TIP3    H266497   4.037   1.301   2.944  0.3958 -1.7864 -1.5695
15028TIP3   OH266498   3.565   3.653   3.679  0.0967  0.3444 -0.2088
15028TIP3    H166499   3.509   3.706   3.623 -1.4253 -1.8169 -0.8357
15028TIP3    H266500   3.510   3.629   3.754  0.0534 -1.8787 -0.8768
15029TIP3   OH266501   0.907   5.811   3.938  0.2846 -0.0591 -0.1634
15029TIP3    H166502   0.848   5.761   3.995  0.3310 -0.3263 -0.3490
15029TIP3    H266503   0.880   5.902   3.950 -0.7417 -0.2509 -0.9009
15030TIP3   OH266504   6.778   0.686  14.511 -0.1756 -0.1975 -0.1492
15030TIP3    H166505   6.782   0.653  14.421 -2.5491 -2.4845  0.4631
15030TIP3    H266506   6.685   0.696  14.529  0.2426  0.2622  2.0563
15031TIP3   OH266507   6.597   3.886  13.953  0.5176  0.1936  0.0788
15031TIP3    H166508   6.628   3.848  13.871 -1.3373 -1.5768  0.1063
15031TIP3    H266509   6.506   3.910  13.935  0.3854  0.6745  1.3323
15032TIP3   OH266510   5.176   1.873  12.375 -0.1517  0.3412 -0.1676
15032TIP3    H166511   5.081   1.860  12.378 -0.1407  0.3088  0.0881
15032TIP3    H266512   5.198   1.904  12.463  0.0743  0.3509 -0.2284
15033TIP3   OH266513   2.503   2.260  12.616 -0.5612 -0.0907 -0.0925
15033TIP3    H166514   2.517   2.224  12.704 -1.1811 -0.3725 -0.1060
15033TIP3    H266515   2.532   2.190  12.557  0.7368  0.4482 -0.1227
15034TIP3   OH266516   1.439   5.708   3.275  0.3807  0.1134 -0.0875
15034TIP3    H166517   1.443   5.667   3.188 -1.6869 -0.9462  0.2617
15034TIP3    H266518   1.512   5.669   3.323  0.2110 -0.9784 -0.6786
15035TIP3   OH266519   4.899   2.240  15.007  0.2366  0.3487 -0.0262
15035TIP3    H166520   4.951   2.225  15.086  1.2600 -0.8214 -0.8740
15035TIP3    H266521   4.889   2.153  14.968 -0.9659  0.7923 -0.7523
15036TIP3   OH266522   2.401   5.528  14.810  0.6400 -0.7510 -1.1443
15036TIP3    H166523   2.337   5.456  14.803  2.2972 -2.5190  0.5985
15036TIP3    H266524   2.444   5.530  14.725  0.1569 -1.4128 -1.4135
15037TIP3   OH266525   2.848   1.163  12.539 -0.5160  0.4403 -0.2923
15037TIP3    H166526   2.764   1.135  12.577 -0.1617  0.6407  0.6602
15037TIP3    H266527   2.914   1.118  12.592  0.0242  1.9468  0.3407
15038TIP3   OH266528   6.064   4.809  11.164  0.2327 -0.6304  0.3520
15038TIP3    H166529   6.077   4.750  11.238 -1.4615 -0.7609  0.5869
15038TIP3    H266530   6.112   4.768  11.092  4.5567  1.0101  1.9702
15039TIP3   OH266531   3.857   5.772  12.072 -0.6553  0.4502 -0.0934
15039TIP3    H166532   3.840   5.687  12.032 -0.0615  0.5484 -0.5666
15039TIP3    H266533   3.920   5.754  12.141 -0.5206  0.5084 -0.2014
15040TIP3   OH266534   5.562   1.410   4.877 -0.3269  0.3986 -0.6200
15040TIP3    H166535   5.603   1.444   4.797 -0.3229  0.6179 -0.5255
15040TIP3    H266536   5.614   1.333   4.900  0.0603  0.7085 -0.4692
15041TIP3   OH266537   5.580   2.113  13.489  0.1241  0.0126  0.9153
15041TIP3    H166538   5.494   2.135  13.454  0.3966 -0.6648 -0.2451
15041TIP3    H266539   5.562   2.055  13.564 -0.4360 -2.9565 -1.3460
15042TIP3   OH266540   4.547   2.249   3.097  0.2608 -0.2490 -0.5265
15042TIP3    H166541   4.581   2.267   3.184  1.3858 -1.8849 -0.5857
15042TIP3    H266542   4.498   2.168   3.106 -1.1240  0.4937 -1.0805
15043TIP3   OH266543   0.617   5.823   3.726 -0.0029  0.3310 -0.1134
15043TIP3    H166544   0.617   5.884   3.800  0.1060  1.1337 -0.7545
15043TIP3    H266545   0.705   5.784   3.727  0.9815  2.3165 -1.3601
15044TIP3   OH266546   2.943   4.599  16.533  0.6857 -0.0395 -0.0403
15044TIP3    H166547   2.870   4.585  16.472  1.8942 -1.7286 -1.2086
15044TIP3    H266548   2.901   4.609  16.618 -0.9758  0.5091 -0.8707
15045TIP3   OH266549   2.769   5.015  13.091 -0.6866 -0.7167 -0.2324
15045TIP3    H166550   2.828   4.941  13.074  0.7812  0.6405 -1.3191
15045TIP3    H266551   2.767   5.064  13.009  0.9915  2.2202  1.3135
15046TIP3   OH266552   5.193   1.515  11.755  0.3704 -0.2610 -0.1402
15046TIP3    H166553   5.120   1.576  11.745  1.2431  1.0094  0.8792
15046TIP3    H266554   5.245   1.526  11.676  0.6432  0.4997  0.1409
15047TIP3   OH266555   0.589   2.143   1.065  0.1539 -0.0798 -0.3639
15047TIP3    H166556   0.517   2.196   1.098  0.1233  0.2371 -0.9274
15047TIP3    H266557   0.581   2.060   1.113 -0.8556 -0.2137 -0.7345
15048TIP3   OH266558   2.921   2.645   4.061  1.0033 -0.4343  0.5413
15048TIP3    H166559   2.976   2.686   3.995  2.6757  1.9964  3.2121
15048TIP3    H266560   2.838   2.691   4.055  0.6092 -1.2523 -0.7522
15049TIP3   OH266561   6.186   1.897   6.243 -0.0120  0.0847 -0.0441
15049TIP3    H166562   6.244   1.887   6.318 -2.0867  1.8284  1.9367
15049TIP3    H266563   6.124   1.824   6.251  1.5957 -1.6242 -2.0073
15050TIP3   OH266564   6.746   2.643  15.379  0.2551 -0.6644  0.4853
15050TIP3    H166565   6.689   2.569  15.400 -1.5923  0.4044 -0.4770
15050TIP3    H266566   6.717   2.671  15.292  0.5218  1.5189  1.0577
15051TIP3   OH266567   1.458   1.456  11.829  0.5820  0.1647 -0.5792
15051TIP3    H166568   1.475   1.393  11.760  1.3670  2.2117 -2.3440
15051TIP3    H266569   1.365   1.477  11.820  0.2271 -0.9532  0.2535
15052TIP3   OH266570   2.485   3.074  12.012 -0.2621 -0.3937 -0.3266
15052TIP3    H166571   2.467   3.093  11.920 -3.9153  0.9256  0.4892
15052TIP3    H266572   2.488   3.160  12.054 -1.5074 -1.0102  1.1412
15053TIP3   OH266573   3.607   1.549  13.569  0.4890  0.1066  0.0381
15053TIP3    H166574   3.541   1.543  13.638  0.5939  0.9465  0.2281
15053TIP3    H266575   3.563   1.514  13.491  0.6018 -1.5006  0.6608
15054TIP3   OH266576   3.012   3.550   0.441  0.5451  0.2474 -0.4312
15054TIP3    H166577   2.967   3.603   0.374  0.2130  1.8441  0.9816
15054TIP3    H266578   3.064   3.487   0.391  0.1131  1.2248 -2.1943
15055TIP3   OH266579   4.667   2.833   5.755  0.3621 -0.4724  0.1149
15055TIP3    H166580   4.603   2.826   5.685  1.3745 -2.3696 -0.6881
15055TIP3    H266581   4.752   2.829   5.711  1.0935  1.2916  1.2095
15056TIP3   OH266582   4.354   1.381   3.497  0.0018 -0.0223 -0.0381
15056TIP3    H166583   4.445   1.399   3.471 -0.4932  0.2761 -1.6350
15056TIP3    H266584   4.318   1.467   3.518  0.2234 -0.1999  1.1941
15057TIP3   OH266585   2.409   3.603  12.590 -0.1264  0.1709  0.6058
15057TIP3    H166586   2.432   3.648  12.672 -0.8765  2.4748 -0.3572
15057TIP3    H266587   2.483   3.618  12.532 -0.0921 -0.4486  0.4868
15058TIP3   OH266588   6.538   6.562  16.422  1.1223  0.2480 -0.5459
15058TIP3    H166589   6.561   6.497  16.488 -2.2955 -0.1060  0.4610
15058TIP3    H266590   6.578   6.643  16.454  0.1297 -0.0581  1.6907
15059TIP3   OH266591   3.841   1.392  15.016 -0.4790 -0.1460  0.5966
15059TIP3    H166592   3.884   1.347  15.088 -0.1741  1.8076  1.7169
15059TIP3    H266593   3.901   1.463  14.993 -0.1239 -1.2422 -2.2713
15060TIP3   OH266594   1.867   6.258  14.697 -0.8328  0.1749 -0.8857
15060TIP3    H166595   1.916   6.244  14.616  0.8110  1.9665 -0.2860
15060TIP3    H266596   1.797   6.319  14.673  0.1280  1.3302 -0.8495
15061TIP3   OH266597   6.514   0.324   3.102 -0.6167 -0.4323  0.0548
15061TIP3    H166598   6.494   0.294   3.014  0.5288 -0.4403 -0.2200
15061TIP3    H266599   6.573   0.257   3.137  2.4821  1.6335 -0.7833
15062TIP3   OH266600   3.514   5.443   2.078  0.1999 -0.2886  0.1044
15062TIP3    H166601   3.595   5.489   2.100  1.1870 -1.3668 -1.0611
15062TIP3    H266602   3.459   5.509   2.035  0.8420  0.2410  0.0819
15063TIP3   OH266603   5.295   1.660  16.212  0.6509  0.1841 -0.0236
15063TIP3    H166604   5.327   1.574  16.238 -0.1007  0.9135  3.8281
15063TIP3    H266605   5.374   1.715  16.210  0.8528 -0.1105 -0.3756
15064TIP3   OH266606   2.964   3.477  13.217  0.0448  0.0951  0.0127
15064TIP3    H166607   2.900   3.548  13.219 -0.7829 -0.5994 -0.9465
15064TIP3    H266608   3.028   3.504  13.152 -0.4535 -0.1778 -0.5989
15065TIP3   OH266609   5.278   4.723  10.273  0.0491  0.1103  0.3386
15065TIP3    H166610   5.261   4.631  10.292 -2.4589  1.0336  3.4166
15065TIP3    H266611   5.198   4.753  10.230  0.2475  1.1480  0.6640
15066TIP3   OH266612   2.834   5.637   1.391  0.4517  0.1530  0.1825
15066TIP3    H166613   2.828   5.621   1.297 -1.7183 -0.0388  0.3006
15066TIP3    H266614   2.805   5.556   1.431  0.9814  0.3678  1.0186
15067TIP3   OH266615   4.097   3.951   2.523 -0.1198  0.4438 -0.3939
15067TIP3    H166616   4.012   3.947   2.568 -0.3535 -0.5287 -0.9008
15067TIP3    H266617   4.118   3.860   2.503  1.3975  0.6036  0.3494
15068TIP3   OH266618   2.140   4.702  15.087 -0.9725  0.6776  0.0347
15068TIP3    H166619   2.223   4.661  15.110 -1.7073 -0.7617  0.2272
15068TIP3    H266620   2.164   4.785  15.046  0.6097 -0.3229 -1.1496
15069TIP3   OH266621   3.332   4.947   0.879  0.2184 -0.1219 -0.5308
15069TIP3    H166622   3.344   5.015   0.945  2.3098 -0.2431 -0.7169
15069TIP3    H266623   3.339   4.865   0.928  0.2205 -0.2091 -0.6770
15070TIP3   OH266624   2.772   2.886  16.916 -0.1041  0.1144 -0.2531
15070TIP3    H166625   2.786   2.900  16.822 -1.2178  0.3193 -0.4076
15070TIP3    H266626   2.689   2.839  16.921 -0.5507  0.9569  0.6707
15071TIP3   OH266627   4.939   0.482  11.760 -0.1180 -0.1810  0.3912
15071TIP3    H166628   4.856   0.493  11.713  0.5996 -0.8397 -1.1033
15071TIP3    H266629   4.956   0.388  11.757 -0.6943 -0.4844  3.2581
15072TIP3   OH266630   0.259   2.384  15.060  0.4036  0.9276 -0.1473
15072TIP3    H166631   0.257   2.467  15.011 -0.9947  0.7701 -0.3939
15072TIP3    H266632   0.202   2.326  15.010  0.6446  0.0915  0.5338
15073TIP3   OH266633   4.244   6.057   6.314 -0.1714 -0.5193 -0.1474
15073TIP3    H166634   4.310   6.108   6.267 -0.6624  0.9325  0.6768
15073TIP3    H266635   4.161   6.096   6.288 -0.4138  1.0884  2.7105
15074TIP3   OH266636   0.604   5.382   0.266 -0.1190  0.1482  0.6947
15074TIP3    H166637   0.674   5.419   0.319 -0.6489  1.1718  0.7068
15074TIP3    H266638   0.591   5.446   0.196 -0.1054 -0.6990 -0.1011
15075TIP3   OH266639   2.896   1.232  14.549  0.3576  0.0041  0.3163
15075TIP3    H166640   2.923   1.208  14.460 -1.3088  0.2449 -0.2950
15075TIP3    H266641   2.976   1.224  14.601  1.2494 -0.7014 -1.0834
15076TIP3   OH266642   4.142   6.710  14.044 -0.0579  0.0954  0.1966
15076TIP3    H166643   4.118   6.794  14.006  0.9182 -0.3950 -1.6051
15076TIP3    H266644   4.142   6.725  14.139 -0.4807  1.9466 -0.0733
15077TIP3   OH266645   4.308   5.100   0.215  0.0920 -0.1315 -0.3657
15077TIP3    H166646   4.255   5.172   0.249  0.5041  0.1481 -0.3107
15077TIP3    H266647   4.247   5.047   0.164 -0.6217 -0.7646  1.0972
15078TIP3   OH266648   4.301   0.603  12.084  0.1638  0.0919  0.4181
15078TIP3    H166649   4.312   0.627  12.176  1.2381 -0.2996  0.3995
15078TIP3    H266650   4.206   0.592  12.074 -0.2874  2.9519  0.7369
15079TIP3   OH266651   0.574   2.970   0.530  0.1682 -0.3572  0.5543
15079TIP3    H166652   0.485   2.941   0.510 -0.0809 -0.0972  1.2712
15079TIP3    H266653   0.607   2.903   0.590 -0.3107  0.6809  2.0022
15080TIP3   OH266654   0.402   2.675  15.179 -0.0944  0.0771 -0.2880
15080TIP3    H166655   0.374   2.692  15.089 -1.1515 -1.7821 -0.3589
15080TIP3    H266656   0.323   2.642  15.223  0.9796 -1.3845  0.6335
15081TIP3   OH266657   3.112   3.649  15.305 -0.0519  0.1786 -0.2585
15081TIP3    H166658   3.173   3.724  15.308  0.5356 -0.3165  0.4696
15081TIP3    H266659   3.164   3.578  15.268  0.3664 -0.7224  1.9399
15082TIP3   OH266660   6.591   0.395  13.019  0.8123 -0.5726 -0.3379
15082TIP3    H166661   6.549   0.432  13.097  0.0942  1.0318 -1.4287
15082TIP3    H266662   6.614   0.306  13.044  1.4084  0.1731  2.0054
15083TIP3   OH266663   5.488   3.195  13.538 -0.3793 -0.0780  1.3097
15083TIP3    H166664   5.576   3.232  13.552  0.2241 -0.8392 -0.2362
15083TIP3    H266665   5.434   3.237  13.605  1.0077  0.9449  1.8533
15084TIP3   OH266666   5.053   1.808  14.819  0.2451 -0.6574  0.6147
15084TIP3    H166667   5.046   1.860  14.739 -1.1716 -0.9752  0.5068
15084TIP3    H266668   5.121   1.852  14.870  1.1183 -0.3952 -0.7107
15085TIP3   OH266669   6.535   3.608  13.339 -0.7491  0.2504  0.0828
15085TIP3    H166670   6.609   3.658  13.374 -0.9053 -0.4893  1.5384
15085TIP3    H266671   6.463   3.626  13.399 -1.9777  1.4591 -1.6713
15086TIP3   OH266672   5.151   3.988   3.274  0.1148 -0.0477 -0.0130
15086TIP3    H166673   5.081   3.938   3.316 -1.3649 -0.6491 -2.9620
15086TIP3    H266674   5.115   4.015   3.190  1.4869  4.5161  0.6098
15087TIP3   OH266675   5.958   5.277   5.944  0.2595  0.2413  0.0434
15087TIP3    H166676   5.978   5.215   5.874 -1.1795 -1.4835  1.0436
15087TIP3    H266677   5.917   5.223   6.012 -1.7403  2.4069  0.7102
15088TIP3   OH266678   6.195   6.489  10.420  1.0075  0.0812 -0.2431
15088TIP3    H166679   6.239   6.445  10.492  0.3419 -0.9941 -0.4734
15088TIP3    H266680   6.119   6.434  10.402  0.2426  1.2488 -0.6490
15089TIP3   OH266681   5.020   5.411   0.629 -0.2882  0.0683  0.5932
15089TIP3    H166682   5.086   5.417   0.560  0.5046 -0.2189  1.3057
15089TIP3    H266683   5.051   5.341   0.686 -1.1305  0.0400  1.0413
15090TIP3   OH266684   4.525   6.067   1.626 -0.0826  0.1048  0.0125
15090TIP3    H166685   4.431   6.074   1.607 -0.2394  1.9954  1.2112
15090TIP3    H266686   4.540   5.974   1.641 -1.6023 -0.3235 -0.9033
15091TIP3   OH266687   4.903   2.154   4.261 -0.2134 -0.0681  0.2286
15091TIP3    H166688   4.819   2.173   4.301  1.5100  2.2571  3.1452
15091TIP3    H266689   4.939   2.082   4.314  0.0224 -0.4678 -0.4558
15092TIP3   OH266690   0.917   6.358  16.241  0.4242 -0.4729 -0.6513
15092TIP3    H166691   0.858   6.419  16.284  1.1884 -0.5956  0.6363
15092TIP3    H266692   0.924   6.390  16.151  0.6360  1.1954 -0.0687
15093TIP3   OH266693   1.571   1.136   5.411  0.1886  0.5219  0.4577
15093TIP3    H166694   1.579   1.200   5.481 -2.0035  1.0999  0.2427
15093TIP3    H266695   1.642   1.074   5.427 -0.1933  0.6686  3.1362
15094TIP3   OH266696   3.752   3.989  15.103 -1.4363  0.3935  0.5657
15094TIP3    H166697   3.690   3.986  15.030  0.8058 -1.6251 -1.4288
15094TIP3    H266698   3.829   4.033  15.068 -0.3244 -0.5624  1.7187
15095TIP3   OH266699   2.164   2.697  17.058  0.4496  0.1968 -0.1885
15095TIP3    H166700   2.190   2.606  17.045  0.7091  0.3454 -0.7271
15095TIP3    H266701   2.175   2.738  16.973  0.6758  0.8213  0.1348
15096TIP3   OH266702   3.189   2.484  12.561  0.4288  0.5092  0.3555
15096TIP3    H166703   3.185   2.543  12.636  0.1205  1.2856 -0.2574
15096TIP3    H266704   3.256   2.522  12.504 -0.6103  0.9673 -0.6042
15097TIP3   OH266705   1.393   3.650   4.007  0.0802 -0.1191  0.8464
15097TIP3    H166706   1.439   3.713   4.061  0.5348  0.3870 -0.1216
15097TIP3    H266707   1.315   3.696   3.976  1.3622  0.6604 -1.4159
15098TIP3   OH266708   1.461   4.224   6.298 -0.3839 -0.4052  0.4021
15098TIP3    H166709   1.497   4.312   6.297 -1.0733 -0.0822  1.6144
15098TIP3    H266710   1.537   4.167   6.307  0.0586  0.0670 -0.2769
15099TIP3   OH266711   2.631   6.493   4.775 -0.5252  0.1720 -0.4412
15099TIP3    H166712   2.600   6.549   4.704  2.5741  1.3666 -1.0123
15099TIP3    H266713   2.582   6.521   4.852 -0.2200  2.6086 -1.0660
15100TIP3   OH266714   4.561   6.472  13.257 -0.0078  0.3905  0.4229
15100TIP3    H166715   4.503   6.463  13.332 -1.0316  1.9263 -0.1310
15100TIP3    H266716   4.641   6.510  13.294 -1.2533  3.1491  0.5337
15101TIP3   OH266717   5.209   5.812  12.399 -0.1092  0.2530 -0.2625
15101TIP3    H166718   5.252   5.805  12.484 -1.1278 -2.7650  0.1194
15101TIP3    H266719   5.281   5.809  12.336  0.5013 -0.5716  0.4439
15102TIP3   OH266720   1.217   4.195   6.417 -0.1304  0.6205 -0.1623
15102TIP3    H166721   1.302   4.226   6.385 -1.2186  4.6632  0.2838
15102TIP3    H266722   1.230   4.178   6.510  0.2267  1.0829 -0.1283
15103TIP3   OH266723   1.616   5.258  10.754 -0.4332 -0.0822 -0.3364
15103TIP3    H166724   1.544   5.222  10.806 -0.6040  1.4118  0.5201
15103TIP3    H266725   1.642   5.186  10.697 -2.0445 -0.9278 -0.0793
15104TIP3   OH266726   4.118   0.380  11.375 -0.5749 -0.1871 -0.3961
15104TIP3    H166727   4.127   0.337  11.290 -2.2660 -2.4037  0.4417
15104TIP3    H266728   4.138   0.311  11.439 -2.1207  0.5829  1.0091
15105TIP3   OH266729   3.162   5.024   5.634 -0.4814  0.1517 -0.7012
15105TIP3    H166730   3.089   4.973   5.599  1.0427 -1.7153 -1.3216
15105TIP3    H266731   3.218   5.042   5.558  0.8445 -0.4348  0.1068
15106TIP3   OH266732   2.362   4.932  12.677 -0.8941 -0.0532 -0.2908
15106TIP3    H166733   2.372   4.841  12.705 -2.4238  0.0168  0.5553
15106TIP3    H266734   2.380   4.930  12.583  4.3351 -0.2927  0.4018
15107TIP3   OH266735   3.025   6.365  14.971  0.0900  0.1946 -0.0963
15107TIP3    H166736   2.945   6.382  15.021 -0.2235 -2.3747  0.4474
15107TIP3    H266737   3.094   6.403  15.024 -0.5400  0.1164  0.8108
15108TIP3   OH266738   5.175   0.229  16.518 -0.7414 -0.5860  0.2610
15108TIP3    H166739   5.119   0.230  16.441 -0.6055  0.0108  0.1637
15108TIP3    H266740   5.254   0.276  16.492 -0.5618 -0.6517  0.6666
15109TIP3   OH266741   1.441   6.155   1.713  0.2652 -0.1301 -0.5494
15109TIP3    H166742   1.349   6.170   1.690  0.4851  1.5918 -0.3999
15109TIP3    H266743   1.443   6.159   1.809  0.3489 -1.2123 -0.4905
15110TIP3   OH266744   2.989   3.093   6.171 -0.1029 -0.3011 -0.1588
15110TIP3    H166745   2.916   3.082   6.231  0.1290  0.1797  0.2202
15110TIP3    H266746   3.026   3.005   6.161 -1.0712 -0.6572 -0.8076
15111TIP3   OH266747   1.275   1.659  15.546 -0.5615 -0.2604  0.1373
15111TIP3    H166748   1.367   1.659  15.518 -0.7449  0.2593 -0.4710
15111TIP3    H266749   1.227   1.697  15.473 -1.5007 -2.1464 -0.2929
15112TIP3   OH266750   2.958   1.639   4.160 -0.1840  0.2483 -0.5848
15112TIP3    H166751   2.876   1.635   4.111 -0.5815  2.5341 -0.1770
15112TIP3    H266752   2.938   1.690   4.238  1.6417  0.9686 -0.5251
15113TIP3   OH266753   5.755   2.211   3.262 -0.1417  0.7165 -0.5572
15113TIP3    H166754   5.847   2.235   3.267  0.2021 -0.6092 -0.1095
15113TIP3    H266755   5.725   2.245   3.178  1.7904 -2.1324 -2.5900
15114TIP3   OH266756   3.738   4.067   5.918  0.4773 -0.2742 -0.2687
15114TIP3    H166757   3.762   4.025   5.835  0.6403 -0.0034 -0.3598
15114TIP3    H266758   3.800   4.030   5.982  0.3111 -0.5292 -0.2549
15115TIP3   OH266759   1.334   3.322  13.942  0.3385 -0.2439 -0.5091
15115TIP3    H166760   1.265   3.294  13.882 -0.9292 -0.1888  0.8647
15115TIP3    H266761   1.327   3.263  14.016  1.7127 -0.1585 -0.2798
15116TIP3   OH266762   1.887   1.315  12.407 -0.3931  0.2217 -0.1519
15116TIP3    H166763   1.881   1.407  12.434  2.2452 -0.1923  2.3150
15116TIP3    H266764   1.862   1.265  12.485  2.7297 -1.0569  0.1856
15117TIP3   OH266765   3.918   3.472   5.859  0.3853 -0.3995  0.5012
15117TIP3    H166766   3.921   3.382   5.826  1.1931 -0.9655  2.0039
15117TIP3    H266767   3.955   3.525   5.788  0.0368 -1.2642 -0.3443
15118TIP3   OH266768   0.035   1.106   1.082  0.4133 -0.1024 -0.1824
15118TIP3    H166769   0.010   1.014   1.072  1.4429 -0.5105  0.8007
15118TIP3    H266770   0.058   1.115   1.174  1.5203  0.8250 -0.5188
15119TIP3   OH266771   1.563   0.157   3.788 -0.4855  0.1901 -0.0724
15119TIP3    H166772   1.553   0.070   3.826  2.8114 -0.0201  0.5624
15119TIP3    H266773   1.587   0.141   3.697 -0.6198  0.4543 -0.1549
15120TIP3   OH266774   5.919   2.544   0.238  0.0758  0.0626 -0.4318
15120TIP3    H166775   5.959   2.562   0.152  1.4938  1.0030  0.3822
15120TIP3    H266776   5.849   2.482   0.219 -0.6475  1.3848 -2.4930
15121TIP3   OH266777   3.206   2.207  15.921 -0.1869 -0.0124  0.1579
15121TIP3    H166778   3.120   2.179  15.890 -1.4353 -0.2173  3.3561
15121TIP3    H266779   3.225   2.148  15.994  0.1365  3.2018  2.9247
15122TIP3   OH266780   4.816   4.644  16.747  0.1014  0.1146  0.5694
15122TIP3    H166781   4.796   4.560  16.786 -0.2080  0.6251  1.5486
15122TIP3    H266782   4.908   4.660  16.769  0.4668 -0.4102 -0.4917
15123TIP3   OH266783   0.628   2.497  16.766  0.5573 -0.0399  0.2697
15123TIP3    H166784   0.594   2.415  16.731 -1.9336  0.5218  1.2006
15123TIP3    H266785   0.659   2.545  16.689  0.0793 -0.9696 -0.5265
15124TIP3   OH266786   4.768   2.448  10.887 -0.4414 -0.2276  0.2992
15124TIP3    H166787   4.771   2.409  10.974 -0.7586 -1.3534 -0.1665
15124TIP3    H266788   4.857   2.437  10.853 -0.2963  0.2883  0.5177
15125TIP3   OH266789   3.365   4.497   4.203 -0.2913 -0.1787 -0.0930
15125TIP3    H166790   3.294   4.526   4.146  0.9256 -1.3614 -2.3402
15125TIP3    H266791   3.328   4.424   4.253 -0.8797 -0.2536 -0.6354
15126TIP3   OH266792   3.935   3.915  13.803 -0.6351  0.1604  0.0517
15126TIP3    H166793   3.924   3.958  13.718 -1.2354  0.5470  0.3195
15126TIP3    H266794   3.934   3.986  13.867  1.7175  0.0848  0.2750
15127TIP3   OH266795   3.055   3.306   6.440  0.4941 -0.2458  0.3663
15127TIP3    H166796   3.003   3.366   6.387  1.5325  0.6966  0.3675
15127TIP3    H266797   2.992   3.245   6.478 -0.5382  0.5902  0.0250
15128TIP3   OH266798   2.115   2.162  13.455  0.5158  0.2437  1.0296
15128TIP3    H166799   2.063   2.082  13.455  1.1946 -0.2380 -0.7626
15128TIP3    H266800   2.185   2.145  13.519 -0.2875  0.0885  1.8930
15129TIP3   OH266801   2.373   0.122  14.709 -0.0227 -0.2904  0.0189
15129TIP3    H166802   2.416   0.044  14.744  1.4043  0.8783  0.9989
15129TIP3    H266803   2.439   0.190  14.714 -0.9195  0.7941 -1.7149
15130TIP3   OH266804   3.487   5.614  12.593 -0.5341 -0.2449 -0.4960
15130TIP3    H166805   3.437   5.696  12.600 -0.3158 -0.0936 -0.7012
15130TIP3    H266806   3.431   5.557  12.540 -2.5175 -1.6366  2.7648
15131TIP3   OH266807   4.120   6.374   0.493 -0.1249 -0.0993  0.0843
15131TIP3    H166808   4.112   6.455   0.544  1.3169 -0.4141  0.8528
15131TIP3    H266809   4.103   6.304   0.556  0.8046 -0.4636 -0.0590
15132TIP3   OH266810   4.751   0.810  12.784 -0.2235  0.3564 -0.0216
15132TIP3    H166811   4.747   0.876  12.715  0.6936  0.8304  0.3545
15132TIP3    H266812   4.678   0.831  12.842  1.3188  2.4746  1.3033
15133TIP3   OH266813   6.427   0.288  15.953 -0.4395  1.0077  0.0330
15133TIP3    H166814   6.379   0.220  15.906  0.0900  0.8013 -0.2174
15133TIP3    H266815   6.359   0.339  15.998 -0.8057 -0.0575  0.7261
15134TIP3   OH266816   0.452   2.847  13.011 -0.3521  0.1264  0.1574
15134TIP3    H166817   0.480   2.757  13.029 -0.8010  0.0746  0.6423
15134TIP3    H266818   0.513   2.901  13.059  0.1846  0.1029 -0.4872
15135TIP3   OH266819   0.744   5.570  11.344  0.1828 -0.5288 -0.0222
15135TIP3    H166820   0.727   5.582  11.437  0.3177  0.3144 -0.1019
15135TIP3    H266821   0.706   5.647  11.302  0.7029 -0.5790 -0.6037
15136TIP3   OH266822   2.398   6.109   3.744 -0.0945  0.3028  0.3240
15136TIP3    H166823   2.489   6.103   3.773  0.0288  0.3517 -0.0388
15136TIP3    H266824   2.350   6.142   3.820  0.6061  2.8107 -0.2385
15137TIP3   OH266825   0.629   5.680  16.461 -0.5596 -0.2203 -0.0060
15137TIP3    H166826   0.625   5.623  16.383  0.5294 -0.1523 -0.1263
15137TIP3    H266827   0.563   5.747  16.445 -2.4668 -1.8729  0.5025
15138TIP3   OH266828   5.443   0.410   4.231 -0.0391 -0.0265  0.0830
15138TIP3    H166829   5.447   0.505   4.222 -2.2843  0.0721 -0.3401
15138TIP3    H266830   5.351   0.388   4.219  0.4220 -2.2715  0.1770
15139TIP3   OH266831   3.515   5.887   2.154 -0.1193  0.0178 -0.0317
15139TIP3    H166832   3.496   5.977   2.180 -0.9327  0.1892 -1.1504
15139TIP3    H266833   3.436   5.838   2.175  0.6015 -0.6104  1.2876
15140TIP3   OH266834   4.945   1.115  14.410  0.2100  0.0609 -0.1302
15140TIP3    H166835   4.903   1.183  14.462  0.0478  1.2551 -1.7270
15140TIP3    H266836   5.006   1.163  14.353  1.5113 -1.3387  0.0289
15141TIP3   OH266837   1.945   3.510   2.311  0.2552  0.0231 -0.1949
15141TIP3    H166838   1.895   3.442   2.357  1.3232 -0.4770  0.2651
15141TIP3    H266839   1.913   3.593   2.347  0.2993 -0.3239  0.6590
15142TIP3   OH266840   5.315   0.908   4.470 -0.2891  0.1139  0.0197
15142TIP3    H166841   5.309   0.884   4.562 -0.0978 -1.5006 -0.3566
15142TIP3    H266842   5.231   0.950   4.451 -0.1344  0.9068  1.0348
15143TIP3   OH266843   5.331   5.402   5.930  0.2459  0.1915 -0.3209
15143TIP3    H166844   5.287   5.446   5.857  0.6139  1.5723  0.2484
15143TIP3    H266845   5.333   5.468   6.000 -2.7339 -1.9323  2.0684
15144TIP3   OH266846   5.851   6.378   2.628  0.1499 -0.0415  0.0364
15144TIP3    H166847   5.759   6.398   2.645  0.3161  0.8644 -0.0962
15144TIP3    H266848   5.883   6.453   2.578  0.9517 -0.3734  0.0382
15145TIP3   OH266849   6.144   6.310  14.647 -0.6270 -0.3129 -0.9992
15145TIP3    H166850   6.132   6.243  14.714  1.7365 -0.0748 -0.2489
15145TIP3    H266851   6.090   6.383  14.676 -0.4601 -0.6014  0.0986
15146TIP3   OH266852   4.115   6.616   4.518  0.0767  0.1354 -0.7611
15146TIP3    H166853   4.040   6.620   4.458  0.6526 -2.7034 -1.8463
15146TIP3    H266854   4.081   6.576   4.597 -0.1390  1.6189 -0.0648
15147TIP3   OH266855   3.302   6.121  14.908 -0.4773  0.8752 -0.4507
15147TIP3    H166856   3.236   6.166  14.855  0.7645  1.7466 -1.3265
15147TIP3    H266857   3.382   6.127  14.855  0.2884 -0.1934  0.5554
15148TIP3   OH266858   4.910   5.702   4.769 -0.3363 -0.1175 -0.2435
15148TIP3    H166859   4.833   5.677   4.820 -0.7523  0.4253 -0.5961
15148TIP3    H266860   4.913   5.797   4.775  2.5233 -0.1882  2.9866
15149TIP3   OH266861   5.630   1.193   2.435  0.2920 -0.6925 -0.2164
15149TIP3    H166862   5.543   1.193   2.474  0.3155 -0.8927 -0.1660
15149TIP3    H266863   5.621   1.250   2.359 -0.1477 -1.5136 -0.7970
15150TIP3   OH266864   5.785   6.220  14.218  0.1679  0.4143 -0.0226
15150TIP3    H166865   5.718   6.198  14.154 -1.2439  0.2331  1.4442
15150TIP3    H266866   5.866   6.225  14.168 -0.9958  1.0899 -1.9392
15151TIP3   OH266867   6.605   2.173  17.040  0.1620  0.1088 -0.0017
15151TIP3    H166868   6.586   2.161  17.133  1.3809  1.4117  0.4527
15151TIP3    H266869   6.688   2.126  17.027  0.9422  1.4450  0.0155
15152TIP3   OH266870   3.603   2.068   3.545  0.2530 -0.1725  0.3555
15152TIP3    H166871   3.636   1.993   3.496 -0.4063 -0.4045  0.2619
15152TIP3    H266872   3.602   2.140   3.481 -1.6356 -0.7315 -0.3093
15153TIP3   OH266873   0.329   3.068  16.277  0.3754  0.3503  0.0712
15153TIP3    H166874   0.322   2.980  16.239  0.7186  0.0298  0.7379
15153TIP3    H266875   0.376   3.119  16.211  1.0336 -0.2183  0.0861
15154TIP3   OH266876   0.902   1.775  15.866 -0.1081 -0.1404  0.0409
15154TIP3    H166877   0.838   1.819  15.810 -0.6742 -1.4877 -0.4072
15154TIP3    H266878   0.987   1.800  15.829 -0.2392  2.6547  1.3754
15155TIP3   OH266879   6.049   5.251  11.280 -0.4604 -0.0349  0.2747
15155TIP3    H166880   6.033   5.344  11.298 -0.1350 -0.4397  3.0180
15155TIP3    H266881   6.012   5.205  11.355 -0.7745 -2.1834 -1.1111
15156TIP3   OH266882   1.378   1.270  13.525  0.2897  0.2627 -0.2183
15156TIP3    H166883   1.431   1.293  13.449  1.3021  1.1582  0.7291
15156TIP3    H266884   1.295   1.318  13.512  1.0051  1.5901 -0.0667
15157TIP3   OH266885   1.187   6.490  13.625  0.2729  0.2948 -0.7983
15157TIP3    H166886   1.091   6.493  13.623  0.1641  0.2363  1.4868
15157TIP3    H266887   1.214   6.564  13.571 -1.0673  0.4981 -1.2303
15158TIP3   OH266888   2.705   2.280  14.737 -0.1109 -0.1412 -0.5335
15158TIP3    H166889   2.675   2.343  14.671 -0.0644  0.6079  0.1339
15158TIP3    H266890   2.645   2.294  14.811 -0.4289 -1.2595 -0.5564
15159TIP3   OH266891   0.409   2.662   4.177 -0.2424 -0.3885 -0.1126
15159TIP3    H166892   0.372   2.587   4.222 -0.0062 -1.5557 -1.7588
15159TIP3    H266893   0.367   2.661   4.090 -0.1675  1.3329 -0.2089
15160TIP3   OH266894   0.076   1.140  14.466  0.3472  0.8812  0.2157
15160TIP3    H166895   0.151   1.103  14.513  0.8042  1.2251 -0.2330
15160TIP3    H266896   0.114   1.210  14.413 -0.3324  1.2253  0.1778
15161TIP3   OH266897   0.131   1.303  13.101  0.7472  0.3500 -0.1037
15161TIP3    H166898   0.126   1.392  13.066  0.5243 -0.0847 -1.2204
15161TIP3    H266899   0.070   1.253  13.048  1.1427 -0.5494  0.2721
15162TIP3   OH266900   0.174   3.218  12.379 -0.4505  0.2667 -0.3919
15162TIP3    H166901   0.100   3.178  12.424 -0.9794  0.6047 -0.9424
15162TIP3    H266902   0.246   3.157  12.392 -0.6275  0.2647  0.7509
15163TIP3   OH266903   2.074   4.573  13.400  0.3403  0.0509 -0.7856
15163TIP3    H166904   2.147   4.590  13.460 -0.4251  1.2023 -0.1486
15163TIP3    H266905   2.116   4.550  13.317  1.4191 -0.6358 -0.0735
15164TIP3   OH266906   0.194   3.269  14.678  0.2113 -0.4003  0.0436
15164TIP3    H166907   0.161   3.270  14.589 -0.6437 -2.4015  0.2675
15164TIP3    H266908   0.284   3.240  14.670 -0.0887 -1.3166 -0.1474
15165TIP3   OH266909   2.061   5.784   1.644 -0.6356 -0.0751 -0.2946
15165TIP3    H166910   1.990   5.761   1.585 -1.1205 -3.6168  1.4231
15165TIP3    H266911   2.018   5.822   1.721 -0.5454 -0.6421  0.0436
15166TIP3   OH266912   5.568   5.776  14.613  0.6113 -0.3338  0.2513
15166TIP3    H166913   5.583   5.779  14.708 -1.3893  0.1665  0.5924
15166TIP3    H266914   5.566   5.867  14.586 -2.7228 -0.2527  0.4646
15167TIP3   OH266915   5.991   3.077   3.852 -0.2203 -0.0190  0.0465
15167TIP3    H166916   5.964   2.987   3.872  0.5338 -0.1730  0.4476
15167TIP3    H266917   6.075   3.067   3.808 -0.0529  0.4977  0.2459
15168TIP3   OH266918   5.745   4.992  13.134 -0.4852  0.1327  0.8732
15168TIP3    H166919   5.794   4.958  13.209  1.3197  2.4903  0.9024
15168TIP3    H266920   5.764   5.086  13.134  0.1741  0.1547 -2.9244
15169TIP3   OH266921   1.796   3.169  11.440 -0.9454 -0.1453 -0.3131
15169TIP3    H166922   1.846   3.247  11.417 -2.8729  1.6827  1.2735
15169TIP3    H266923   1.848   3.127  11.509 -0.3208  0.2310 -0.5463
15170TIP3   OH266924   2.120   3.564  11.251 -0.0435  0.1241 -0.3014
15170TIP3    H166925   2.153   3.624  11.317 -1.5454  0.3098  0.3235
15170TIP3    H266926   2.184   3.569  11.180  0.2844  1.8546  0.0721
15171TIP3   OH266927   5.689   4.960  17.063 -0.0037 -0.2040  0.2010
15171TIP3    H166928   5.643   5.010  17.130 -1.3894 -0.7456 -0.3169
15171TIP3    H266929   5.635   4.967  16.985  1.9207  0.9915 -1.1240
15172TIP3   OH266930   0.825   1.550   2.906 -0.2878 -0.1900  0.4302
15172TIP3    H166931   0.896   1.601   2.867 -0.1005  0.6031  1.7407
15172TIP3    H266932   0.761   1.616   2.933 -0.4792 -0.7183  1.2999
15173TIP3   OH266933   0.954   4.691   2.140  0.2893  0.6598  0.2590
15173TIP3    H166934   0.879   4.712   2.085 -0.7451 -1.6127  0.7109
15173TIP3    H266935   0.916   4.673   2.226  1.2525 -0.9882  0.3802
15174TIP3   OH266936   5.739   5.356  10.749  0.1509  0.3389  0.8774
15174TIP3    H166937   5.686   5.284  10.783  1.1261 -0.1341  1.4217
15174TIP3    H266938   5.808   5.314  10.698  0.4914  0.9123  0.8570
15175TIP3   OH266939   6.728   3.257   0.966 -0.0104  0.2170 -0.2313
15175TIP3    H166940   6.756   3.349   0.968  0.7880 -0.0126 -0.4881
15175TIP3    H266941   6.766   3.219   1.044 -0.5416  0.1513  0.0001
15176TIP3   OH266942   2.152   2.346   0.063 -0.4349 -0.6069  0.1378
15176TIP3    H166943   2.215   2.283   0.029 -0.0226 -1.1860  1.8983
15176TIP3    H266944   2.191   2.431   0.043  1.1456 -0.9530  1.5190
15177TIP3   OH266945   2.278   6.087   5.095  0.3609  0.4624 -0.3262
15177TIP3    H166946   2.251   6.160   5.038 -2.1736 -0.5592 -0.5833
15177TIP3    H266947   2.255   6.117   5.183 -1.9806 -0.4445 -0.5538
15178TIP3   OH266948   2.088   2.698   4.468  0.8045 -0.0350 -0.1805
15178TIP3    H166949   2.090   2.603   4.480 -1.9924 -0.0309  0.8452
15178TIP3    H266950   2.093   2.734   4.556  0.3400  0.7010 -0.4456
15179TIP3   OH266951   6.295   3.251  14.212 -0.4411 -0.3127 -0.0598
15179TIP3    H166952   6.310   3.187  14.282  1.0715  0.2058  0.1111
15179TIP3    H266953   6.368   3.239  14.153 -0.2778  1.0967 -0.1561
15180TIP3   OH266954   2.413   0.424  11.321  0.1843  0.0310 -0.3571
15180TIP3    H166955   2.477   0.362  11.287 -1.2606 -0.3968 -2.4609
15180TIP3    H266956   2.341   0.422  11.258 -0.2709  3.2556 -0.1156
15181TIP3   OH266957   1.753   3.440   5.650  0.1261  0.1502  0.4956
15181TIP3    H166958   1.845   3.428   5.672 -0.4833 -2.4774  2.0710
15181TIP3    H266959   1.708   3.368   5.694 -2.3668 -0.2835 -2.4086
15182TIP3   OH266960   3.010   5.978   2.293  0.9636  0.0114 -0.1311
15182TIP3    H166961   2.971   5.957   2.208  0.9450  0.6723 -0.2892
15182TIP3    H266962   2.937   6.009   2.346  0.6371 -2.0471  0.7136
15183TIP3   OH266963   6.798   4.018   6.456 -0.3816 -0.3610 -0.0049
15183TIP3    H166964   6.890   4.043   6.446 -0.3318 -0.2070  0.8200
15183TIP3    H266965   6.760   4.089   6.507 -0.8540 -0.6587  0.0559
15184TIP3   OH266966   2.119   4.623   1.975  0.1935  0.1092  0.2363
15184TIP3    H166967   2.112   4.667   2.059 -0.8666 -0.0163  0.2293
15184TIP3    H266968   2.031   4.587   1.959  0.2435  0.5436 -1.1348
15185TIP3   OH266969   0.251   2.716   1.869  0.3431 -0.0558  0.0278
15185TIP3    H166970   0.321   2.653   1.855  0.4076  0.4411 -2.2476
15185TIP3    H266971   0.294   2.802   1.867  0.0828  0.1624  1.8595
15186TIP3   OH266972   5.444   1.826   3.008  0.7955  0.4049  0.0467
15186TIP3    H166973   5.418   1.871   2.928  2.0356  1.1100  0.0103
15186TIP3    H266974   5.498   1.890   3.055  1.3184 -0.5145  0.7372
15187TIP3   OH266975   0.024   6.022   3.193 -0.2477 -0.9381 -0.0752
15187TIP3    H166976   0.101   5.965   3.202  0.5025  0.1186  0.3686
15187TIP3    H266977   0.012   6.030   3.099  1.7596  0.8971 -0.2611
15188TIP3   OH266978   0.107   2.451   4.845  0.4851 -0.3374  0.4108
15188TIP3    H166979   0.175   2.457   4.912  0.5241  1.5957  0.2665
15188TIP3    H266980   0.114   2.534   4.797 -2.6642  0.4136  1.0595
15189TIP3   OH266981   1.412   0.372  14.666 -0.5656  0.0298  0.1949
15189TIP3    H166982   1.373   0.457  14.686  0.1299  0.3774  0.0955
15189TIP3    H266983   1.502   0.392  14.640 -0.0850 -0.8226  1.1307
15190TIP3   OH266984   0.486   3.047  11.523 -0.8315 -0.4578  0.3476
15190TIP3    H166985   0.431   3.011  11.593  0.3848 -1.8014  0.6646
15190TIP3    H266986   0.447   3.016  11.442 -0.9972 -0.7402  0.5353
15191TIP3   OH266987   0.203   3.529  15.203  0.4274  0.8765  0.1472
15191TIP3    H166988   0.242   3.522  15.290  0.3770  0.9495  0.1750
15191TIP3    H266989   0.140   3.600  15.210 -1.2902 -0.6360  0.7050
15192TIP3   OH266990   0.442   4.434  14.221  0.1497 -0.2034  0.0366
15192TIP3    H166991   0.517   4.489  14.198  0.6133 -1.2334 -1.0192
15192TIP3    H266992   0.438   4.438  14.317  1.4114  0.0620  0.0975
15193TIP3   OH266993   4.859   3.960  13.643 -0.2571 -0.2192  0.4685
15193TIP3    H166994   4.763   3.961  13.639 -0.2286  0.9608 -0.4599
15193TIP3    H266995   4.886   3.950  13.552  0.4920  1.0269  0.5301
15194TIP3   OH266996   3.074   0.519   2.604  0.0345 -0.1451 -0.1204
15194TIP3    H166997   3.136   0.490   2.671 -0.0732 -0.3080 -0.0905
15194TIP3    H266998   3.077   0.614   2.608  0.6868 -0.1408 -0.4893
15195TIP3   OH266999   3.152   2.702   1.865 -0.2185  0.4322  0.3229
15195TIP3    H167000   3.070   2.693   1.913  0.2813 -0.4683  1.0129
15195TIP3    H267001   3.207   2.631   1.896  0.6612  0.7351 -0.4896
15196TIP3   OH267002   6.559   3.290  11.796  0.2343  0.2578  0.4374
15196TIP3    H167003   6.648   3.274  11.764 -0.4528  1.0069 -2.1306
15196TIP3    H267004   6.554   3.245  11.880  2.6927 -0.6998  0.1339
15197TIP3   OH267005   3.253   6.400  11.766 -0.7812 -0.0724  0.0264
15197TIP3    H167006   3.166   6.391  11.728 -0.9888 -0.4885  0.5921
15197TIP3    H267007   3.249   6.351  11.848 -0.3152  0.7403  0.5535
15198TIP3   OH267008   2.669   2.069   0.609 -0.2829  0.4111  0.8637
15198TIP3    H167009   2.621   2.121   0.674 -0.1363  2.1561 -0.3429
15198TIP3    H267010   2.610   2.066   0.533 -0.1820 -1.0198  0.8145
15199TIP3   OH267011   2.329   2.640  16.434 -0.0496  0.2081  0.4269
15199TIP3    H167012   2.369   2.558  16.465 -0.4136 -0.4301 -0.7152
15199TIP3    H267013   2.242   2.614  16.404  0.5390  0.5895 -1.8301
15200TIP3   OH267014   6.600   5.289  11.986 -0.1850  0.4636 -0.8671
15200TIP3    H167015   6.541   5.215  11.997 -1.1251  1.2462 -0.4478
15200TIP3    H267016   6.544   5.361  11.959  0.4768  1.3739  0.0810
15201TIP3   OH267017   1.346   2.267  11.984  0.4539  0.3420  0.0176
15201TIP3    H167018   1.257   2.246  12.013  0.6412 -1.8802 -0.8087
15201TIP3    H267019   1.401   2.241  12.058  0.4862  1.1429  0.2878
15202TIP3   OH267020   0.683   2.428  15.621  0.1940 -0.3371 -0.3324
15202TIP3    H167021   0.637   2.385  15.549 -0.1633  1.8814 -1.5051
15202TIP3    H267022   0.617   2.437  15.690  0.1107 -1.0838 -0.3067
15203TIP3   OH267023   6.191   0.823   3.494 -0.2890 -0.0348  0.7395
15203TIP3    H167024   6.099   0.804   3.477 -0.0927 -0.2978 -0.0949
15203TIP3    H267025   6.207   0.906   3.450 -0.3841  0.5601  1.7937
15204TIP3   OH267026   5.382   3.471  13.997 -0.0296  0.4273  0.0815
15204TIP3    H167027   5.378   3.389  13.947  2.5901 -0.6041  1.4180
15204TIP3    H267028   5.290   3.494  14.012 -0.8459 -1.8523 -0.9748
15205TIP3   OH267029   6.366   0.523  13.984 -0.3035  0.2180 -0.2905
15205TIP3    H167030   6.292   0.499  13.928 -0.9386  1.4015  0.0069
15205TIP3    H267031   6.328   0.582  14.050  0.2815 -1.5525  1.7721
15206TIP3   OH267032   1.819   0.107   6.433  0.2530 -0.2134  0.5064
15206TIP3    H167033   1.896   0.112   6.490  0.7820 -0.8771 -0.1457
15206TIP3    H267034   1.781   0.195   6.438  1.5990  0.4237  0.0655
15207TIP3   OH267035   0.049   5.873  15.193  0.4708 -0.1373  0.1564
15207TIP3    H167036   0.049   5.931  15.269  0.4079 -1.0397  0.8658
15207TIP3    H267037  -0.024   5.813  15.209  0.5834 -0.4586 -0.5158
15208TIP3   OH267038   2.168   0.305  13.020  0.5254  0.3244  0.3948
15208TIP3    H167039   2.114   0.282  12.945  0.0001 -0.7407  1.0655
15208TIP3    H267040   2.250   0.259  13.006  0.0972 -0.6302  0.8904
15209TIP3   OH267041   3.502   6.287  16.094 -0.4501  0.2362  0.3707
15209TIP3    H167042   3.447   6.345  16.041  2.4984  1.8348 -1.1387
15209TIP3    H267043   3.539   6.344  16.162  1.7532 -0.0047 -0.5551
15210TIP3   OH267044   4.660   1.004   2.656  0.7624 -0.2242 -0.4213
15210TIP3    H167045   4.571   0.986   2.627  1.0521 -3.1886  0.2574
15210TIP3    H267046   4.663   1.099   2.666 -1.7679  0.1285 -2.1137
15211TIP3   OH267047   1.913   3.990  13.702 -0.4393  0.1415  0.7460
15211TIP3    H167048   1.856   3.945  13.764 -1.4001  1.5543  0.9258
15211TIP3    H267049   1.999   3.990  13.744 -0.4585 -1.2819  0.8404
15212TIP3   OH267050   3.261   4.075   3.528  0.2252 -0.4696 -0.0172
15212TIP3    H167051   3.347   4.115   3.525  0.5873 -0.8798  2.5580
15212TIP3    H267052   3.201   4.146   3.551 -0.0762 -0.2771 -1.3420
15213TIP3   OH267053   4.391   3.506  16.030  0.0311  0.0881 -0.3193
15213TIP3    H167054   4.405   3.591  15.989 -1.3595  0.3071 -0.3610
15213TIP3    H267055   4.405   3.443  15.959 -0.8177  0.3867 -0.7595
15214TIP3   OH267056   3.423   5.960   0.925 -0.3844  0.5088  0.2613
15214TIP3    H167057   3.390   6.050   0.933  1.6166  1.2508  0.6557
15214TIP3    H267058   3.517   5.970   0.912 -0.1699 -1.5385 -0.0180
15215TIP3   OH267059   3.122   4.326  16.113  0.4627 -0.3788  0.0006
15215TIP3    H167060   3.149   4.417  16.124  1.4178 -0.5053 -1.0939
15215TIP3    H267061   3.202   4.275  16.130 -0.2785 -1.0933  1.5513
15216TIP3   OH267062   6.054   0.840  12.727  0.3747  0.4133  0.0500
15216TIP3    H167063   5.976   0.862  12.677  0.5478  2.9119  0.7303
15216TIP3    H267064   6.124   0.835  12.661  0.1278  1.0348 -0.2707
15217TIP3   OH267065   3.049   1.182  15.992 -0.4150  0.1196 -0.2073
15217TIP3    H167066   3.045   1.276  16.007  1.0713  0.0856  0.5643
15217TIP3    H267067   3.121   1.171  15.930  0.4388 -0.6233  0.8979
15218TIP3   OH267068   1.228   2.817  12.283 -0.2847 -0.8941  0.2519
15218TIP3    H167069   1.144   2.853  12.256  1.1530  2.0539 -0.7905
15218TIP3    H267070   1.211   2.774  12.366 -2.6623  0.3425  0.4754
15219TIP3   OH267071   5.064   5.564   1.610  0.5738  0.4133 -0.0239
15219TIP3    H167072   5.054   5.634   1.545  1.6478  1.5796  1.0265
15219TIP3    H267073   4.979   5.562   1.655 -0.8927 -1.6672 -2.5475
15220TIP3   OH267074   5.600   4.327   2.260 -0.2209  0.7940 -0.6176
15220TIP3    H167075   5.621   4.331   2.167 -0.0885 -0.7182 -0.6716
15220TIP3    H267076   5.517   4.279   2.264 -0.1934  0.7904  0.0499
15221TIP3   OH267077   0.281   1.334   6.310  0.1669 -0.0432  0.0725
15221TIP3    H167078   0.230   1.270   6.260  0.6927 -0.7645  0.4456
15221TIP3    H267079   0.217   1.373   6.370 -0.4430  0.7344 -1.0430
15222TIP3   OH267080   6.792   0.547  12.910  0.0145  0.5241  0.6981
15222TIP3    H167081   6.812   0.493  12.834  2.5712 -1.3890  2.5335
15222TIP3    H267082   6.715   0.506  12.949  1.1079 -1.0667  1.2983
15223TIP3   OH267083   4.746   1.325  15.139  0.1385 -0.2639  0.4545
15223TIP3    H167084   4.732   1.317  15.233  1.0508  0.8781  0.7070
15223TIP3    H267085   4.826   1.377  15.130  1.4201 -2.3072 -0.9440
15224TIP3   OH267086   3.364   0.749  14.199  0.2902  0.1649  0.5432
15224TIP3    H167087   3.444   0.768  14.249  1.1366  0.8351 -0.9894
15224TIP3    H267088   3.388   0.673  14.146 -0.9139 -1.1459  1.7905
15225TIP3   OH267089   6.272   3.317   0.242 -0.1657 -0.0779 -0.3772
15225TIP3    H167090   6.280   3.222   0.244  1.9961  0.0089  2.4730
15225TIP3    H267091   6.205   3.337   0.308  1.2657  0.3504  1.0355
15226TIP3   OH267092   3.301   1.209   3.418  0.3014 -0.5665 -0.4458
15226TIP3    H167093   3.363   1.149   3.459  0.8716  0.9935  1.0966
15226TIP3    H267094   3.229   1.215   3.481 -0.8823 -1.4060 -1.6638
15227TIP3   OH267095   6.628   5.381  15.244 -0.7685 -0.4225 -0.1692
15227TIP3    H167096   6.584   5.458  15.281  1.3527  1.3449 -1.1041
15227TIP3    H267097   6.684   5.350  15.315 -0.3291 -0.0212 -0.3365
15228TIP3   OH267098   5.971   1.592   5.564 -0.1285 -0.1861 -0.0538
15228TIP3    H167099   6.053   1.618   5.606 -0.7949 -0.1190  1.2802
15228TIP3    H267100   5.938   1.521   5.619 -0.8394 -0.3863 -0.7225
15229TIP3   OH267101   0.311   2.456   1.277  1.0529  0.4003  0.4256
15229TIP3    H167102   0.378   2.391   1.300  0.0165 -1.3364 -1.1570
15229TIP3    H267103   0.360   2.528   1.237  2.0892 -0.2652  0.4661
15230TIP3   OH267104   5.386   6.204  12.576 -0.3332 -0.0924 -0.2685
15230TIP3    H167105   5.379   6.297  12.553 -0.2474  0.0979  0.4599
15230TIP3    H267106   5.402   6.204  12.670  0.5378 -0.8121 -0.4050
15231TIP3   OH267107   1.956   2.422  14.379 -0.2021 -0.4216 -0.1002
15231TIP3    H167108   1.867   2.440  14.349 -0.2103  1.1952  0.7840
15231TIP3    H267109   1.978   2.338  14.340 -2.3165 -1.1167  0.1060
15232TIP3   OH267110   1.402   6.727   5.729  0.0151 -0.1595 -0.2073
15232TIP3    H167111   1.387   6.746   5.821 -2.0992  1.3465 -0.7764
15232TIP3    H267112   1.381   6.634   5.720 -2.0231  0.1753  0.4897
15233TIP3   OH267113   4.010   3.240  11.597 -0.1064  0.3154  0.0766
15233TIP3    H167114   4.048   3.229  11.510 -0.7721  3.1032 -0.6705
15233TIP3    H267115   4.084   3.232  11.657  0.5895 -0.3139 -0.8287
15234TIP3   OH267116   6.578   0.363  14.182 -0.2256  0.3855 -0.1790
15234TIP3    H167117   6.639   0.366  14.256  0.3152 -1.6060 -0.4684
15234TIP3    H267118   6.506   0.421  14.208  1.2086  1.8421  0.6953
15235TIP3   OH267119   5.584   1.520  12.010  0.6538 -0.1022  0.3971
15235TIP3    H167120   5.574   1.531  12.105  0.9417  0.0075  0.4162
15235TIP3    H267121   5.525   1.585  11.972  0.7601  0.0554  0.5023
15236TIP3   OH267122   5.049   3.196   0.727  0.4152  0.2267  0.3038
15236TIP3    H167123   5.085   3.151   0.651  0.7985 -1.7490  1.6091
15236TIP3    H267124   4.970   3.147   0.750  0.2597  0.8421  1.1532
15237TIP3   OH267125   5.830   5.549   3.233  0.0186 -0.0397 -0.1027
15237TIP3    H167126   5.737   5.554   3.208  0.6149  0.5837 -2.3961
15237TIP3    H267127   5.832   5.487   3.305 -2.2809  0.4881  0.5052
15238TIP3   OH267128   2.498   6.226   4.809  0.1663  0.2959 -0.6761
15238TIP3    H167129   2.591   6.214   4.791  0.2761 -1.8836  0.9398
15238TIP3    H267130   2.487   6.321   4.818  2.4465  0.5378  0.1354
15239TIP3   OH267131   1.819   5.794   1.524 -0.0753  0.2291  0.1140
15239TIP3    H167132   1.758   5.775   1.453 -0.6700  0.3779  0.5715
15239TIP3    H267133   1.763   5.829   1.594  0.4166 -0.4562  0.8664
15240TIP3   OH267134   5.832   2.208  16.820  0.8161  0.4040 -0.6153
15240TIP3    H167135   5.854   2.294  16.784  1.6190  0.8959  0.9739
15240TIP3    H267136   5.899   2.150  16.785  1.0335  0.6821 -0.6668
15241TIP3   OH267137   1.175   1.835   1.142 -0.2978  0.5792  0.0143
15241TIP3    H167138   1.240   1.780   1.099 -0.3668 -0.0474  0.6983
15241TIP3    H267139   1.132   1.881   1.070  1.4886  1.7098 -0.3945
15242TIP3   OH267140   2.659   5.221   0.392  1.0816  0.0873  1.0439
15242TIP3    H167141   2.666   5.138   0.438 -1.7989 -1.1870 -0.5540
15242TIP3    H267142   2.727   5.218   0.325 -0.6669 -2.3584 -0.8012
15243TIP3   OH267143   2.622   1.458   3.933 -0.1033  0.8568 -0.9563
15243TIP3    H167144   2.649   1.429   4.020  0.0367  0.2677 -1.1866
15243TIP3    H267145   2.641   1.551   3.931  0.2338  0.7994 -0.4817
15244TIP3   OH267146   5.299   2.305  10.795  0.4090 -1.0682  0.0834
15244TIP3    H167147   5.384   2.305  10.840  1.2623 -1.4649 -1.4260
15244TIP3    H267148   5.311   2.243  10.722 -1.1729 -1.0895 -0.1920
15245TIP3   OH267149   4.584   4.394  14.775  0.1811 -0.8136 -0.7438
15245TIP3    H167150   4.628   4.314  14.747 -0.9190 -1.0223 -1.9881
15245TIP3    H267151   4.572   4.444  14.694 -0.0204  0.1667 -0.1229
15246TIP3   OH267152   5.518   0.881  12.742  0.8977 -0.0189  0.2939
15246TIP3    H167153   5.519   0.800  12.792  1.8322  0.2268  0.6977
15246TIP3    H267154   5.439   0.927  12.773 -1.0228 -1.7566 -1.6509
15247TIP3   OH267155   0.607   0.084  15.950 -0.4433 -0.5714  0.3644
15247TIP3    H167156   0.583   0.121  16.035 -1.6022 -1.5073  0.4805
15247TIP3    H267157   0.658   0.006  15.971 -2.1611 -1.7770  0.3030
15248TIP3   OH267158   2.525   0.981  15.093  0.3853 -0.4001 -0.3842
15248TIP3    H167159   2.506   1.074  15.107  0.6273 -0.2710 -0.8758
15248TIP3    H267160   2.450   0.949  15.043 -1.2361 -1.2189  2.3476
15249TIP3   OH267161   4.634   1.395   4.467  0.1537  0.1055  0.2897
15249TIP3    H167162   4.686   1.407   4.547 -1.4710  1.3604  1.2226
15249TIP3    H267163   4.610   1.484   4.441  0.8626 -0.2576 -1.7883
15250TIP3   OH267164   5.480   4.577   2.809 -0.2110 -0.0261 -0.6009
15250TIP3    H167165   5.478   4.495   2.760 -0.5661  0.4069 -1.3085
15250TIP3    H267166   5.455   4.644   2.746  2.8570  1.0437 -0.8530
15251TIP3   OH267167   6.747   2.533   6.135 -0.4812  0.2762 -0.0560
15251TIP3    H167168   6.810   2.581   6.083  0.2590 -1.3421 -0.7261
15251TIP3    H267169   6.734   2.586   6.214  2.3693  0.2672  0.4960
15252TIP3   OH267170   4.315   3.547  15.427 -0.3640  0.1525 -0.3697
15252TIP3    H167171   4.351   3.548  15.338 -0.8147  2.2718 -0.5763
15252TIP3    H267172   4.304   3.639  15.450  0.5522 -0.2906  2.2363
15253TIP3   OH267173   4.284   6.078  16.291  0.0418  0.3623  0.2433
15253TIP3    H167174   4.308   6.050  16.379  0.6186  0.4843  0.1298
15253TIP3    H267175   4.189   6.077  16.290 -0.0309 -2.8091 -0.1183
15254TIP3   OH267176   3.175   3.633   1.457 -0.1214 -0.1652 -1.3740
15254TIP3    H167177   3.215   3.719   1.459 -1.2189  0.3858 -2.0178
15254TIP3    H267178   3.098   3.643   1.401 -1.8886 -0.8333  0.7347
15255TIP3   OH267179   0.588   5.888  12.397 -0.1016  0.3316  0.5880
15255TIP3    H167180   0.502   5.888  12.438 -0.4971 -1.1477 -0.1735
15255TIP3    H267181   0.629   5.806  12.427 -0.5775 -1.0531 -2.1789
15256TIP3   OH267182   2.341   4.755  16.687 -0.0773 -0.2535  0.1907
15256TIP3    H167183   2.376   4.718  16.768  1.2013 -2.2081 -1.1600
15256TIP3    H267184   2.386   4.838  16.677  1.4200 -1.0125  0.3953
15257TIP3   OH267185   2.362   1.426   3.868  0.5184  0.2550 -0.6115
15257TIP3    H167186   2.455   1.439   3.884  0.2435  1.4230  0.1282
15257TIP3    H267187   2.339   1.494   3.804  0.1749 -0.0330 -0.7980
15258TIP3   OH267188   0.776   6.030  16.795 -0.4156 -0.1888 -0.5074
15258TIP3    H167189   0.852   6.030  16.853 -0.7831  1.2254  0.0142
15258TIP3    H267190   0.807   5.987  16.715  0.5460 -0.7820  0.1636
15259TIP3   OH267191   0.221   0.916  15.153  0.1771  0.3832  0.0973
15259TIP3    H167192   0.207   0.996  15.104 -0.2150  0.3280  0.1165
15259TIP3    H267193   0.148   0.912  15.215  0.7035  0.4920  0.7429
15260TIP3   OH267194   2.172   3.110  14.481  0.1597 -0.4527  0.1210
15260TIP3    H167195   2.084   3.121  14.443  0.1972 -0.8711 -0.0884
15260TIP3    H267196   2.156   3.105  14.575 -0.1968 -1.9190  0.0120
15261TIP3   OH267197   2.780   2.000   1.659 -0.2419 -0.2912 -0.2339
15261TIP3    H167198   2.797   2.015   1.566 -0.9762  0.4016 -0.2677
15261TIP3    H267199   2.860   1.959   1.692 -0.7457 -2.5764 -1.6217
15262TIP3   OH267200   4.464   1.198   1.903 -0.0281  0.3689  0.7098
15262TIP3    H167201   4.541   1.255   1.911 -0.1487  0.9363 -1.5056
15262TIP3    H267202   4.486   1.138   1.831 -1.1620 -0.3188  0.9087
15263TIP3   OH267203   6.757   0.287  15.255  1.4005 -0.1112 -0.7160
15263TIP3    H167204   6.806   0.273  15.336 -0.2250 -0.1014  0.3399
15263TIP3    H267205   6.746   0.382  15.250  0.2682 -0.1831 -0.1156
15264TIP3   OH267206   3.041   5.070  12.596  0.4195 -0.6243 -0.2526
15264TIP3    H167207   3.062   4.980  12.622  0.6117 -0.5045  0.0123
15264TIP3    H267208   3.118   5.121  12.622  1.1417 -0.6707 -2.0868
15265TIP3   OH267209   2.570   4.913  16.724  0.4490  0.1056  0.0299
15265TIP3    H167210   2.592   4.971  16.651  0.4873 -0.2037 -0.2044
15265TIP3    H267211   2.575   4.970  16.802  4.4846 -0.3700  0.3400
15266TIP3   OH267212   6.630   3.615   6.772  0.5171 -0.0894  0.2999
15266TIP3    H167213   6.700   3.623   6.707  1.0930  2.0042  1.0954
15266TIP3    H267214   6.633   3.524   6.799  1.8778 -0.4212 -0.8411
15267TIP3   OH267215   0.702   4.956  16.096 -0.2643  0.0206 -0.5055
15267TIP3    H167216   0.743   4.943  16.010  2.2932 -0.3343  0.6612
15267TIP3    H267217   0.667   5.045  16.093  0.8650  0.4641 -1.5356
15268TIP3   OH267218   1.992   0.641   2.333 -0.5710  0.6771 -0.3332
15268TIP3    H167219   1.906   0.619   2.297 -0.7093  0.9586 -0.1722
15268TIP3    H267220   2.030   0.702   2.269 -0.7721  1.0912 -0.0635
15269TIP3   OH267221   6.222   6.290   0.296  0.1451  0.2906 -0.2007
15269TIP3    H167222   6.282   6.281   0.369  0.7772  1.7899 -0.5089
15269TIP3    H267223   6.278   6.304   0.219 -0.5446 -0.0656 -0.7872
15270TIP3   OH267224   0.336   0.659   5.443  0.7999  0.2449  0.3544
15270TIP3    H167225   0.379   0.675   5.527 -0.0985 -0.6392  1.0089
15270TIP3    H267226   0.387   0.710   5.380  1.0720  1.5293  1.5410
15271TIP3   OH267227   0.121   2.593   1.520 -0.9117 -0.4851  0.2014
15271TIP3    H167228   0.070   2.667   1.552 -0.5187  0.3109 -0.9426
15271TIP3    H267229   0.147   2.618   1.431 -0.5563 -1.8913 -0.1223
15272TIP3   OH267230   1.629   4.905  16.698  0.7624 -0.0722 -0.0954
15272TIP3    H167231   1.660   4.843  16.631  1.5991 -0.5891  0.7557
15272TIP3    H267232   1.701   4.912  16.760  0.1295  0.6808  0.5752
15273TIP3   OH267233   2.782   4.198   1.356 -0.1387 -0.1470 -0.0844
15273TIP3    H167234   2.692   4.198   1.390 -0.7323  3.6311 -1.2591
15273TIP3    H267235   2.837   4.211   1.433 -0.8303  0.2610  0.3537
15274TIP3   OH267236   4.405   4.598   0.337 -0.6511  0.8191  0.2162
15274TIP3    H167237   4.486   4.562   0.372 -0.2560  0.7576 -0.7262
15274TIP3    H267238   4.337   4.539   0.368 -0.3817  1.0517  1.2816
15275TIP3   OH267239   0.715   6.166   4.109 -0.0665  0.1851 -0.3985
15275TIP3    H167240   0.788   6.150   4.169 -1.0907 -0.1395  0.8101
15275TIP3    H267241   0.716   6.261   4.095  0.2723  0.2495  0.0404
15276TIP3   OH267242   4.228   1.783   4.873  0.5918  0.2910 -0.1390
15276TIP3    H167243   4.274   1.861   4.844  0.0639  1.3460  1.6868
15276TIP3    H267244   4.136   1.801   4.856  0.5800 -0.6462 -1.1994
15277TIP3   OH267245   3.586   1.755   3.220  0.3591 -0.7548 -0.0396
15277TIP3    H167246   3.662   1.789   3.267 -0.7083  1.7332  0.0542
15277TIP3    H267247   3.611   1.758   3.128  0.0655  1.1660 -0.1091
15278TIP3   OH267248   3.886   1.135   1.321 -0.0602  0.7631  0.5376
15278TIP3    H167249   3.836   1.203   1.367 -0.1787  0.7805  0.3833
15278TIP3    H267250   3.947   1.184   1.265 -0.8673  0.7530 -0.3699
15279TIP3   OH267251   1.359   5.504  12.824 -0.2945  0.3426  0.5294
15279TIP3    H167252   1.357   5.413  12.796 -0.2394  0.1478  1.1363
15279TIP3    H267253   1.442   5.538  12.790 -0.5021  0.2817 -0.0390
15280TIP3   OH267254   4.462   2.852  12.410  0.2621  0.2690  0.3583
15280TIP3    H167255   4.518   2.831  12.484  0.3443  0.6560  0.4072
15280TIP3    H267256   4.518   2.902  12.350 -0.4246  2.0084  1.1013
15281TIP3   OH267257   1.328   2.369   2.038  0.1908  0.0356 -0.1485
15281TIP3    H167258   1.420   2.367   2.013  0.0984  0.3391 -0.5288
15281TIP3    H267259   1.288   2.433   1.977 -0.5221 -1.0375 -0.8417
15282TIP3   OH267260   3.785   2.502   2.936  0.3701 -0.6801  0.2577
15282TIP3    H167261   3.838   2.433   2.974 -0.8483 -1.8467 -0.1043
15282TIP3    H267262   3.847   2.552   2.882  1.0826 -2.0913 -0.2828
15283TIP3   OH267263   6.084   3.845   4.439 -0.3153 -0.2053 -0.0932
15283TIP3    H167264   6.021   3.889   4.496 -0.2877  1.4020 -1.2364
15283TIP3    H267265   6.084   3.898   4.359  1.5670 -0.8964 -0.5840
15284TIP3   OH267266   4.647   6.124  13.993 -0.3025 -0.0056 -0.7696
15284TIP3    H167267   4.572   6.087  14.040 -0.3635  2.0815  0.9128
15284TIP3    H267268   4.608   6.175  13.922 -0.3292 -0.8774 -1.4010
15285TIP3   OH267269   3.309   0.830  12.541  0.5949  0.9975  0.0290
15285TIP3    H167270   3.291   0.736  12.544 -1.9682  1.3777 -1.0120
15285TIP3    H267271   3.261   0.867  12.615  1.2079  1.5512  0.1645
15286TIP3   OH267272   0.958   4.426  16.608  0.0745 -0.0511 -0.1775
15286TIP3    H167273   0.948   4.520  16.598 -0.9849 -0.2800 -1.6199
15286TIP3    H267274   0.925   4.389  16.526  1.1968 -1.6459  0.0185
15287TIP3   OH267275   3.262   3.763   4.240  0.4061 -0.1559  0.4835
15287TIP3    H167276   3.324   3.813   4.293 -0.7221  1.9605 -0.0773
15287TIP3    H267277   3.296   3.768   4.151 -0.3808  0.8156  0.2120
15288TIP3   OH267278   2.409   1.573   5.578 -0.5247  0.5627 -0.4181
15288TIP3    H167279   2.466   1.509   5.620 -0.3206  0.1162 -1.3569
15288TIP3    H267280   2.389   1.636   5.648  0.1998  0.1152  0.2137
15289TIP3   OH267281   0.474   0.854   4.108 -0.3518 -0.5564 -0.4159
15289TIP3    H167282   0.472   0.811   4.194 -0.4698  0.0151 -0.1226
15289TIP3    H267283   0.547   0.916   4.115 -1.8750  1.2762  0.1827
15290TIP3   OH267284   4.063   3.827  15.025  0.2147 -0.0392 -0.1897
15290TIP3    H167285   4.143   3.825  15.077 -0.3642 -1.1137  0.6811
15290TIP3    H267286   4.002   3.770  15.071 -0.3685 -0.9341 -1.9582
15291TIP3   OH267287   4.649   4.561  11.155 -0.1882 -0.3449 -0.4761
15291TIP3    H167288   4.715   4.627  11.176 -0.1262 -0.6004  0.1589
15291TIP3    H267289   4.678   4.483  11.203 -0.7333 -0.5818 -0.5283
15292TIP3   OH267290   0.452   4.488  11.588 -0.0784 -0.6848 -0.3059
15292TIP3    H167291   0.462   4.468  11.495  1.8275 -1.8787  0.1117
15292TIP3    H267292   0.493   4.574  11.598  0.0096 -0.7010 -0.5210
15293TIP3   OH267293   0.370   6.122   3.374  0.4036  0.1416  0.3116
15293TIP3    H167294   0.443   6.063   3.396  2.2151  0.5374 -3.6245
15293TIP3    H267295   0.316   6.071   3.313  0.0197  1.3642 -0.4023
15294TIP3   OH267296   0.223   1.078   5.634 -0.2150 -0.5336  0.1645
15294TIP3    H167297   0.251   1.060   5.544  0.6573 -1.0208  0.5203
15294TIP3    H267298   0.194   0.992   5.667 -0.4952 -0.3633  0.3674
15295TIP3   OH267299   3.434   2.718   5.576 -0.2655  0.5095 -0.4302
15295TIP3    H167300   3.438   2.653   5.505 -0.9283 -1.5216  1.2925
15295TIP3    H267301   3.524   2.750   5.585  0.0645 -0.1365 -1.3446
15296TIP3   OH267302   1.019   2.920  16.199  0.0593  0.2271  0.3720
15296TIP3    H167303   0.975   2.843  16.164  2.6637 -1.6232  0.8497
15296TIP3    H267304   0.967   2.944  16.276  0.9651 -3.2639  2.2891
15297TIP3   OH267305   5.674   3.724  12.246 -0.7809  0.1136 -0.9019
15297TIP3    H167306   5.605   3.730  12.312 -0.9351 -1.6424 -0.8702
15297TIP3    H267307   5.755   3.721  12.297 -0.9277 -1.8291 -0.6966
15298TIP3   OH267308   1.645   2.634   5.194  0.1743 -0.4056  0.1496
15298TIP3    H167309   1.627   2.540   5.205  0.4099 -0.3940  0.6565
15298TIP3    H267310   1.740   2.638   5.179  0.2846 -0.1915  0.8661
15299TIP3   OH267311   1.228   6.394  11.016  0.3312  0.1091 -0.3160
15299TIP3    H167312   1.208   6.391  11.110  0.0553 -0.1828 -0.3837
15299TIP3    H267313   1.142   6.393  10.974  0.4871 -1.8274 -0.6395
15300TIP3   OH267314   2.475   4.471   2.054 -0.1916 -0.2698  0.2321
15300TIP3    H167315   2.414   4.458   1.982  0.5270 -2.3866 -0.0734
15300TIP3    H267316   2.561   4.451   2.016  0.6756  2.0175  0.8125
15301TIP3   OH267317   5.785   0.534   6.546  0.4522  0.0290  0.1249
15301TIP3    H167318   5.821   0.484   6.619 -0.6853 -2.3299 -0.8026
15301TIP3    H267319   5.727   0.598   6.586  2.2595  0.9221  1.3955
15302TIP3   OH267320   3.855   3.273   1.195  0.0751  0.0462  0.5594
15302TIP3    H167321   3.795   3.212   1.152  0.2467  1.4263 -1.8420
15302TIP3    H267322   3.941   3.233   1.185  0.0176 -0.0110  0.2777
15303TIP3   OH267323   5.395   0.572   0.386  0.3636  0.5073  0.2210
15303TIP3    H167324   5.432   0.492   0.349 -1.9572 -1.2373  1.3987
15303TIP3    H267325   5.439   0.582   0.470  0.8124  0.5830 -0.0241
15304TIP3   OH267326   0.758   5.323  12.296  0.0688 -0.1107 -0.0618
15304TIP3    H167327   0.833   5.368  12.336 -0.3647 -0.3813  1.0860
15304TIP3    H267328   0.795   5.244  12.257  0.3297 -0.4488  0.8533
15305TIP3   OH267329   2.967   5.553   5.523  0.5752  0.6986  0.1568
15305TIP3    H167330   3.048   5.581   5.481  1.0577 -0.8306  0.0100
15305TIP3    H267331   2.953   5.618   5.592  2.0429  0.8815  0.3263
15306TIP3   OH267332   3.865   0.968  14.585 -0.2854  1.0239 -0.4268
15306TIP3    H167333   3.799   1.032  14.610 -1.4048 -0.0781 -0.4644
15306TIP3    H267334   3.918   0.955  14.664 -0.6843  1.2403 -0.1254
15307TIP3   OH267335   0.872   6.400  13.619 -0.8733 -0.5231  0.0511
15307TIP3    H167336   0.930   6.342  13.669 -2.2856 -2.6682 -0.6737
15307TIP3    H267337   0.798   6.416  13.678 -0.4793  0.6630  0.2647
15308TIP3   OH267338   5.779   1.755  17.157  0.1846 -0.1926  0.5272
15308TIP3    H167339   5.776   1.850  17.156 -0.7712 -0.0471 -3.8852
15308TIP3    H267340   5.841   1.734  17.227  0.5924  3.6123  1.5383
15309TIP3   OH267341   2.427   2.753  16.690 -0.1716  0.1932 -0.3794
15309TIP3    H167342   2.433   2.707  16.606  1.6530 -0.9802  0.3242
15309TIP3    H267343   2.445   2.844  16.669  0.7450 -0.1672 -1.2163
15310TIP3   OH267344   4.164   5.246  14.406  0.0095  0.7453 -0.2643
15310TIP3    H167345   4.177   5.167  14.353  1.1965  0.5423  0.2836
15310TIP3    H267346   4.082   5.230  14.453  0.3052 -0.2505 -0.0483
15311TIP3   OH267347   1.259   1.657  11.331  0.1534 -0.0599 -0.2506
15311TIP3    H167348   1.280   1.708  11.253  1.2205  0.0853  0.1146
15311TIP3    H267349   1.312   1.578  11.323 -0.1035 -0.2691  0.0842
15312TIP3   OH267350   1.662   0.586   2.897 -0.0655  0.2656 -0.1851
15312TIP3    H167351   1.591   0.534   2.858  0.6273 -0.3137 -0.7193
15312TIP3    H267352   1.630   0.609   2.984 -0.7477 -0.3315 -0.2621
15313TIP3   OH267353   1.320   6.140   2.776  0.6347 -0.1741  0.0108
15313TIP3    H167354   1.288   6.136   2.866  0.0671 -1.5878 -0.2344
15313TIP3    H267355   1.387   6.072   2.772  0.3959 -0.3660 -0.7372
15314TIP3   OH267356   5.653   2.157  12.454  0.9647  0.1538  0.1972
15314TIP3    H167357   5.589   2.093  12.424  0.2171  0.7971  0.3699
15314TIP3    H267358   5.682   2.202  12.375 -1.3292  2.1472  0.3903
15315TIP3   OH267359   3.699   3.232  13.221  0.7681  0.4282 -0.2600
15315TIP3    H167360   3.719   3.207  13.131 -0.5754 -0.1142 -0.4250
15315TIP3    H267361   3.608   3.208  13.233  1.6401 -2.2430  2.1712
15316TIP3   OH267362   6.720   1.882   0.487  0.1256 -0.1608 -0.8047
15316TIP3    H167363   6.768   1.874   0.570 -1.0237 -0.7697 -0.1710
15316TIP3    H267364   6.630   1.905   0.514 -0.2322 -0.2321 -1.8905
15317TIP3   OH267365   2.383   0.631   3.105 -0.1388  0.1197 -0.1067
15317TIP3    H167366   2.378   0.585   3.189  2.4763 -0.7301 -0.3405
15317TIP3    H267367   2.390   0.561   3.040 -0.8739  0.7975 -0.9363
15318TIP3   OH267368   4.913   2.216  13.754  0.1294  0.0432 -0.0285
15318TIP3    H167369   4.900   2.138  13.808 -0.0041 -0.8004 -1.2418
15318TIP3    H267370   4.895   2.289  13.813  1.0591 -0.8023  1.3663
15319TIP3   OH267371   3.012   0.696   5.583 -0.4787 -0.0548  0.4971
15319TIP3    H167372   3.059   0.671   5.663 -0.6315 -0.0104  0.6006
15319TIP3    H267373   2.996   0.790   5.593 -0.6177 -0.0760  0.4761
15320TIP3   OH267374   2.495   6.480   5.380 -0.4821 -0.4194  0.1543
15320TIP3    H167375   2.554   6.555   5.381  1.7458 -2.0217  1.9613
15320TIP3    H267376   2.490   6.453   5.289 -1.0622  1.6748 -0.4641
15321TIP3   OH267377   4.831   2.011   0.101  0.2859 -0.0587 -0.2439
15321TIP3    H167378   4.785   2.080   0.149  0.4296 -1.1373  1.5246
15321TIP3    H267379   4.899   1.982   0.160 -0.4199 -2.4444 -0.4917
15322TIP3   OH267380   4.691   0.507  11.620 -0.6072 -0.0094 -0.5828
15322TIP3    H167381   4.660   0.560  11.693 -1.4844  1.4161 -1.9279
15322TIP3    H267382   4.620   0.445  11.603 -1.1272  0.7412 -1.2344
15323TIP3   OH267383   1.102   1.599  13.067 -0.1198 -0.5198 -0.4239
15323TIP3    H167384   1.058   1.679  13.095  0.2485 -0.5357  0.2391
15323TIP3    H267385   1.168   1.583  13.135  1.7022  0.1506 -1.9353
15324TIP3   OH267386   0.608   2.997   1.582 -0.6038 -0.2658 -0.4716
15324TIP3    H167387   0.702   3.006   1.597 -0.6165  0.9538 -1.0618
15324TIP3    H267388   0.568   3.070   1.629 -1.2030 -0.3875 -0.7800
15325TIP3   OH267389   0.556   5.497  11.931  0.4685 -0.1126  0.4081
15325TIP3    H167390   0.558   5.563  12.000 -1.3377  0.1081  0.3084
15325TIP3    H267391   0.541   5.414  11.976 -0.6631  0.0253  0.3196
15326TIP3   OH267392   1.826   3.561  12.898  0.0556  0.0181 -0.4569
15326TIP3    H167393   1.815   3.638  12.953 -2.4052 -1.1425  0.8463
15326TIP3    H267394   1.752   3.564  12.837  0.5643 -0.7274 -1.1277
15327TIP3   OH267395   4.015   5.350  16.967  0.2633  0.5225  0.6230
15327TIP3    H167396   4.068   5.407  16.912 -0.3763  1.4804  0.9841
15327TIP3    H267397   4.049   5.262  16.949  0.5604  0.8907 -0.7301
15328TIP3   OH267398   5.014   6.349   5.506 -0.6399  0.0789 -0.2176
15328TIP3    H167399   4.943   6.289   5.530  0.0348 -0.7473 -0.2092
15328TIP3    H267400   4.991   6.380   5.419 -2.3837  1.9846  0.8448
15329TIP3   OH267401   1.593   1.094  14.848  0.4610  0.5563  0.0704
15329TIP3    H167402   1.661   1.087  14.915  0.0263  0.7453  0.5335
15329TIP3    H267403   1.524   1.035  14.878  1.4366 -1.6585 -1.6716
15330TIP3   OH267404   3.821   2.606  14.109 -0.2612  0.4562  0.2980
15330TIP3    H167405   3.740   2.567  14.141 -0.4002  0.9663  0.5864
15330TIP3    H267406   3.865   2.536  14.062  0.0432 -0.4015  1.7818
15331TIP3   OH267407   3.915   5.745   5.577 -0.1815 -0.5173  0.0148
15331TIP3    H167408   3.979   5.678   5.599 -0.0969 -0.9851 -1.5638
15331TIP3    H267409   3.862   5.754   5.656 -0.2216 -2.4711  0.2543
15332TIP3   OH267410   4.096   6.536  16.893  0.8068  0.0953  0.4091
15332TIP3    H167411   4.083   6.441  16.889  0.0555  0.2306 -1.1037
15332TIP3    H267412   4.180   6.551  16.848  0.6430  0.1949  0.1359
15333TIP3   OH267413   5.361   2.736   3.356  0.0098 -0.5241 -0.0774
15333TIP3    H167414   5.362   2.814   3.411 -1.5029 -1.2551  1.0748
15333TIP3    H267415   5.444   2.738   3.309 -0.2313  2.0581 -0.5148
15334TIP3   OH267416   5.334   4.240   1.633 -0.0496  0.0306  0.2183
15334TIP3    H167417   5.269   4.301   1.667  0.0813 -0.5029  1.4806
15334TIP3    H267418   5.352   4.271   1.544  1.1096  2.7300  1.2685
15335TIP3   OH267419   1.503   3.426  13.546  0.2135 -0.1925  0.1681
15335TIP3    H167420   1.442   3.497  13.565 -0.6617 -0.7669 -0.4131
15335TIP3    H267421   1.487   3.404  13.454  0.8828 -0.7442  0.1747
15336TIP3   OH267422   0.988   3.152  14.785 -0.8703 -0.7844  0.0044
15336TIP3    H167423   1.022   3.129  14.871 -1.4833 -0.7020  0.2684
15336TIP3    H267424   0.947   3.072  14.753 -0.2095 -0.9589 -0.4258
15337TIP3   OH267425   5.296   6.324   2.315  0.0749 -0.0907  0.1572
15337TIP3    H167426   5.332   6.282   2.237  0.6534  0.3490  0.1852
15337TIP3    H267427   5.285   6.415   2.290  0.4109  0.0829  0.6374
15338TIP3   OH267428   0.156   0.518  12.093  0.0410  0.3363 -0.7686
15338TIP3    H167429   0.205   0.473  12.162  0.0770 -1.7217 -2.0515
15338TIP3    H267430   0.222   0.535  12.025 -0.3479  0.7382 -1.0497
15339TIP3   OH267431   0.985   2.285  14.675  0.4623 -0.7073 -0.0845
15339TIP3    H167432   1.012   2.323  14.759 -0.3959  0.5213 -0.3233
15339TIP3    H267433   1.038   2.206  14.665  0.8507 -0.6563  1.4255
15340TIP3   OH267434   0.933   3.868   4.826  0.0708 -1.0452  0.9968
15340TIP3    H167435   0.994   3.904   4.762 -0.4719 -1.6149  0.1297
15340TIP3    H267436   0.893   3.944   4.867 -1.4426 -0.5924 -1.1719
15341TIP3   OH267437   2.050   4.702   0.046  0.3188 -0.3826  0.1692
15341TIP3    H167438   1.984   4.685   0.113 -0.4325  0.5005 -0.3287
15341TIP3    H267439   2.001   4.703  -0.036  1.3012 -2.0010 -0.4924
15342TIP3   OH267440   3.547   2.872  16.778 -0.2420 -0.5382  0.6025
15342TIP3    H167441   3.589   2.881  16.864  0.8689  1.6255 -0.0987
15342TIP3    H267442   3.468   2.820  16.795  0.9219 -1.7723  2.5776
15343TIP3   OH267443   0.406   2.774   3.604  0.1445  0.1072  0.2021
15343TIP3    H167444   0.385   2.693   3.559 -2.3655  0.3815  0.7607
15343TIP3    H267445   0.451   2.827   3.538  0.5544 -1.1758 -0.5832
15344TIP3   OH267446   2.484   3.748  10.926  0.2859  0.6487 -0.3619
15344TIP3    H167447   2.484   3.843  10.925 -1.0789  0.7248  1.5624
15344TIP3    H267448   2.558   3.723  10.870  0.5542  2.8008 -1.0500
15345TIP3   OH267449   1.187   2.069   4.664 -1.0570 -0.5248 -0.7218
15345TIP3    H167450   1.209   1.995   4.721  0.7496  0.2201 -0.3812
15345TIP3    H267451   1.181   2.031   4.577  0.6692 -0.9847 -0.6760
15346TIP3   OH267452   2.416   2.283   4.598 -0.4969  0.2779  0.4500
15346TIP3    H167453   2.447   2.349   4.536  0.0095 -1.0998 -0.8001
15346TIP3    H267454   2.466   2.205   4.578 -2.1781 -0.9626  0.8642
15347TIP3   OH267455   1.208   5.311  12.169 -0.1030  0.2294  0.2015
15347TIP3    H167456   1.268   5.240  12.190 -0.4417 -0.0115  0.3618
15347TIP3    H267457   1.136   5.302  12.231 -1.0021 -0.3368 -0.8779
15348TIP3   OH267458   3.909   5.281  15.141  0.5631 -0.1216 -0.4295
15348TIP3    H167459   3.893   5.187  15.142 -3.3858  0.3686  1.1547
15348TIP3    H267460   3.864   5.313  15.063  0.8464  0.6101 -0.3028
15349TIP3   OH267461   3.734   2.232   3.751  0.0037 -0.2264 -0.4569
15349TIP3    H167462   3.758   2.141   3.767  0.9890 -0.0523 -0.8871
15349TIP3    H267463   3.670   2.227   3.680 -1.4244 -0.7026  0.8031
15350TIP3   OH267464   2.459   6.043   0.554 -0.5227  0.4028 -0.3331
15350TIP3    H167465   2.513   6.011   0.626 -1.6909  0.0192  0.4036
15350TIP3    H267466   2.394   5.975   0.541 -1.3660  1.2311 -0.5992
15351TIP3   OH267467   4.685   6.552  17.055  0.1780  0.3047  0.1603
15351TIP3    H167468   4.663   6.638  17.018  1.8460 -0.3969 -2.7871
15351TIP3    H267469   4.767   6.567  17.102 -0.5458  0.6656  1.3449
15352TIP3   OH267470   5.618   1.467  16.800  0.2139  0.5528 -0.4244
15352TIP3    H167471   5.682   1.534  16.822  0.1558  0.2216  0.7993
15352TIP3    H267472   5.650   1.428  16.719  0.6471  1.5366 -0.7349
15353TIP3   OH267473   0.159   5.356  14.593 -0.2118  0.9212  0.2422
15353TIP3    H167474   0.216   5.279  14.596  0.0242  0.9998 -1.4029
15353TIP3    H267475   0.214   5.425  14.555 -1.8900  0.4431 -3.4999
15354TIP3   OH267476   4.517   4.411  15.698 -0.6228  0.4162 -0.2896
15354TIP3    H167477   4.476   4.396  15.613 -1.8601  1.4773  0.0860
15354TIP3    H267478   4.555   4.498  15.692 -0.4420  0.3687  0.1422
15355TIP3   OH267479   5.307   3.775   1.952 -0.3541 -0.1209 -0.0935
15355TIP3    H167480   5.278   3.814   1.870 -0.9992 -0.5931 -0.1025
15355TIP3    H267481   5.387   3.727   1.930 -0.3238  0.0562 -0.3659
15356TIP3   OH267482   0.144   2.648   6.688  0.1578  0.1442 -0.2355
15356TIP3    H167483   0.235   2.618   6.685 -0.2325 -0.9713 -2.1136
15356TIP3    H267484   0.113   2.641   6.598 -1.4005  1.8240  0.1152
15357TIP3   OH267485   2.245   1.033   0.302  0.3778 -0.3887  0.4921
15357TIP3    H167486   2.288   1.114   0.277 -0.2547 -0.1020  0.3045
15357TIP3    H267487   2.313   0.966   0.295  0.8997  0.1234  0.6455
15358TIP3   OH267488   0.786   0.894  14.584 -0.0020  0.2440 -0.0103
15358TIP3    H167489   0.701   0.851  14.577  0.7504 -1.4318  0.5802
15358TIP3    H267490   0.800   0.934  14.498 -0.7482 -0.7255 -0.6067
15359TIP3   OH267491   0.490   3.795   5.568 -0.8135  0.0462 -0.1446
15359TIP3    H167492   0.515   3.836   5.651  0.7360 -0.1279 -0.4936
15359TIP3    H267493   0.460   3.707   5.592  2.3719 -1.1005  0.0469
15360TIP3   OH267494   5.624   2.238  16.241  0.2809 -0.0051 -0.6329
15360TIP3    H167495   5.702   2.260  16.291 -0.6325  1.9635 -0.0011
15360TIP3    H267496   5.587   2.322  16.214 -1.6305 -0.8659 -0.8951
15361TIP3   OH267497   4.238   3.496   0.719  0.4743  0.3017  0.3049
15361TIP3    H167498   4.294   3.568   0.748  3.1015 -1.7870  0.8225
15361TIP3    H267499   4.263   3.482   0.627  1.9171 -1.4850  0.9032
15362TIP3   OH267500   5.164   5.546  16.552 -0.0867  0.3810 -0.5837
15362TIP3    H167501   5.097   5.518  16.615 -2.0373  1.4646 -2.0593
15362TIP3    H267502   5.148   5.639  16.540  0.8169  0.3850 -1.9955
15363TIP3   OH267503   0.785   0.314   4.299  0.0995 -0.3323 -0.3875
15363TIP3    H167504   0.704   0.271   4.327  1.3375 -1.6185  1.3999
15363TIP3    H267505   0.782   0.400   4.340  0.3299 -0.9660  1.0110
15364TIP3   OH267506   6.308   1.419   0.619  0.4919 -0.2452  0.0083
15364TIP3    H167507   6.343   1.403   0.706  0.0460  0.4891  0.3275
15364TIP3    H267508   6.335   1.343   0.568  2.9597  0.4850  0.1031
15365TIP3   OH267509   5.568   3.158  15.304  0.6080  0.2927  0.9821
15365TIP3    H167510   5.535   3.135  15.217 -0.8205  0.1500  1.5313
15365TIP3    H267511   5.570   3.075  15.351 -1.4542  0.7257  1.9587
15366TIP3   OH267512   3.242   3.572  13.197 -0.1131  0.2080  0.1686
15366TIP3    H167513   3.263   3.486  13.160 -0.8072 -0.1030  0.4866
15366TIP3    H267514   3.304   3.583  13.269 -0.4131 -0.2999  0.5146
15367TIP3   OH267515   4.816   0.891   3.779  0.3141 -0.3477 -0.0431
15367TIP3    H167516   4.865   0.961   3.737 -1.8326  2.7898  2.2522
15367TIP3    H267517   4.785   0.836   3.707  2.3313  0.8276 -1.9190
15368TIP3   OH267518   1.798   4.470  13.996 -0.2597 -0.2152 -0.1522
15368TIP3    H167519   1.869   4.448  14.056 -1.0126 -0.5542  0.6356
15368TIP3    H267520   1.720   4.431  14.036 -1.5278  2.9440  0.8151
15369TIP3   OH267521   1.698   4.489  16.754  0.5198  0.6655  0.0534
15369TIP3    H167522   1.715   4.477  16.847  1.5740  0.7759 -0.1087
15369TIP3    H267523   1.607   4.520  16.749 -0.1886 -1.1715  0.8949
15370TIP3   OH267524   3.615   5.149   2.754  0.3016  0.2859  0.0673
15370TIP3    H167525   3.546   5.093   2.719  0.5767  0.9109 -1.5245
15370TIP3    H267526   3.656   5.188   2.677  0.3503  2.3975  1.1114
15371TIP3   OH267527   0.121   6.025   1.541  0.6157 -0.4037  0.1197
15371TIP3    H167528   0.114   6.079   1.620 -0.3034  0.3730 -0.4762
15371TIP3    H267529   0.167   5.946   1.570  1.0215  0.2272  1.2453
15372TIP3   OH267530   5.464   4.949  12.459 -0.2091  0.2841  0.1794
15372TIP3    H167531   5.467   4.997  12.541  0.0180 -0.3783  0.5641
15372TIP3    H267532   5.419   5.008  12.398 -2.4405 -0.0829  1.3547
15373TIP3   OH267533   4.078   0.867   1.328 -0.5081  0.2302 -0.2033
15373TIP3    H167534   4.171   0.857   1.348 -0.8147  1.4465  2.2007
15373TIP3    H267535   4.074   0.869   1.233  2.0622  1.1435 -0.3634
15374TIP3   OH267536   0.925   1.975  14.135  0.3718 -0.2685  0.0702
15374TIP3    H167537   0.981   2.045  14.168  0.0035  0.4276 -0.7732
15374TIP3    H267538   0.837   2.011  14.138  0.3801  0.1232 -2.3628
15375TIP3   OH267539   3.667   3.354   1.797 -0.0195 -0.4701 -0.7289
15375TIP3    H167540   3.618   3.273   1.787  0.6144 -0.8386 -0.8759
15375TIP3    H267541   3.620   3.417   1.742 -0.9624 -0.5247 -0.0103
15376TIP3   OH267542   5.979   2.688   0.476  0.1008  0.1627  0.3448
15376TIP3    H167543   5.956   2.635   0.399  0.4539 -0.8411  0.9073
15376TIP3    H267544   5.939   2.773   0.459  1.6546  0.5682 -1.8124
15377TIP3   OH267545   4.815   4.188  14.077  0.1050  0.2745 -0.6200
15377TIP3    H167546   4.816   4.096  14.104 -1.3691  0.1338 -0.9459
15377TIP3    H267547   4.726   4.202  14.043  0.3960  1.7433 -0.8463
15378TIP3   OH267548   0.076   2.064   5.457  0.1567 -0.3273  0.0755
15378TIP3    H167549   0.043   2.110   5.534 -0.3792 -0.4283 -0.0952
15378TIP3    H267550   0.171   2.078   5.460  0.4136 -1.9826  1.8823
15379TIP3   OH267551   0.706   3.976   6.611 -0.0769 -0.3266 -1.1512
15379TIP3    H167552   0.715   4.049   6.550 -0.5279  1.3936  0.7535
15379TIP3    H267553   0.647   4.008   6.679  3.1807 -0.6878  2.2076
15380TIP3   OH267554   6.440   2.650  15.031 -0.7088 -0.1819  0.0224
15380TIP3    H167555   6.445   2.684  14.941 -0.2387 -0.4913 -0.0753
15380TIP3    H267556   6.432   2.728  15.085  0.7776  0.1376 -0.1694
15381TIP3   OH267557   6.428   3.500   3.452 -0.0984  0.6924  0.1092
15381TIP3    H167558   6.460   3.413   3.478 -2.6829 -0.5992 -0.6844
15381TIP3    H267559   6.347   3.511   3.500  0.1075  2.6650  0.0806
15382TIP3   OH267560   4.005   2.449   6.708 -0.1553 -0.4212  0.3514
15382TIP3    H167561   4.025   2.489   6.623 -1.2494 -0.2991  0.1431
15382TIP3    H267562   4.054   2.502   6.771 -1.5307  1.2565  0.0803
15383TIP3   OH267563   6.350   1.252   0.086  0.6422  0.3533  0.2579
15383TIP3    H167564   6.317   1.320   0.144  1.3562 -0.7157  2.0077
15383TIP3    H267565   6.280   1.187   0.083  1.6792 -0.9924  2.4113
15384TIP3   OH267566   0.901   4.910   1.777 -0.0140  0.1875 -0.1757
15384TIP3    H167567   0.829   4.924   1.716 -1.3591 -1.5489  0.9177
15384TIP3    H267568   0.870   4.946   1.860 -0.6590 -2.5537  0.8841
15385TIP3   OH267569   5.417   5.920  16.224  0.1908 -0.5069  0.0350
15385TIP3    H167570   5.418   6.016  16.221  2.6438 -0.4231  1.1236
15385TIP3    H267571   5.501   5.897  16.262 -0.1961 -3.1389 -0.5438
15386TIP3   OH267572   2.367   4.196  14.546 -0.0478 -0.2460  0.0494
15386TIP3    H167573   2.407   4.116  14.510  0.8565 -1.1675  2.8516
15386TIP3    H267574   2.436   4.261  14.542 -0.3237  0.0023 -0.8974
15387TIP3   OH267575   0.283   5.525   0.219  0.4042  0.2682  0.1716
15387TIP3    H167576   0.294   5.430   0.228 -0.2893  0.2039  0.3713
15387TIP3    H267577   0.371   5.560   0.231  1.8999 -0.7050 -5.1054
15388TIP3   OH267578   5.554   2.050   4.100  0.3337 -0.2113  0.7696
15388TIP3    H167579   5.607   1.971   4.084 -1.6227 -1.3655 -0.4180
15388TIP3    H267580   5.518   2.037   4.188  1.6659  0.4174  1.4437
15389TIP3   OH267581   3.668   2.485   5.632 -0.1167  0.0122 -0.2621
15389TIP3    H167582   3.706   2.556   5.581 -0.3320 -0.5744 -1.2564
15389TIP3    H267583   3.661   2.520   5.721 -0.7364  1.4357 -0.8441
15390TIP3   OH267584   0.133   2.725   1.232 -0.5290  0.0737  0.3265
15390TIP3    H167585   0.225   2.697   1.226 -0.3886  0.7681 -1.3028
15390TIP3    H267586   0.137   2.805   1.283 -0.2940 -0.1731  0.7026
15391TIP3   OH267587   1.441   6.205   3.731  0.3664  0.2238 -0.4095
15391TIP3    H167588   1.493   6.248   3.662  0.3731  0.7587 -0.0787
15391TIP3    H267589   1.484   6.230   3.813 -0.7988  1.2470 -0.0832
15392TIP3   OH267590   0.776   3.961  13.908  0.2499  0.3134 -0.0215
15392TIP3    H167591   0.732   3.922  13.984  0.1179 -2.7072 -1.4710
15392TIP3    H267592   0.867   3.972  13.936  0.4237 -1.6968  0.3650
15393TIP3   OH267593   6.390   0.898  13.439 -0.3710 -0.3482  0.7051
15393TIP3    H167594   6.466   0.920  13.384 -0.1143 -1.9534  0.3671
15393TIP3    H267595   6.343   0.980  13.448  0.3028  0.2452 -0.8249
15394TIP3   OH267596   2.173   1.157  15.067 -0.2872  0.0503  0.2915
15394TIP3    H167597   2.240   1.225  15.064  1.3169 -1.3793  1.3859
15394TIP3    H267598   2.100   1.196  15.115  0.7985  0.8465  1.3438
15395TIP3   OH267599   1.134   2.061   3.584  0.2121  0.4192  0.7637
15395TIP3    H167600   1.094   2.109   3.656  0.1332 -1.5564  2.1315
15395TIP3    H267601   1.144   2.126   3.514 -2.0486  1.8291  1.6283
15396TIP3   OH267602   2.744   5.137  13.860  0.0722 -0.5604 -0.5732
15396TIP3    H167603   2.792   5.056  13.842  0.1084 -0.2231 -2.1366
15396TIP3    H267604   2.781   5.201  13.799  0.5107  0.8480  1.0804
15397TIP3   OH267605   5.425   3.312   3.989 -0.2045 -0.4916  0.1976
15397TIP3    H167606   5.374   3.387   3.956 -0.1906 -0.4322  0.3114
15397TIP3    H267607   5.375   3.281   4.064 -0.0642 -0.4237  0.3180
15398TIP3   OH267608   3.099   5.323  13.616  0.6053 -0.7687 -0.0582
15398TIP3    H167609   3.105   5.228  13.602 -0.3292 -0.6188 -1.6727
15398TIP3    H267610   3.177   5.359  13.574  2.4057 -0.9592  2.8457
15399TIP3   OH267611   4.389   0.919  14.357  0.2216  0.1979 -0.3221
15399TIP3    H167612   4.304   0.895  14.396  0.6836  0.7130  1.0526
15399TIP3    H267613   4.395   1.013  14.369  1.5255  0.0091  0.7735
15400TIP3   OH267614   4.081   0.211   0.868  0.9895 -0.0305  0.3459
15400TIP3    H167615   4.133   0.290   0.885 -1.6849  2.0571 -0.4053
15400TIP3    H267616   4.047   0.224   0.779 -0.9973 -1.0922  0.8847
15401TIP3   OH267617   2.344   1.920  14.456  0.6827  0.2472 -0.6886
15401TIP3    H167618   2.318   1.840  14.500  0.7521 -0.0412 -1.1620
15401TIP3    H267619   2.440   1.915  14.452  0.9373  1.5993  1.6166
15402TIP3   OH267620   6.111   6.698  16.275 -0.0699 -0.4271  0.7491
15402TIP3    H167621   6.093   6.671  16.185  0.0129  0.0304  0.5924
15402TIP3    H267622   6.196   6.660  16.295  0.4300  0.3874  0.2431
15403TIP3   OH267623   2.333   0.413  10.564  0.3768 -0.4891 -0.2728
15403TIP3    H167624   2.335   0.498  10.608 -1.6893 -1.1072  1.1527
15403TIP3    H267625   2.364   0.351  10.630 -0.1660 -1.0975 -0.5774
15404TIP3   OH267626   5.427   1.924  14.033  0.6377  0.4610 -1.0762
15404TIP3    H167627   5.378   2.000  14.065  2.3573  0.8935  0.7087
15404TIP3    H267628   5.363   1.853  14.031 -0.4455  1.3920 -0.4734
15405TIP3   OH267629   4.617   4.224  16.529 -0.4924 -0.3997  0.0634
15405TIP3    H167630   4.583   4.298  16.478  1.7221  1.0087  0.4752
15405TIP3    H267631   4.700   4.203  16.488 -2.0109 -4.3173 -1.4796
15406TIP3   OH267632   5.463   0.658   1.222 -0.4116 -0.5000 -0.2030
15406TIP3    H167633   5.550   0.620   1.233 -1.8103 -3.8360  0.3199
15406TIP3    H267634   5.404   0.598   1.268 -3.0921  1.3454 -0.9953
15407TIP3   OH267635   3.040   5.119   0.323 -0.2066  0.2930  0.2273
15407TIP3    H167636   3.112   5.098   0.264 -0.2806 -1.7390  0.7922
15407TIP3    H267637   2.961   5.098   0.274 -0.2920 -0.4782  0.6702
15408TIP3   OH267638   6.584   2.009  13.607  0.9335  0.0945  0.0203
15408TIP3    H167639   6.661   1.968  13.648  0.5411 -0.4362  0.2436
15408TIP3    H267640   6.600   2.002  13.513  0.7471 -0.8350  0.0479
15409TIP3   OH267641   3.346   0.038   3.445 -0.5083 -0.1395 -0.5768
15409TIP3    H167642   3.344   0.099   3.519  3.6864 -0.1662 -0.2158
15409TIP3    H267643   3.326   0.091   3.369 -0.9802  0.7627  0.1525
15410TIP3   OH267644   4.692   2.185  14.294  0.6066 -0.5124 -0.2177
15410TIP3    H167645   4.632   2.260  14.291 -0.6392 -1.4698 -3.0201
15410TIP3    H267646   4.770   2.214  14.246 -0.1726 -1.1198 -1.9671
15411TIP3   OH267647   2.866   3.830   1.623 -0.4770  0.2662 -0.7852
15411TIP3    H167648   2.858   3.859   1.714  0.4543  2.4819 -1.3458
15411TIP3    H267649   2.943   3.773   1.623  1.2312  2.4544 -0.6135
15412TIP3   OH267650   2.607   3.543  13.813  1.1427  0.5181 -0.0112
15412TIP3    H167651   2.586   3.459  13.853 -0.9085  1.5502  1.2878
15412TIP3    H267652   2.560   3.541  13.729  0.7326  0.4984  0.2121
15413TIP3   OH267653   4.113   2.377  12.200  0.4202 -0.3749 -0.1363
15413TIP3    H167654   4.158   2.416  12.275  0.1551 -2.8048  1.4148
15413TIP3    H267655   4.020   2.393  12.216  0.4676  1.1834 -1.2535
15414TIP3   OH267656   2.761   2.468  15.057 -0.6576 -0.0245  0.0824
15414TIP3    H167657   2.694   2.441  14.995 -0.2115  2.4209 -1.6153
15414TIP3    H267658   2.830   2.507  15.003 -0.5633  2.9101  2.0675
15415TIP3   OH267659   5.471   3.456  16.638 -0.6950 -0.4929 -0.0076
15415TIP3    H167660   5.563   3.431  16.624 -0.6019 -0.2683  0.1849
15415TIP3    H267661   5.421   3.390  16.590 -0.4107 -0.0563 -0.9144
15416TIP3   OH267662   6.114   6.058  11.908 -0.2296 -0.4448  0.3179
15416TIP3    H167663   6.126   6.016  11.994 -0.1290  0.2377  0.6431
15416TIP3    H267664   6.126   6.151  11.925 -0.3924 -0.2857 -0.4105
15417TIP3   OH267665   0.783   0.825  13.404  0.4675  0.3471 -0.1155
15417TIP3    H167666   0.842   0.830  13.329 -0.3345 -0.3366 -0.8095
15417TIP3    H267667   0.701   0.862  13.373 -0.0395 -0.4468  0.2525
15418TIP3   OH267668   3.789   4.685   4.778 -0.4080  0.2407  0.2322
15418TIP3    H167669   3.721   4.657   4.840 -1.3628  0.5401 -0.6557
15418TIP3    H267670   3.866   4.635   4.804 -1.4919 -1.6554  0.0425
15419TIP3   OH267671   2.824   3.149  13.846  0.2220 -0.5909 -0.0171
15419TIP3    H167672   2.873   3.212  13.899  0.0859  0.0718 -0.6518
15419TIP3    H267673   2.820   3.189  13.759 -0.0818 -1.3709 -0.3740
15420TIP3   OH267674   1.777   1.268  14.543  0.1006 -0.4054 -0.0170
15420TIP3    H167675   1.799   1.195  14.486 -0.5389 -0.6433  0.0371
15420TIP3    H267676   1.834   1.257  14.620  1.2969  0.1694 -0.7764
15421TIP3   OH267677   6.445   1.161  11.508 -0.8238 -0.6518 -0.2383
15421TIP3    H167678   6.466   1.121  11.423  0.8622  0.5894 -0.4593
15421TIP3    H267679   6.427   1.252  11.488  0.9811  0.0038  0.8292
15422TIP3   OH267680   3.177   1.108   5.739  0.1577 -0.7218 -0.8223
15422TIP3    H167681   3.258   1.056   5.738  0.9340  0.4546 -0.9438
15422TIP3    H267682   3.189   1.169   5.811 -1.9221 -2.4487  1.1464
15423TIP3   OH267683   0.839   3.072  16.060  0.1361  0.1199 -0.2316
15423TIP3    H167684   0.813   3.119  15.981  3.0426  0.6089 -1.0280
15423TIP3    H267685   0.918   3.024  16.035  0.5712 -0.5531  2.1082
15424TIP3   OH267686   3.109   0.197  10.510 -0.2266 -0.3864  0.2767
15424TIP3    H167687   3.166   0.121  10.510  1.0586  0.4982 -1.2880
15424TIP3    H267688   3.047   0.180  10.439  1.3022  0.8150 -1.4306
15425TIP3   OH267689   4.234   5.209   4.600 -0.0179 -0.1277 -0.3960
15425TIP3    H167690   4.146   5.243   4.581  0.1367 -0.5382 -2.0328
15425TIP3    H267691   4.227   5.115   4.582  1.0326  0.0193 -1.7348
15426TIP3   OH267692   4.614   4.024   4.055  0.3450 -0.1486 -0.3660
15426TIP3    H167693   4.584   4.079   3.982 -1.7556 -1.0961 -0.2849
15426TIP3    H267694   4.574   3.938   4.038 -0.3349 -0.3566  1.9667
15427TIP3   OH267695   5.391   3.033  10.640  0.4117 -0.3900 -0.3464
15427TIP3    H167696   5.372   3.013  10.732  1.1051 -1.4485 -0.4165
15427TIP3    H267697   5.306   3.058  10.604 -0.6181 -3.2490 -0.2058
15428TIP3   OH267698   2.987   3.136   5.897  0.3072 -0.1952  0.1743
15428TIP3    H167699   3.076   3.166   5.877 -0.7430  2.6277 -0.7048
15428TIP3    H267700   2.984   3.131   5.993  1.3195 -0.0491  0.2212
15429TIP3   OH267701   0.777   0.305   5.294  0.5187  0.0158  0.1500
15429TIP3    H167702   0.768   0.352   5.211 -0.8188 -1.9350 -0.8848
15429TIP3    H267703   0.817   0.221   5.270  1.0214 -0.2074  1.6447
15430TIP3   OH267704   6.242   4.712   5.051 -0.0389 -0.3483  0.3070
15430TIP3    H167705   6.248   4.626   5.009 -1.4881 -0.8179  0.9996
15430TIP3    H267706   6.156   4.712   5.094 -0.3549  1.6945 -0.2239
15431TIP3   OH267707   2.105   6.062  11.922  0.6679 -0.4802 -0.2044
15431TIP3    H167708   2.070   6.148  11.942 -0.0171 -1.2212  2.0286
15431TIP3    H267709   2.094   6.053  11.827 -1.4448  0.9432 -0.1587
15432TIP3   OH267710   4.710   4.697   3.615  0.3983 -0.1981 -0.2864
15432TIP3    H167711   4.782   4.650   3.656 -0.3101 -0.3021  0.8727
15432TIP3    H267712   4.735   4.789   3.621  1.2704 -0.3291 -1.5576
15433TIP3   OH267713   1.394   1.563   5.452 -0.0300 -0.7612 -0.4884
15433TIP3    H167714   1.412   1.630   5.386 -0.4896 -0.5364 -0.3882
15433TIP3    H267715   1.361   1.612   5.527 -0.0656 -1.0749 -0.2984
15434TIP3   OH267716   4.116   5.753  12.516 -0.5891  0.0612  0.0060
15434TIP3    H167717   4.181   5.702  12.564  0.9379  0.3268 -1.6484
15434TIP3    H267718   4.058   5.789  12.583 -0.2661 -1.8465  1.3921
15435TIP3   OH267719   2.532   1.361   4.378  0.0673  0.0483  0.4248
15435TIP3    H167720   2.482   1.418   4.437  1.9157 -0.5273  2.7058
15435TIP3    H267721   2.476   1.285   4.364 -1.1228  0.9876 -0.0468
15436TIP3   OH267722   1.368   1.381   1.019  0.2767 -0.4293  0.1424
15436TIP3    H167723   1.418   1.333   1.085 -0.2242 -0.3370  0.5950
15436TIP3    H267724   1.396   1.344   0.936  0.7482 -0.7032  0.4204
15437TIP3   OH267725   4.361   6.670   3.554 -0.3280  0.2251 -0.5715
15437TIP3    H167726   4.336   6.743   3.611 -1.8890  0.4227 -1.4436
15437TIP3    H267727   4.413   6.710   3.485  0.4826  0.1841  0.0019
15438TIP3   OH267728   4.728   6.292  11.362 -0.0225 -0.2086  0.1498
15438TIP3    H167729   4.702   6.327  11.276  0.3707 -1.8557 -0.6953
15438TIP3    H267730   4.652   6.308  11.418 -0.7028 -0.0218 -0.7844
15439TIP3   OH267731   5.769   3.100   5.670  0.4348  0.5276 -0.0401
15439TIP3    H167732   5.812   3.134   5.591  0.2998  2.5930  0.7452
15439TIP3    H267733   5.828   3.121   5.741  1.2396 -2.5771  0.3499
15440TIP3   OH267734   1.293   2.571  14.321  0.1931  0.0484  0.5026
15440TIP3    H167735   1.337   2.632  14.262  0.3546 -0.4820  0.0593
15440TIP3    H267736   1.201   2.571  14.293  0.0852  0.4909  0.8529
15441TIP3   OH267737   6.344   2.258   5.527 -0.1991  0.4936  0.0416
15441TIP3    H167738   6.354   2.226   5.616  0.6035  3.4353  1.1385
15441TIP3    H267739   6.429   2.241   5.486  0.8818  2.6653  1.2015
15442TIP3   OH267740   1.914   0.414  15.238  0.4525 -0.1513  0.1055
15442TIP3    H167741   1.971   0.468  15.292 -2.9537  2.9830  1.0076
15442TIP3    H267742   1.854   0.373  15.301  0.3056 -1.5724 -0.9227
15443TIP3   OH267743   5.459   0.187  15.034  0.6926  0.2239 -0.2076
15443TIP3    H167744   5.445   0.179  15.129 -3.7383  2.5723 -0.3711
15443TIP3    H267745   5.434   0.102  14.999  0.7750 -0.1639  0.6440
15444TIP3   OH267746   1.834   5.166   3.048  0.3483 -0.1249 -0.6110
15444TIP3    H167747   1.784   5.158   2.967 -1.3091 -1.9592  0.4994
15444TIP3    H267748   1.772   5.201   3.112  1.4117  0.5902  0.0619
15445TIP3   OH267749   3.644   5.430   4.717  0.1538 -0.3157  0.0493
15445TIP3    H167750   3.652   5.362   4.650 -2.6422 -0.8720  0.1312
15445TIP3    H267751   3.585   5.495   4.678 -1.6199 -0.7002  1.8807
15446TIP3   OH267752   2.437   3.640  16.786 -0.1054  0.1079  0.0075
15446TIP3    H167753   2.517   3.588  16.783  0.4351  0.8592  0.9847
15446TIP3    H267754   2.466   3.727  16.815 -1.3504  0.2064  1.0439
15447TIP3   OH267755   4.379   1.654  11.320  0.0799 -0.0809 -0.2541
15447TIP3    H167756   4.351   1.608  11.241 -0.3115  0.7695 -0.6208
15447TIP3    H267757   4.302   1.703  11.348  0.1223 -0.6377  0.8492
15448TIP3   OH267758   4.929   4.935  13.760  0.3390  0.1555 -0.0360
15448TIP3    H167759   4.853   4.960  13.812  0.2619 -1.7818  0.8900
15448TIP3    H267760   4.998   4.917  13.824  0.3130 -2.0752 -0.5582
15449TIP3   OH267761   0.493   1.424   3.186  0.3905 -0.2669 -0.0310
15449TIP3    H167762   0.489   1.517   3.163  2.5690 -0.0104  0.4158
15449TIP3    H267763   0.401   1.397   3.195 -0.2894  2.3515  1.9329
15450TIP3   OH267764   3.859   5.159   3.133 -0.1996  0.6219  0.2649
15450TIP3    H167765   3.948   5.123   3.128  0.3870  2.1661 -1.4879
15450TIP3    H267766   3.803   5.093   3.093  0.1169 -0.3533  1.3661
15451TIP3   OH267767   0.428   5.059  14.219  0.0640  0.2523  0.3846
15451TIP3    H167768   0.391   5.118  14.284 -1.0390  2.1942 -1.8304
15451TIP3    H267769   0.485   5.114  14.165  0.0008 -0.9750 -1.0293
15452TIP3   OH267770   3.303   1.471   5.147 -0.2514  0.2154  0.3606
15452TIP3    H167771   3.340   1.543   5.096  0.8300 -1.2312 -0.9975
15452TIP3    H267772   3.240   1.513   5.205  0.0304  2.1989 -0.6698
15453TIP3   OH267773   6.565   3.030   0.307  0.4070  0.2012 -0.4126
15453TIP3    H167774   6.607   2.953   0.269  1.5572  0.4145  0.3695
15453TIP3    H267775   6.474   3.024   0.278  0.3753 -1.6523 -0.0868
15454TIP3   OH267776   5.349   4.011  11.905 -0.0526 -0.5495 -0.2958
15454TIP3    H167777   5.266   3.979  11.870 -0.1681 -0.2447 -0.3098
15454TIP3    H267778   5.329   4.034  11.996  0.4547 -2.1491  0.2518
15455TIP3   OH267779   5.245   3.531  13.240  0.0754  0.2639  0.5913
15455TIP3    H167780   5.332   3.506  13.272  1.3848  3.5748  0.0006
15455TIP3    H267781   5.260   3.566  13.152 -1.9052  0.6776  0.3643
15456TIP3   OH267782   6.030   6.615  11.417  0.2824  0.1215  0.4978
15456TIP3    H167783   5.986   6.533  11.398 -0.5172  0.5471  0.4721
15456TIP3    H267784   6.028   6.663  11.334 -0.0792  0.5386  0.7419
15457TIP3   OH267785   2.265   5.256   1.406 -0.2125  0.3781  0.2911
15457TIP3    H167786   2.300   5.230   1.321 -0.7136 -1.4890  0.6266
15457TIP3    H267787   2.335   5.308   1.445  1.5125 -1.7142  0.1886
15458TIP3   OH267788   4.142   6.162  14.360  0.6468  0.3426 -0.5335
15458TIP3    H167789   4.186   6.247  14.365 -0.5483  1.0004 -0.8175
15458TIP3    H267790   4.153   6.124  14.448  0.6057  1.1041 -0.1916
15459TIP3   OH267791   2.910   3.001   2.643  0.4889  0.0089 -0.3573
15459TIP3    H167792   2.953   2.943   2.706  0.0711  0.2104  0.1243
15459TIP3    H267793   2.823   2.963   2.632  1.6441 -2.1071 -3.5490
15460TIP3   OH267794   4.321   2.974   5.855  0.4340  0.1829  0.1091
15460TIP3    H167795   4.408   3.007   5.832 -0.6390  0.9906 -3.4685
15460TIP3    H267796   4.279   3.046   5.902  0.4324  1.4329 -1.6868
15461TIP3   OH267797   2.823   1.191   3.888 -0.6363 -0.4793  0.0294
15461TIP3    H167798   2.824   1.132   3.962 -0.4771 -1.6043 -0.8448
15461TIP3    H267799   2.730   1.200   3.865 -0.5932 -1.2277 -0.4714
15462TIP3   OH267800   4.309   1.624   4.371 -0.1250 -0.2259 -0.6350
15462TIP3    H167801   4.391   1.618   4.420  0.1190 -0.4556 -1.0666
15462TIP3    H267802   4.287   1.717   4.372 -0.1180 -0.2277 -0.0994
15463TIP3   OH267803   1.709   1.985   2.032  0.0660  0.3226  0.7055
15463TIP3    H167804   1.735   1.894   2.021  0.1290  0.3142  0.9106
15463TIP3    H267805   1.776   2.035   1.986 -0.4723  0.2271 -0.2069
15464TIP3   OH267806   5.517   5.585  13.095 -0.3759 -0.1559 -0.2254
15464TIP3    H167807   5.444   5.601  13.156 -1.5675  0.3554 -1.7115
15464TIP3    H267808   5.474   5.572  13.010  1.3460  4.1233 -2.0177
15465TIP3   OH267809   4.478   3.855   6.529  0.6334 -0.4131 -0.3792
15465TIP3    H167810   4.439   3.943   6.527  0.0979 -0.6414 -0.2301
15465TIP3    H267811   4.525   3.852   6.612  2.3798  0.4474 -1.2822
15466TIP3   OH267812   1.503   5.252  13.076 -0.5991 -0.0432  0.2019
15466TIP3    H167813   1.469   5.316  13.139  0.0693 -0.3102  0.8380
15466TIP3    H267814   1.594   5.279  13.062 -0.4629 -0.5635  0.0915
15467TIP3   OH267815   2.275   3.395   5.464  0.5160  0.6578 -0.6391
15467TIP3    H167816   2.187   3.377   5.434 -0.0918  2.0576  0.2066
15467TIP3    H267817   2.280   3.352   5.550  0.2665  1.4945 -0.1972
15468TIP3   OH267818   0.214   3.974   1.656  0.3573 -0.0104  0.8275
15468TIP3    H167819   0.186   3.930   1.576 -0.9370  1.0634  0.6507
15468TIP3    H267820   0.253   4.056   1.625 -1.1726  0.9365  1.2998
15469TIP3   OH267821   0.651   4.280   1.539  0.1761  0.0667 -0.4376
15469TIP3    H167822   0.730   4.289   1.593 -0.9954 -0.1333  1.3787
15469TIP3    H267823   0.639   4.366   1.500  0.5775  0.4740  0.3107
15470TIP3   OH267824   0.483   4.509   2.715 -0.1309 -0.2250  0.0793
15470TIP3    H167825   0.471   4.599   2.744 -0.3605  0.1799 -1.1934
15470TIP3    H267826   0.468   4.456   2.793  1.8561  0.9031  1.3230
15471TIP3   OH267827   6.681   2.775  12.658 -0.3198  0.1140  0.0615
15471TIP3    H167828   6.736   2.833  12.711  1.3505 -0.5228 -0.9010
15471TIP3    H267829   6.666   2.699  12.713  1.4059 -0.5439 -0.3056
15472TIP3   OH267830   1.626   1.455   2.247 -0.6510  0.4615  0.2977
15472TIP3    H167831   1.620   1.538   2.200  2.4578  0.9950  0.6148
15472TIP3    H267832   1.715   1.424   2.231 -1.4537 -2.4688  0.8259
15473TIP3   OH267833   4.109   2.551  14.836  0.1291  0.0023 -0.1689
15473TIP3    H167834   4.015   2.536  14.849  0.4136 -1.0379  0.9234
15473TIP3    H267835   4.122   2.643  14.859 -0.4782 -0.1114  0.6934
15474TIP3   OH267836   5.673   6.704   2.253  0.0562  0.0401 -0.1082
15474TIP3    H167837   5.647   6.714   2.345 -0.7682  1.6148 -0.4798
15474TIP3    H267838   5.600   6.741   2.204  0.6234 -0.5052 -1.4006
15475TIP3   OH267839   5.976   5.535  14.050 -0.1096 -0.5738 -0.1756
15475TIP3    H167840   6.049   5.586  14.013  0.1555  0.8604  2.1439
15475TIP3    H267841   5.996   5.445  14.026  1.0684  0.0610 -1.7717
15476TIP3   OH267842   5.188   4.850  13.190  0.7770 -0.1190 -0.2649
15476TIP3    H167843   5.175   4.924  13.250  1.1130 -0.4986  0.2907
15476TIP3    H267844   5.269   4.871  13.143  1.2105 -0.4024  0.3281
15477TIP3   OH267845   0.679   5.348   2.485  0.1974 -0.8192  0.3431
15477TIP3    H167846   0.630   5.389   2.557  0.3053 -1.0497  0.5512
15477TIP3    H267847   0.770   5.351   2.515  0.6100  1.4201 -0.8854
15478TIP3   OH267848   3.998   5.454   5.350  0.2793  0.1564  0.2131
15478TIP3    H167849   4.031   5.456   5.260 -1.0818  0.6535 -0.2995
15478TIP3    H267850   3.914   5.409   5.344  0.3360 -0.1305  1.3142
15479TIP3   OH267851   4.909   2.133  12.076  0.8529 -0.5798 -0.3386
15479TIP3    H167852   4.890   2.153  12.168  0.8650 -0.9344 -0.2540
15479TIP3    H267853   4.844   2.182  12.026  1.9314  1.0084 -0.2398
15480TIP3   OH267854   2.049   3.050   0.385  0.4106  0.5994 -0.1934
15480TIP3    H167855   2.040   3.059   0.480 -0.0099 -2.2273  0.1357
15480TIP3    H267856   1.965   3.080   0.350 -0.1559 -0.1232  0.5135
15481TIP3   OH267857   2.990   1.297  11.289  0.4483  0.3431 -0.3537
15481TIP3    H167858   2.900   1.332  11.288  0.6345  0.8785  0.4792
15481TIP3    H267859   3.012   1.286  11.197 -0.6355 -0.2289 -0.5699
15482TIP3   OH267860   5.435   3.394   5.677  0.0783 -0.5413 -0.6919
15482TIP3    H167861   5.346   3.404   5.711 -0.5068  0.5097 -2.3843
15482TIP3    H267862   5.450   3.299   5.675 -2.6180 -1.0895 -4.0654
15483TIP3   OH267863   4.579   3.045   0.264  0.0151 -0.3804  0.4554
15483TIP3    H167864   4.629   3.125   0.247 -0.4501 -0.0199  0.7331
15483TIP3    H267865   4.597   3.024   0.355 -0.1008 -0.4244  0.4684
15484TIP3   OH267866   6.184   2.551   3.508 -0.0277  0.2497 -0.4096
15484TIP3    H167867   6.093   2.520   3.509 -0.0961  0.3981 -1.4685
15484TIP3    H267868   6.204   2.567   3.600 -1.2794  0.7818 -0.2073
15485TIP3   OH267869   5.888   0.685   4.056 -0.0267  0.0062  0.8714
15485TIP3    H167870   5.793   0.695   4.047  0.1202  0.2599 -0.6446
15485TIP3    H267871   5.899   0.615   4.120 -1.2428 -0.3672  0.6980
15486TIP3   OH267872   1.010   0.759  17.079  0.0518 -0.7266  0.3723
15486TIP3    H167873   1.028   0.838  17.130 -1.3932 -0.7777  0.9897
15486TIP3    H267874   1.083   0.701  17.098 -0.4568 -0.7490  2.4207
15487TIP3   OH267875   0.991   3.893   6.598 -0.3621 -0.2528 -0.7300
15487TIP3    H167876   0.928   3.963   6.614  0.8523  0.6440  0.3234
15487TIP3    H267877   1.061   3.934   6.548  1.0897 -0.2612  1.1678
15488TIP3   OH267878   0.121   1.004   3.036 -0.1366 -0.2399 -0.5756
15488TIP3    H167879   0.217   1.001   3.038 -0.1118 -0.5178 -1.4399
15488TIP3    H267880   0.095   1.012   3.128  0.7120 -0.2186 -0.3261
15489TIP3   OH267881   6.111   3.506  10.639  0.4166 -0.1568 -0.3146
15489TIP3    H167882   6.048   3.504  10.712  0.6097  1.0644 -0.1005
15489TIP3    H267883   6.194   3.481  10.679  0.3700 -0.2706 -0.2865
15490TIP3   OH267884   5.374   1.357  13.835 -0.3064 -0.6467  0.0230
15490TIP3    H167885   5.385   1.409  13.914 -1.6289 -1.1200  0.5537
15490TIP3    H267886   5.463   1.341  13.804  0.4258 -2.2747  2.6332
15491TIP3   OH267887   5.208   3.074   2.614 -0.5568  0.0919 -0.3208
15491TIP3    H167888   5.261   3.107   2.687 -1.1468 -1.8868  1.0699
15491TIP3    H267889   5.177   3.153   2.570  0.6082  1.3414  0.9855
15492TIP3   OH267890   5.489   4.393  11.254  0.0287  0.0958 -0.6569
15492TIP3    H167891   5.525   4.479  11.232  0.9957 -0.6657 -2.2318
15492TIP3    H267892   5.421   4.378  11.189  0.7720 -0.8676 -1.2373
15493TIP3   OH267893   2.357   0.849  11.897 -0.0764  0.1227  0.3983
15493TIP3    H167894   2.443   0.808  11.905  0.4921  0.9852 -0.9834
15493TIP3    H267895   2.299   0.795  11.952  0.8390 -1.8769 -0.5149
15494TIP3   OH267896   1.760   1.621   1.854 -0.9014  0.1970  0.2303
15494TIP3    H167897   1.808   1.551   1.809 -0.8361  1.4281 -1.7267
15494TIP3    H267898   1.828   1.680   1.886 -1.0257  0.5685 -0.1882
15495TIP3   OH267899   4.920   1.874   4.369  0.3705 -1.2399  0.0555
15495TIP3    H167900   4.904   1.790   4.412 -0.2814 -1.6466 -0.9363
15495TIP3    H267901   5.010   1.870   4.338  0.0109 -2.0241 -0.9280
15496TIP3   OH267902   4.006   5.860   2.197  0.2103  0.2105 -0.2461
15496TIP3    H167903   3.932   5.905   2.156  0.6008  0.5011 -0.6373
15496TIP3    H267904   4.032   5.918   2.269 -0.8526 -0.5820  0.8182
15497TIP3   OH267905   1.599   5.696   5.611 -0.1857 -0.2361 -0.0160
15497TIP3    H167906   1.641   5.772   5.651  0.4383 -1.6889  2.2341
15497TIP3    H267907   1.551   5.654   5.683 -3.6888  0.0284 -1.9377
15498TIP3   OH267908   5.949   1.682   4.591  0.0754 -0.1140 -0.2391
15498TIP3    H167909   5.938   1.620   4.519 -0.6403 -0.8687  0.4933
15498TIP3    H267910   5.936   1.768   4.551 -0.8980 -0.5527 -0.9094
15499TIP3   OH267911   6.674   1.548   1.501 -0.6863  0.3142 -0.6029
15499TIP3    H167912   6.645   1.463   1.535  0.3240 -0.7076 -2.1478
15499TIP3    H267913   6.691   1.601   1.580 -2.2385 -0.5703  0.3734
15500TIP3   OH267914   2.937   0.426  12.343 -0.4866 -0.3767  0.1733
15500TIP3    H167915   2.861   0.392  12.296 -0.9402  0.5399  0.2322
15500TIP3    H267916   2.972   0.349  12.389  0.0509 -1.3276 -1.7285
15501TIP3   OH267917   2.806   1.447   0.509 -0.0949  0.3027 -0.2354
15501TIP3    H167918   2.879   1.431   0.450 -0.7773  0.2854 -1.0823
15501TIP3    H267919   2.731   1.465   0.452 -0.4859  1.5540  0.6261
15502TIP3   OH267920   1.713   5.982   4.011  0.2461  0.2777 -0.1609
15502TIP3    H167921   1.702   5.894   4.048  1.0273 -0.2675 -1.1736
15502TIP3    H267922   1.807   5.996   4.010  0.1998  0.5901 -1.1951
15503TIP3   OH267923   4.402   5.192  14.614  0.1010 -0.1377  0.2734
15503TIP3    H167924   4.341   5.212  14.544 -0.7962 -1.0746  0.7688
15503TIP3    H267925   4.433   5.103  14.596  1.9380  0.5757 -0.3869
15504TIP3   OH267926   5.841   1.149   2.837 -0.0938 -0.2678  0.1503
15504TIP3    H167927   5.875   1.212   2.900  0.6937 -0.1212 -0.4110
15504TIP3    H267928   5.887   1.168   2.755 -1.2258 -0.3359 -0.5335
15505TIP3   OH267929   5.295   2.358   4.999  0.4824 -0.0465 -0.4494
15505TIP3    H167930   5.300   2.327   5.090  0.8873 -0.1407 -0.5045
15505TIP3    H267931   5.386   2.369   4.972  0.3960 -1.0224 -1.1870
15506TIP3   OH267932   0.349   4.941  13.768 -0.5977  0.4434  0.5535
15506TIP3    H167933   0.357   4.918  13.676 -2.8341  0.2781  0.3433
15506TIP3    H267934   0.388   5.028  13.775 -1.5129  0.9865 -0.8131
15507TIP3   OH267935   1.448   4.257  16.332 -0.7247  0.0152  0.1155
15507TIP3    H167936   1.541   4.281  16.332 -0.7187  0.0038  0.4836
15507TIP3    H267937   1.439   4.199  16.407 -1.3690  1.3854  1.1400
15508TIP3   OH267938   0.131   3.717  11.810  0.3646 -0.2126  0.2146
15508TIP3    H167939   0.141   3.782  11.880  1.7734  0.3899 -0.5109
15508TIP3    H267940   0.190   3.646  11.834  0.6021 -0.1547 -0.1872
15509TIP3   OH267941   1.087   1.434  12.164 -0.1733 -0.0120  0.1924
15509TIP3    H167942   1.138   1.400  12.237 -0.7738  0.0527  0.6569
15509TIP3    H267943   0.999   1.398  12.178 -0.4548  0.5406 -0.1263
15510TIP3   OH267944   3.036   6.269  16.209  0.2453 -0.2188 -0.0837
15510TIP3    H167945   2.961   6.294  16.156  0.9924  0.8685 -0.6827
15510TIP3    H267946   3.003   6.265  16.299 -0.3825  0.9154 -0.2540
15511TIP3   OH267947   4.975   6.439  12.030  0.3766 -0.4427  0.0577
15511TIP3    H167948   4.933   6.378  12.091  0.0927  0.6817  1.0277
15511TIP3    H267949   4.918   6.438  11.953  0.9127 -2.1226 -0.3705
15512TIP3   OH267950   3.182   5.512  12.350  0.1464 -0.4088 -0.3861
15512TIP3    H167951   3.089   5.493  12.337  0.0165 -2.6237  2.7285
15512TIP3    H267952   3.199   5.489  12.441  3.2978  2.1154 -0.1554
15513TIP3   OH267953   6.056   4.567  12.799 -0.1954  0.1215 -0.3368
15513TIP3    H167954   6.014   4.629  12.739  1.6355  1.6616 -0.1658
15513TIP3    H267955   6.119   4.621  12.848  0.8364 -1.7302  0.4934
15514TIP3   OH267956   1.316   3.207   4.712  0.2019 -0.2492  0.0321
15514TIP3    H167957   1.237   3.256   4.687  0.8862  1.7035  1.3893
15514TIP3    H267958   1.352   3.175   4.629 -1.8317 -0.9384 -0.6401
15515TIP3   OH267959   1.126   0.274  13.606  0.3366 -0.2480 -0.4843
15515TIP3    H167960   1.073   0.222  13.545  0.4442  0.4807 -1.2291
15515TIP3    H267961   1.214   0.271  13.570  0.1258  1.4038 -1.2302
15516TIP3   OH267962   6.445   2.490   4.449 -0.0018  0.1540  0.4917
15516TIP3    H167963   6.464   2.401   4.420 -0.5571  0.1661  0.0716
15516TIP3    H267964   6.506   2.545   4.401 -1.1585  0.2090 -0.9766
15517TIP3   OH267965   0.002   0.437   2.568 -0.1845 -0.1997 -0.6373
15517TIP3    H167966   0.005   0.343   2.589  0.1930  0.2085  1.3742
15517TIP3    H267967  -0.090   0.455   2.549 -0.5126 -0.7362  0.3441
15518TIP3   OH267968   0.900   2.688   3.588 -0.6360 -0.0911  0.1115
15518TIP3    H167969   0.856   2.609   3.620  0.8640  0.2937  3.6224
15518TIP3    H267970   0.848   2.760   3.624  0.0315  0.4482  0.0197
15519TIP3   OH267971   2.665   1.671   0.631 -0.0936  0.4632 -0.7158
15519TIP3    H167972   2.679   1.715   0.715  1.9621  1.1737 -1.3828
15519TIP3    H267973   2.718   1.591   0.636 -0.6268  0.0770 -1.0446
15520TIP3   OH267974   4.007   5.621  16.415 -0.1336 -0.5506  0.1009
15520TIP3    H167975   3.916   5.616  16.446 -0.6623  0.4331 -1.2187
15520TIP3    H267976   4.040   5.532  16.424 -1.4530 -1.0808 -0.0561
15521TIP3   OH267977   4.971   3.581   0.023 -0.2149 -0.0622  0.0740
15521TIP3    H167978   5.067   3.581   0.016 -0.1498  1.4873  0.6243
15521TIP3    H267979   4.953   3.619   0.109 -1.3391  0.8530 -0.5414
15522TIP3   OH267980   0.286   4.903   4.519  0.5808  0.0702 -0.1341
15522TIP3    H167981   0.235   4.982   4.498  0.4400 -0.4829 -1.9985
15522TIP3    H267982   0.309   4.914   4.611 -0.7908  1.5310  0.0815
15523TIP3   OH267983   0.678   1.223   2.068  0.0559 -0.1990 -0.2065
15523TIP3    H167984   0.763   1.231   2.025 -0.1023 -0.5468 -0.5974
15523TIP3    H267985   0.673   1.298   2.126  0.5057 -0.0148 -0.4009
15524TIP3   OH267986   2.827   2.223  15.147  0.2258 -0.1804 -0.5384
15524TIP3    H167987   2.825   2.311  15.108  0.0123 -0.9386 -2.3523
15524TIP3    H267988   2.744   2.216  15.194  0.7732  1.0054  0.6561
15525TIP3   OH267989   3.433   4.461   4.854  0.3016 -0.1788 -0.2387
15525TIP3    H167990   3.406   4.369   4.854  1.3704 -0.5290  1.2493
15525TIP3    H267991   3.459   4.479   4.764  0.8830 -1.5938 -0.3812
15526TIP3   OH267992   4.129   0.335  16.523  0.0124 -0.8843 -0.2411
15526TIP3    H167993   4.188   0.260  16.524  1.0649 -0.0992 -0.9858
15526TIP3    H267994   4.151   0.381  16.442 -0.3175  0.4407  0.3988
15527TIP3   OH267995   3.567   1.476  12.229 -0.5967  0.2509  0.5219
15527TIP3    H167996   3.642   1.433  12.190 -0.1060  1.4249  0.1135
15527TIP3    H267997   3.493   1.418  12.211  0.2250 -0.9714  1.0362
15528TIP3   OH267998   4.395   6.152  16.047 -1.0424 -0.7838 -0.1953
15528TIP3    H167999   4.340   6.131  16.122  0.3415 -2.4695  0.4118
15528TIP3    H268000   4.484   6.133  16.076 -0.1592  1.3070 -1.3340
15529TIP3   OH268001   1.362   2.745   2.604  0.3110 -0.1578 -0.2953
15529TIP3    H168002   1.289   2.726   2.544  0.8069 -2.2515 -0.3125
15529TIP3    H268003   1.440   2.743   2.548  0.6193 -0.5113  0.1435
15530TIP3   OH268004   2.811   2.620  12.781  0.1322  0.2978  0.1290
15530TIP3    H168005   2.846   2.687  12.722  1.5814  0.8033  1.4947
15530TIP3    H268006   2.840   2.647  12.868  2.3504 -2.9715  0.6177
15531TIP3   OH268007   2.816   5.527  12.709  0.1863  0.0945  0.3389
15531TIP3    H168008   2.877   5.470  12.663  0.6096  0.5803  0.2792
15531TIP3    H268009   2.730   5.506  12.672 -0.0301 -2.1229  1.9341
15532TIP3   OH268010   5.955   6.437  16.904 -0.4662 -0.1523 -0.3551
15532TIP3    H168011   5.897   6.403  16.837 -1.3761  1.7742 -0.5881
15532TIP3    H268012   5.898   6.483  16.965  0.5376 -0.4313  0.8401
15533TIP3   OH268013   2.062   5.066  17.110  0.4946  0.1277 -0.1678
15533TIP3    H168014   2.010   5.043  17.187 -2.1780  0.3872 -1.7608
15533TIP3    H268015   2.036   5.156  17.090  2.5918  0.7528 -0.3154
15534TIP3   OH268016   5.665   1.220   5.303 -0.2307  0.7626  0.7254
15534TIP3    H168017   5.696   1.283   5.238  0.4744 -2.6757 -2.6314
15534TIP3    H268018   5.582   1.255   5.333 -0.8683  2.3906 -2.4749
15535TIP3   OH268019   6.758   5.410  13.292 -0.1560 -0.4890 -0.2738
15535TIP3    H168020   6.698   5.374  13.227 -0.7502  0.8203 -0.4869
15535TIP3    H268021   6.759   5.504  13.274 -1.2903  0.1196  2.3550
15536TIP3   OH268022   1.116   4.255  13.717 -0.1362 -0.1530  0.5309
15536TIP3    H168023   1.202   4.267  13.677  0.5238 -0.3329  1.8364
15536TIP3    H268024   1.094   4.163  13.699  0.5850 -0.4989  1.3811
15537TIP3   OH268025   1.704   0.271   1.231 -0.2007 -0.9875 -0.5044
15537TIP3    H168026   1.710   0.177   1.251 -0.5504 -0.5314  1.9802
15537TIP3    H268027   1.612   0.285   1.209 -0.8912 -0.7234  2.2791
15538TIP3   OH268028   1.274   6.671  15.371 -0.0676  0.1534  0.0841
15538TIP3    H168029   1.355   6.722  15.374  0.0339 -0.0357  1.8834
15538TIP3    H268030   1.212   6.725  15.322  0.6173  1.1287  0.2685
15539TIP3   OH268031   3.691   5.945  13.485  0.2621  0.0038  0.2765
15539TIP3    H168032   3.782   5.925  13.508  0.0841  0.4894  1.4847
15539TIP3    H268033   3.698   6.007  13.412  0.8921 -0.2265  0.1360
15540TIP3   OH268034   1.440   0.827   1.049  0.2109  0.6442  0.2484
15540TIP3    H168035   1.460   0.755   0.988 -0.9087  0.6715 -0.1749
15540TIP3    H268036   1.516   0.885   1.042  0.0595  0.7189 -1.2353
15541TIP3   OH268037   3.787   4.821  10.492 -0.4216  0.4803 -0.1273
15541TIP3    H168038   3.839   4.869  10.427  0.3078  1.8608  1.3920
15541TIP3    H268039   3.733   4.888  10.533  0.3549 -0.0222  1.8154
15542TIP3   OH268040   5.275   6.141  15.873 -0.5710  0.2736 -0.5823
15542TIP3    H168041   5.369   6.156  15.872 -0.3361 -0.6119  1.9576
15542TIP3    H268042   5.241   6.209  15.932 -1.4243  0.0216 -0.7695
15543TIP3   OH268043   2.162   4.943   6.273  0.0597  0.6766 -0.1822
15543TIP3    H168044   2.159   5.036   6.254  0.0730  0.8398  0.5723
15543TIP3    H268045   2.071   4.920   6.295  0.3921  0.9827  1.6915
15544TIP3   OH268046   5.438   1.581   1.392 -0.1272  0.3539 -0.3589
15544TIP3    H168047   5.428   1.625   1.308 -0.7428  1.4993  0.2773
15544TIP3    H268048   5.375   1.509   1.390 -1.6849  1.6549 -0.1004
15545TIP3   OH268049   2.396   5.248   4.332 -0.2201  0.0257 -0.4417
15545TIP3    H168050   2.439   5.227   4.415  1.2091 -1.2030 -1.4177
15545TIP3    H268051   2.451   5.316   4.293 -0.7463  0.4230 -0.4995
15546TIP3   OH268052   2.465   5.061   5.847 -0.1367 -0.0898 -0.2012
15546TIP3    H168053   2.433   4.975   5.820 -0.3479 -0.0458 -0.0939
15546TIP3    H268054   2.409   5.085   5.921 -2.7771  1.8699 -2.5997
15547TIP3   OH268055   4.289   0.832  11.716  0.3540  0.0262 -0.8118
15547TIP3    H168056   4.364   0.786  11.678  0.6090  0.6056 -1.0285
15547TIP3    H268057   4.323   0.870  11.797  0.9806  2.2164 -2.0023
15548TIP3   OH268058   2.231   3.624  15.417 -0.8236 -0.1018 -0.3553
15548TIP3    H168059   2.193   3.546  15.379  0.0139  0.1239 -1.7226
15548TIP3    H268060   2.324   3.602  15.430 -0.8503  0.2292  0.4790
15549TIP3   OH268061   4.825   4.292  11.841  0.0851  0.3748 -0.1781
15549TIP3    H168062   4.864   4.261  11.923 -0.3460 -2.2101 -0.8623
15549TIP3    H268063   4.770   4.366  11.868  0.7143  0.2193  1.7142
15550TIP3   OH268064   2.135   5.435  16.229  0.0377 -0.2835 -0.6256
15550TIP3    H168065   2.040   5.423  16.238 -0.0040 -0.4025 -1.1942
15550TIP3    H268066   2.144   5.490  16.151  0.4626 -0.6582 -0.8411
15551TIP3   OH268067   4.466   6.341  14.313  0.1950  0.4333 -0.0069
15551TIP3    H168068   4.490   6.369  14.224 -0.5910 -0.0013 -0.3635
15551TIP3    H268069   4.380   6.380  14.328 -1.0755 -1.9636 -0.6278
15552TIP3   OH268070   3.601   1.710   5.084  0.1512 -0.0539 -0.3165
15552TIP3    H168071   3.510   1.693   5.060 -0.7750  0.5953  2.3427
15552TIP3    H268072   3.628   1.780   5.025 -1.1775 -0.0445 -0.9615
15553TIP3   OH268073   4.752   1.897   2.666 -0.1796 -0.0179 -0.6836
15553TIP3    H168074   4.819   1.934   2.723 -0.2344 -2.0088  0.7971
15553TIP3    H268075   4.679   1.877   2.724 -1.7755  1.3499 -2.1322
15554TIP3   OH268076   0.851   6.098  13.561 -0.2631 -0.4208 -0.4574
15554TIP3    H168077   0.856   6.190  13.537  0.5341 -0.5126 -0.6848
15554TIP3    H268078   0.758   6.082  13.577 -0.4705  0.2943 -0.9077
15555TIP3   OH268079   2.108   0.067   3.452  0.2679 -0.0468 -0.2499
15555TIP3    H168080   2.077   0.158   3.448  0.1602 -0.1176 -1.3383
15555TIP3    H268081   2.028   0.015   3.463  0.2195 -0.0746 -0.7100
15556TIP3   OH268082   4.129   3.032   4.668 -0.3064  0.8442 -0.3343
15556TIP3    H168083   4.069   3.062   4.600 -1.0560  0.3966  0.1099
15556TIP3    H268084   4.074   2.981   4.728 -0.3838  3.7320  2.3223
15557TIP3   OH268085   4.763   1.105   4.566  0.2424  0.1144  0.3017
15557TIP3    H168086   4.707   1.052   4.623 -0.9816  0.7116 -0.2933
15557TIP3    H268087   4.775   1.052   4.487  0.0037  0.2192  0.1914
15558TIP3   OH268088   4.619   2.694   4.715  0.4793  0.2200 -0.1046
15558TIP3    H168089   4.635   2.734   4.800 -0.4404  1.3307 -0.4211
15558TIP3    H268090   4.705   2.664   4.685  0.6357 -1.3588  1.7473
15559TIP3   OH268091   0.742   5.147   0.714 -0.2127 -0.7802 -0.2861
15559TIP3    H168092   0.728   5.169   0.806 -0.3420  0.2060 -0.5268
15559TIP3    H268093   0.655   5.147   0.675  0.0279  1.4867 -0.9598
15560TIP3   OH268094   2.386   4.815   5.312 -0.9143  1.0741 -0.2217
15560TIP3    H168095   2.475   4.796   5.282 -0.9231  1.8927 -0.8217
15560TIP3    H268096   2.338   4.734   5.299 -0.7699  1.2231 -1.9415
15561TIP3   OH268097   3.187   3.764  15.707 -0.4724  0.0915 -0.4716
15561TIP3    H168098   3.127   3.778  15.781  1.5199 -1.2810  1.5157
15561TIP3    H268099   3.234   3.847  15.698  1.3348 -0.5936  1.8446
15562TIP3   OH268100   1.884   6.797  15.798  0.3838 -0.1072 -0.1280
15562TIP3    H168101   1.877   6.870  15.860  0.4606  0.1141 -0.3780
15562TIP3    H268102   1.819   6.816  15.731  0.3833 -0.2851 -0.1771
15563TIP3   OH268103   0.865   6.232  12.587 -0.0189  0.0435  0.1390
15563TIP3    H168104   0.946   6.185  12.607 -1.0833 -2.1760 -0.3371
15563TIP3    H268105   0.892   6.323  12.575  2.4665 -0.6669 -0.3725
15564TIP3   OH268106   1.226   3.683  13.045  0.2491 -0.2652 -0.3295
15564TIP3    H168107   1.238   3.757  12.984  0.2464  0.9997  1.1511
15564TIP3    H268108   1.139   3.649  13.025 -0.0042  0.5339 -0.6302
15565TIP3   OH268109   6.156   4.845   2.163  0.2699  0.2237 -0.1897
15565TIP3    H168110   6.079   4.826   2.109  2.1843  0.1048 -3.1026
15565TIP3    H268111   6.170   4.939   2.154 -0.4918  0.5845  1.8324
15566TIP3   OH268112   5.242   6.583   2.293  0.1590 -0.5091 -0.3936
15566TIP3    H168113   5.204   6.609   2.377  0.6840 -1.5294  0.1801
15566TIP3    H268114   5.188   6.628   2.228 -1.0355 -0.6621  0.4437
15567TIP3   OH268115   5.737   5.756   5.418  0.2732  0.3988 -0.2648
15567TIP3    H168116   5.684   5.773   5.496  0.0468  0.1186 -0.3527
15567TIP3    H268117   5.673   5.750   5.347  0.6125  2.3890 -0.7888
15568TIP3   OH268118   6.037   1.743  12.508 -0.1538  0.1793  0.4896
15568TIP3    H168119   5.989   1.747  12.425 -1.3811  3.1225  1.1744
15568TIP3    H268120   6.128   1.761  12.485 -0.2976 -0.0934 -0.3095
15569TIP3   OH268121   2.762   6.730   5.135  0.4434  0.7839  0.5103
15569TIP3    H168122   2.734   6.779   5.057  1.3305 -0.5907 -0.7332
15569TIP3    H268123   2.855   6.712   5.120  0.2722 -0.7949  1.1513
15570TIP3   OH268124   5.037   3.065  12.389  0.1650  0.2417 -0.4852
15570TIP3    H168125   5.078   3.128  12.330 -2.0092  0.9129 -1.3706
15570TIP3    H268126   4.969   3.023  12.336 -0.8748 -0.2022  1.1275
15571TIP3   OH268127   2.968   5.531   4.684 -0.5545 -0.1772 -0.2088
15571TIP3    H168128   3.004   5.450   4.721  0.8034 -0.0428 -1.1325
15571TIP3    H268129   2.885   5.505   4.645 -0.0765 -1.1701 -0.6089
15572TIP3   OH268130   5.610   4.094   5.421 -0.5125  0.4029 -0.6567
15572TIP3    H168131   5.566   4.100   5.336 -1.9083  1.3189  0.1170
15572TIP3    H268132   5.610   4.183   5.455 -0.6545 -0.0803  0.6508
15573TIP3   OH268133   0.094   1.431  13.632 -0.5433  0.4952 -0.8020
15573TIP3    H168134   0.064   1.439  13.541 -2.1084  0.7290 -0.2910
15573TIP3    H268135   0.024   1.382  13.676  0.7390 -0.6714  0.0377
15574TIP3   OH268136   2.334   2.835   5.797  0.0524 -0.3000 -0.5585
15574TIP3    H168137   2.253   2.884   5.783  0.1197 -0.2403 -0.7507
15574TIP3    H268138   2.335   2.772   5.725  0.6036  0.2706 -1.0578
15575TIP3   OH268139   4.553   0.573  16.653 -0.0168  0.1123  0.3431
15575TIP3    H168140   4.605   0.568  16.734 -1.2559  0.2004  1.1698
15575TIP3    H268141   4.465   0.547  16.680 -0.4469  0.1428 -0.9919
15576TIP3   OH268142   1.546   3.315  14.807  0.0099  0.2523 -0.4107
15576TIP3    H168143   1.562   3.340  14.716 -0.1994  1.7606 -0.0584
15576TIP3    H268144   1.463   3.268  14.805 -1.3970  2.5744 -0.7003
15577TIP3   OH268145   6.564   6.297  16.104 -0.3358 -0.1179 -0.1393
15577TIP3    H168146   6.658   6.314  16.110  0.0152 -1.5449 -1.1773
15577TIP3    H268147   6.529   6.370  16.052  0.3375 -0.0024 -0.4339
15578TIP3   OH268148   1.922   1.791   4.876  0.2142 -0.2316  0.7360
15578TIP3    H168149   1.974   1.745   4.942  0.1117  0.1503  1.0870
15578TIP3    H268150   1.853   1.729   4.852  1.3647 -1.1210 -0.4402
15579TIP3   OH268151   1.026   3.551   5.855  0.3284 -0.2883  0.5565
15579TIP3    H168152   1.089   3.481   5.835  0.7248  0.4565 -0.9747
15579TIP3    H268153   0.969   3.514   5.922  1.6002 -1.4514  1.0381
15580TIP3   OH268154   2.912   4.621  11.470  0.2390  0.0534 -0.1014
15580TIP3    H168155   2.922   4.656  11.559  0.8721  0.1355 -0.2041
15580TIP3    H268156   2.901   4.699  11.415 -2.0406 -0.0317  0.1068
15581TIP3   OH268157   3.882   1.023  12.905 -0.1016 -0.7232 -0.4771
15581TIP3    H168158   3.955   1.082  12.885 -0.9316 -0.2101 -2.1969
15581TIP3    H268159   3.856   1.047  12.994  1.7527 -0.8852  0.1631
15582TIP3   OH268160   6.388   3.825   4.314  0.5664 -0.1219  0.6193
15582TIP3    H168161   6.483   3.834   4.323  0.5357  0.6680  0.2546
15582TIP3    H268162   6.357   3.914   4.295 -0.1608 -0.5041 -0.0541
15583TIP3   OH268163   2.005   3.522   7.039  0.1538  0.1605 -0.3689
15583TIP3    H168164   1.937   3.472   7.084  0.1455  1.8427  1.6003
15583TIP3    H268165   2.082   3.465   7.040 -0.9847 -1.5209 -2.0889
15584TIP3   OH268166   2.194   0.299   5.635 -0.2159 -0.3603  0.8682
15584TIP3    H168167   2.248   0.230   5.674 -0.1751 -0.4310  0.6858
15584TIP3    H268168   2.138   0.329   5.707  0.8273  0.4741  1.3606
15585TIP3   OH268169   2.110   0.468  16.286 -0.8207  0.2631  0.1496
15585TIP3    H168170   2.045   0.432  16.225 -1.4634  0.5364  0.6670
15585TIP3    H268171   2.084   0.436  16.372 -0.1925  0.2741  0.3513
15586TIP3   OH268172   1.334   5.988   0.639  0.4762 -0.2836  0.5829
15586TIP3    H168173   1.393   5.980   0.714  1.5330 -2.3938 -0.3939
15586TIP3    H268174   1.382   6.043   0.577  0.4522 -0.1678  0.6667
15587TIP3   OH268175   4.897   5.409  15.610 -0.1849  0.0370 -0.4565
15587TIP3    H168176   4.904   5.500  15.639  0.8790  0.2154 -1.1869
15587TIP3    H268177   4.853   5.364  15.682 -0.6783  1.1158 -0.0601
15588TIP3   OH268178   2.887   1.269   5.532 -0.6175 -0.6123  0.3799
15588TIP3    H168179   2.842   1.315   5.603 -0.0641 -0.7732  0.8433
15588TIP3    H268180   2.896   1.179   5.563  0.0721 -0.5693  0.3197
15589TIP3   OH268181   2.968   1.325  13.536  0.6122 -0.1194 -0.3017
15589TIP3    H168182   2.954   1.377  13.615  0.3959  0.9878 -1.0444
15589TIP3    H268183   2.952   1.235  13.563 -0.8382  0.3752  0.6039
15590TIP3   OH268184   6.249   1.394   3.166  0.0390  0.0847 -0.5535
15590TIP3    H168185   6.335   1.433   3.185 -0.5677  0.5945  1.2912
15590TIP3    H268186   6.236   1.410   3.073  2.0774 -0.2674 -0.9493
15591TIP3   OH268187   3.139   4.564  11.889  0.3139  0.3824  0.1497
15591TIP3    H168188   3.228   4.546  11.918  0.3078  2.1071  1.3841
15591TIP3    H268189   3.121   4.653  11.920 -2.0211 -0.1237  0.3871
15592TIP3   OH268190   4.751   3.445   2.420 -0.1945  0.1062  0.0453
15592TIP3    H168191   4.773   3.515   2.359  1.6009 -0.6691 -0.2494
15592TIP3    H268192   4.705   3.488   2.491 -0.9457  1.2606 -1.0975
15593TIP3   OH268193   3.548   2.012   4.068 -0.0467 -0.3301  0.3556
15593TIP3    H168194   3.637   1.993   4.038  0.4410  2.1782  0.0289
15593TIP3    H268195   3.510   2.065   3.999 -1.2194  0.0370  1.2534
15594TIP3   OH268196   1.746   4.903   1.523  0.6850 -0.1777  0.1051
15594TIP3    H168197   1.728   4.967   1.455  1.4420 -0.5039 -0.4135
15594TIP3    H268198   1.841   4.905   1.533  0.9144 -2.3940 -1.0940
15595TIP3   OH268199   5.352   3.940   0.759  0.5302  0.6311 -0.0428
15595TIP3    H168200   5.430   3.988   0.787  1.8204 -0.7892 -1.0140
15595TIP3    H268201   5.385   3.873   0.699 -1.5730  0.6295 -1.3183
15596TIP3   OH268202   6.435   2.701  13.342  0.0619  0.1027  0.1622
15596TIP3    H168203   6.522   2.730  13.371  0.5294 -1.1954  0.1719
15596TIP3    H268204   6.391   2.673  13.422 -0.0749  0.0626  0.0736
15597TIP3   OH268205   5.295   5.968   6.114  0.0384  0.0791  0.5772
15597TIP3    H168206   5.389   5.957   6.100  0.0895 -0.0292  0.9921
15597TIP3    H268207   5.282   6.063   6.115  0.1192  0.0933  0.3751
15598TIP3   OH268208   2.652   2.992  15.803 -0.0571  0.4784  0.6240
15598TIP3    H168209   2.613   2.924  15.748  0.6842 -1.2091  2.0816
15598TIP3    H268210   2.674   3.062  15.742 -2.8626  0.4152 -0.6400
15599TIP3   OH268211   4.158   2.701   1.279  0.8354  0.2174  0.4502
15599TIP3    H168212   4.081   2.734   1.326  1.0047  0.6882  0.3988
15599TIP3    H268213   4.192   2.777   1.233  1.8033  0.2018  1.1123
15600TIP3   OH268214   2.209   4.982  11.734  0.1791  0.2364  0.3273
15600TIP3    H168215   2.254   4.912  11.782 -0.1315 -0.1430  0.0685
15600TIP3    H268216   2.183   5.044  11.803  0.4881  0.1179  0.5542
15601TIP3   OH268217   1.107   1.722   5.445  0.4756 -0.0946  0.3638
15601TIP3    H168218   1.137   1.751   5.359 -0.2118 -0.8040 -0.1263
15601TIP3    H268219   1.182   1.737   5.503  0.9469  0.3749 -0.3580
15602TIP3   OH268220   3.450   0.996   1.479  0.5666  0.0304  0.0326
15602TIP3    H168221   3.469   1.086   1.455  2.6853 -0.2606  0.4536
15602TIP3    H268222   3.406   0.959   1.401  1.0002  1.0093 -0.6893
15603TIP3   OH268223   3.668   2.164  13.117 -0.2577  0.7157 -0.2002
15603TIP3    H168224   3.685   2.225  13.045  0.3533 -1.1650 -1.7300
15603TIP3    H268225   3.618   2.093  13.077  0.6015 -0.6770  1.0959
15604TIP3   OH268226   4.685   5.637  16.395 -0.6602 -0.1126  0.0479
15604TIP3    H168227   4.769   5.617  16.353 -1.0989  0.4990 -1.1593
15604TIP3    H268228   4.702   5.717  16.445 -0.2993 -0.4965  0.5526
15605TIP3   OH268229   1.795   3.157   5.720 -0.1731  0.1381  0.7955
15605TIP3    H168230   1.805   3.120   5.808  0.4403  1.0265  1.1134
15605TIP3    H268231   1.791   3.080   5.662 -2.2458 -0.5152  1.7220
15606TIP3   OH268232   5.160   5.524   4.438  0.3446 -0.1555 -0.1539
15606TIP3    H168233   5.181   5.617   4.435 -0.4006  0.0619  0.8865
15606TIP3    H268234   5.233   5.485   4.486  1.0020 -0.2410 -1.1714
15607TIP3   OH268235   4.563   1.447   4.866 -0.1988  0.7407  0.1680
15607TIP3    H168236   4.629   1.385   4.836  0.6791  0.4916  2.4035
15607TIP3    H268237   4.549   1.506   4.792 -0.1516 -1.3335 -1.5978
15608TIP3   OH268238   2.601   1.723   2.549  0.1086 -0.2547  0.1638
15608TIP3    H168239   2.599   1.778   2.627  1.1947  0.2433 -0.1332
15608TIP3    H268240   2.539   1.652   2.567  0.9562 -0.6101  1.8216
15609TIP3   OH268241   5.182   5.678  11.359 -0.0399  0.7537 -0.1808
15609TIP3    H168242   5.211   5.731  11.434  2.3437  0.9266 -1.1499
15609TIP3    H268243   5.113   5.731  11.318 -0.0431  1.5359  0.7840
15610TIP3   OH268244   1.603   0.819  12.635 -0.3305  0.1004 -0.0892
15610TIP3    H168245   1.618   0.849  12.545  2.4044 -3.0441 -0.8668
15610TIP3    H268246   1.524   0.766  12.629  0.8638 -1.6369 -1.1447
15611TIP3   OH268247   2.639   4.856   2.608 -0.4221 -0.3231 -0.3913
15611TIP3    H168248   2.631   4.778   2.662 -1.2366  0.2759  0.3816
15611TIP3    H268249   2.633   4.929   2.669 -0.0948  0.3551 -1.1460
15612TIP3   OH268250   0.237   3.439  12.508 -0.0496 -0.3512  0.1440
15612TIP3    H168251   0.168   3.497  12.477  0.2979 -1.0453 -2.1604
15612TIP3    H268252   0.215   3.354  12.470  1.8190 -0.6814 -0.2903
15613TIP3   OH268253   0.300   1.399   1.436 -0.8527 -0.2665 -0.5941
15613TIP3    H168254   0.279   1.475   1.381  0.7750  1.1523  0.6559
15613TIP3    H268255   0.394   1.404   1.449 -0.2737 -3.7634 -2.1827
15614TIP3   OH268256   2.390   6.594  13.439 -0.4733  0.4408  0.7106
15614TIP3    H168257   2.449   6.519  13.451 -0.5853  0.6097  2.7604
15614TIP3    H268258   2.420   6.636  13.359  0.6337 -0.8596  0.4044
15615TIP3   OH268259   1.254   0.656   0.014  0.0252  0.1001  0.6186
15615TIP3    H168260   1.213   0.585   0.063 -1.0978  1.0682  1.1194
15615TIP3    H268261   1.327   0.685   0.069 -1.1391  1.0833  1.7062
15616TIP3   OH268262   4.818   4.825  16.490  0.3043 -0.8222 -0.1219
15616TIP3    H168263   4.853   4.867  16.568 -2.3720  0.1972  0.6542
15616TIP3    H268264   4.852   4.736  16.493  3.0851  0.1387  0.2372
15617TIP3   OH268265   4.109   6.145  15.315 -0.1990  0.0701 -0.1015
15617TIP3    H168266   4.064   6.069  15.278 -2.0434  0.7559  0.5889
15617TIP3    H268267   4.164   6.109  15.384 -0.7146 -0.7010 -0.0792
15618TIP3   OH268268   3.325   0.974  12.303  0.5980  0.3719 -0.2326
15618TIP3    H168269   3.328   0.917  12.380 -1.5292  1.3393  0.6359
15618TIP3    H268270   3.299   0.915  12.232 -0.1141 -0.0308  0.3462
15619TIP3   OH268271   0.579   0.428  11.058 -0.2295 -0.1275  0.0502
15619TIP3    H168272   0.671   0.414  11.081 -0.6920 -0.8752  1.6693
15619TIP3    H268273   0.557   0.512  11.097 -0.1927  0.1205 -0.4651
15620TIP3   OH268274   3.159   5.442   3.087 -0.3005 -0.2747  0.1569
15620TIP3    H168275   3.195   5.525   3.053  0.8102 -0.9022 -0.2517
15620TIP3    H268276   3.139   5.460   3.179 -0.2599  0.5042  0.0199
15621TIP3   OH268277   5.067   4.877   5.770 -0.0348 -0.5390 -0.9510
15621TIP3    H168278   5.041   4.915   5.854  0.0733  0.2302 -1.2585
15621TIP3    H268279   5.002   4.908   5.708  1.0761  0.6761 -1.5571
15622TIP3   OH268280   3.332   5.488   1.751 -0.0452  0.0190  0.5469
15622TIP3    H168281   3.330   5.564   1.692 -0.0065  0.9230  1.6688
15622TIP3    H268282   3.344   5.526   1.838  3.3806 -1.4264  0.8763
15623TIP3   OH268283   0.713   1.542  12.368 -0.1728 -0.1552  0.6889
15623TIP3    H168284   0.679   1.477  12.307  1.6471 -1.8426  1.3723
15623TIP3    H268285   0.786   1.583  12.321 -1.2151  1.3901  0.3141
15624TIP3   OH268286   1.876   2.300   0.032 -0.4740 -0.0944  0.2774
15624TIP3    H168287   1.869   2.391   0.004 -0.8874 -0.2444 -0.1157
15624TIP3    H268288   1.970   2.280   0.027 -0.6700 -0.7285 -2.9882
15625TIP3   OH268289   2.512   3.620   5.487  0.3987 -0.6449 -0.2662
15625TIP3    H168290   2.525   3.527   5.471  0.7949 -0.5281 -0.6188
15625TIP3    H268291   2.505   3.628   5.583 -0.6843 -1.1706 -0.2812
15626TIP3   OH268292   0.034   4.349  16.570  0.3719  0.6266 -0.3775
15626TIP3    H168293   0.127   4.353  16.549  0.4480 -0.9437 -0.5012
15626TIP3    H268294   0.030   4.304  16.654 -0.3305 -1.3920 -1.4149
15627TIP3   OH268295   6.753   6.153   5.338  0.3772 -0.4208 -0.4619
15627TIP3    H168296   6.734   6.149   5.432  0.7038 -0.5375 -0.4001
15627TIP3    H268297   6.848   6.153   5.333  0.3600 -0.5979 -0.8037
15628TIP3   OH268298   1.101   0.094   1.014  0.0850  0.0419  0.1838
15628TIP3    H168299   1.127   0.090   0.922  2.6141 -1.0878  0.8452
15628TIP3    H268300   1.162   0.035   1.059 -0.1623  1.5687  2.7637
15629TIP3   OH268301   1.965   2.180   4.151 -0.1759 -0.4927 -0.0660
15629TIP3    H168302   1.885   2.176   4.098 -0.5398  1.4435  0.2665
15629TIP3    H268303   1.935   2.158   4.240  0.1781 -2.3386 -0.3630
15630TIP3   OH268304   6.279   5.753  13.088  0.5734  0.3954  0.4646
15630TIP3    H168305   6.334   5.743  13.010 -0.5147  2.0774 -0.6121
15630TIP3    H268306   6.286   5.670  13.134  0.0819 -1.2627 -2.2551
15631TIP3   OH268307   6.539   0.274  16.994  0.4326 -0.2184 -0.0320
15631TIP3    H168308   6.458   0.324  16.985 -0.0841 -0.9340  0.5271
15631TIP3    H268309   6.526   0.221  17.072  1.1354 -0.9047 -0.3676
15632TIP3   OH268310   3.969   2.969  16.836 -0.1653 -0.8939 -0.8433
15632TIP3    H168311   3.945   2.902  16.772  1.0196 -1.0145 -1.1801
15632TIP3    H268312   4.061   2.990  16.817  0.1444 -0.7393  0.6334
15633TIP3   OH268313   4.468   5.715  11.381 -0.2806  0.1712  0.3924
15633TIP3    H168314   4.374   5.706  11.396 -0.6053  0.4043 -1.2256
15633TIP3    H268315   4.482   5.809  11.374 -0.3573  0.0833 -1.5184
15634TIP3   OH268316   6.675   2.340  14.958 -0.4606 -0.2845 -0.0432
15634TIP3    H168317   6.715   2.395  15.025  2.0487  0.8374 -2.2718
15634TIP3    H268318   6.713   2.253  14.972  0.3717  0.0424 -0.2373
15635TIP3   OH268319   6.321   2.206  14.104  0.0630  0.0097 -0.2427
15635TIP3    H168320   6.322   2.152  14.025 -0.3610 -2.3404  1.2522
15635TIP3    H268321   6.347   2.146  14.174 -1.5826  1.4366  1.7082
15636TIP3   OH268322   5.824   0.904  11.147  0.2254 -0.2967  0.8536
15636TIP3    H168323   5.778   0.877  11.068 -0.1759  2.6722 -0.0558
15636TIP3    H268324   5.901   0.848  11.151  0.4690 -0.2650 -1.8768
15637TIP3   OH268325   4.878   6.665   5.330 -0.1725 -0.2352 -1.1382
15637TIP3    H168326   4.919   6.592   5.284 -0.0700 -1.2455  0.4892
15637TIP3    H268327   4.926   6.670   5.413 -1.1049  0.7877 -0.6447
15638TIP3   OH268328   2.548   3.092   1.315  0.7067 -0.2505 -0.1688
15638TIP3    H168329   2.494   3.077   1.238  0.2468 -1.0983  0.2920
15638TIP3    H268330   2.632   3.124   1.281  0.4651 -0.4902 -1.0021
15639TIP3   OH268331   0.886   3.974  13.079 -0.0786  0.3463 -0.3054
15639TIP3    H168332   0.820   3.905  13.075  0.2395  0.0056  0.0998
15639TIP3    H268333   0.840   4.054  13.055  0.0879 -0.3558 -3.4083
15640TIP3   OH268334   4.719   4.879   1.338 -0.0401  0.8344  0.2142
15640TIP3    H168335   4.713   4.872   1.433 -1.8982 -0.7422  0.0529
15640TIP3    H268336   4.681   4.797   1.306  2.2990  0.4552 -1.8761
15641TIP3   OH268337   2.952   0.169   3.576 -0.3005 -0.1247  0.6036
15641TIP3    H168338   2.865   0.175   3.617 -0.1884 -0.8136  0.9742
15641TIP3    H268339   2.947   0.225   3.499 -0.3393  1.6901  1.8538
15642TIP3   OH268340   4.154   0.239   0.125 -0.4206 -0.5172 -0.0312
15642TIP3    H168341   4.157   0.191   0.209 -0.2000 -0.2820  0.0964
15642TIP3    H268342   4.198   0.180   0.063  0.2781 -0.2770  0.2306
15643TIP3   OH268343   5.640   3.503   4.300 -0.1773  0.2756  0.2741
15643TIP3    H168344   5.674   3.592   4.311 -0.1309  0.4776 -1.2973
15643TIP3    H268345   5.545   3.513   4.295 -0.3107  0.0246  1.7588
15644TIP3   OH268346   2.795   3.024   0.389  0.5542 -0.4626 -0.1013
15644TIP3    H168347   2.887   3.008   0.368  0.9453  2.4894 -1.1185
15644TIP3    H268348   2.776   3.109   0.350 -1.7988  0.4167  2.6176
15645TIP3   OH268349   2.755   0.581  14.205  0.0474 -0.0330  0.0216
15645TIP3    H168350   2.692   0.607  14.273  0.2216 -0.1814  0.2396
15645TIP3    H268351   2.712   0.606  14.123  0.3858  1.3333  0.2324
15646TIP3   OH268352   6.424   6.077   5.728 -0.0784 -0.1863 -0.4087
15646TIP3    H168353   6.400   6.098   5.818 -1.2068  1.8896 -1.1504
15646TIP3    H268354   6.352   6.023   5.696 -0.8429  1.0124 -0.7590
15647TIP3   OH268355   2.327   2.460  13.573 -0.0580 -0.3426 -0.2643
15647TIP3    H168356   2.311   2.517  13.649  2.2655 -0.7129  0.5889
15647TIP3    H268357   2.271   2.384  13.588 -0.3063 -0.0085  0.5835
15648TIP3   OH268358   1.624   6.407   5.425 -0.1346  0.0757 -0.0353
15648TIP3    H168359   1.680   6.484   5.438  0.3283 -0.3596  0.6602
15648TIP3    H268360   1.683   6.341   5.389 -0.5466  0.0635 -0.6960
15649TIP3   OH268361   5.224   2.347  11.832 -0.4719  0.6241  0.4353
15649TIP3    H168362   5.231   2.430  11.879  0.0571  0.3240  0.8954
15649TIP3    H268363   5.223   2.281  11.900  1.8840  0.0636  0.0276
15650TIP3   OH268364   6.155   2.938   4.968  0.0256 -0.3672  0.3791
15650TIP3    H168365   6.093   2.997   5.010 -0.0926 -0.8683  0.9225
15650TIP3    H268366   6.166   2.866   5.031  0.8383 -0.4860  0.1173
15651TIP3   OH268367   4.285   1.324  13.354  0.3117 -0.6411 -0.1365
15651TIP3    H168368   4.368   1.371  13.343 -1.7571  3.7925  0.7729
15651TIP3    H268369   4.263   1.337  13.447 -1.5125 -1.4915 -0.4063
15652TIP3   OH268370   1.567   5.781  15.340  0.3015  0.0706  0.3132
15652TIP3    H168371   1.476   5.757  15.359  0.8217 -1.8154  0.5611
15652TIP3    H268372   1.585   5.852  15.401 -0.9506  0.3715  0.3700
15653TIP3   OH268373   3.326   4.257   5.811  0.1763  0.0177  0.0756
15653TIP3    H168374   3.235   4.257   5.781 -0.2129 -0.5550  1.1844
15653TIP3    H268375   3.366   4.183   5.765  0.3931  0.9440 -1.2615
15654TIP3   OH268376   1.484   6.358   4.449  0.3924  0.3510 -0.3211
15654TIP3    H168377   1.447   6.446   4.437 -0.2247  0.3346  1.2758
15654TIP3    H268378   1.508   6.354   4.541  0.3628 -1.1851 -0.3523
15655TIP3   OH268379   5.125   5.096   4.222 -0.3175 -0.3796 -0.4369
15655TIP3    H168380   5.099   5.181   4.187 -1.3412 -0.8295 -0.8311
15655TIP3    H268381   5.146   5.113   4.314 -0.7209  0.2667 -0.4572
15656TIP3   OH268382   6.153   6.407  15.625  0.4908  0.6989 -0.2427
15656TIP3    H168383   6.244   6.425  15.646  0.2043  0.1414  1.6549
15656TIP3    H268384   6.104   6.434  15.702 -0.7701 -0.6265 -0.5189
15657TIP3   OH268385   2.877   0.239  15.941  0.1292  0.3837 -0.4169
15657TIP3    H168386   2.791   0.278  15.957 -0.9331 -1.4668 -1.2839
15657TIP3    H268387   2.913   0.224  16.028 -0.5328  0.9884 -0.0339
15658TIP3   OH268388   3.889   0.460  11.550 -0.0307 -0.0097 -0.1351
15658TIP3    H168389   3.907   0.404  11.625  0.4233  0.4922  0.1396
15658TIP3    H268390   3.933   0.417  11.476 -1.9500 -1.4582 -0.5203
15659TIP3   OH268391   3.207   0.977   2.444  0.4044  0.0298  0.0500
15659TIP3    H168392   3.257   1.053   2.477 -0.9477  0.6756  0.6777
15659TIP3    H268393   3.161   1.011   2.367  1.1273 -0.6422 -0.6957
15660TIP3   OH268394   2.941   5.382  12.335  0.1664 -0.2660  0.1364
15660TIP3    H168395   2.938   5.348  12.424 -0.6186 -2.2160 -0.5670
15660TIP3    H268396   2.850   5.401  12.313  0.2315 -0.6681 -0.5310
15661TIP3   OH268397   0.161   4.085  12.116 -0.3435 -0.2382 -0.2764
15661TIP3    H168398   0.081   4.113  12.159  0.5882  0.7251  0.9133
15661TIP3    H268399   0.207   4.167  12.096  0.4754 -0.7819 -0.6742
15662TIP3   OH268400   1.083   5.423  16.328  0.4803  0.2083 -0.0233
15662TIP3    H168401   1.095   5.340  16.375  0.7904 -0.4038 -1.1264
15662TIP3    H268402   1.107   5.402  16.237 -1.5901  0.9434 -0.7904
15663TIP3   OH268403   1.220   0.214  13.874  0.3500  0.4135 -0.1424
15663TIP3    H168404   1.189   0.131  13.839 -0.4660  0.0661  1.3116
15663TIP3    H268405   1.202   0.278  13.806 -0.5890 -0.3273 -0.6104
15664TIP3   OH268406   3.942   4.282   4.539 -0.0523  0.6366  0.1211
15664TIP3    H168407   3.892   4.211   4.579  0.1400 -0.1420 -0.9885
15664TIP3    H268408   4.015   4.239   4.495 -1.2754  1.2299 -2.6699
15665TIP3   OH268409   1.348   0.362  17.089  0.1575  0.5015  0.1205
15665TIP3    H168410   1.306   0.316  17.162  0.6170  0.2358  0.2229
15665TIP3    H268411   1.316   0.452  17.096 -1.6847 -0.0287 -0.7798
15666TIP3   OH268412   2.230   4.959   4.526  0.0738  0.0773  0.0271
15666TIP3    H168413   2.165   5.028   4.538  0.0447  0.0257  0.1617
15666TIP3    H268414   2.294   4.973   4.596 -0.1172 -0.2433  0.2664
15667TIP3   OH268415   2.719   6.584   2.927 -0.4521  0.5456 -0.1910
15667TIP3    H168416   2.673   6.572   3.010 -0.7076  0.8976 -0.2790
15667TIP3    H268417   2.807   6.549   2.943 -0.3780  0.9653  0.3470
15668TIP3   OH268418   4.092   6.782  15.898  0.1254 -0.2671 -0.1997
15668TIP3    H168419   4.043   6.701  15.881  1.3054 -1.0960  0.2271
15668TIP3    H268420   4.055   6.816  15.980 -2.0319  0.9757 -1.5814
15669TIP3   OH268421   4.614   1.426  16.766 -0.0387 -0.0208 -0.6134
15669TIP3    H168422   4.613   1.427  16.862 -2.3999 -0.8549 -0.5553
15669TIP3    H268423   4.637   1.336  16.743 -1.5347 -0.3881 -0.7542
15670TIP3   OH268424   2.023   0.503   3.317  0.0223  0.1803 -0.0242
15670TIP3    H168425   1.993   0.458   3.396  0.4329 -1.6065 -0.8425
15670TIP3    H268426   1.949   0.495   3.256  0.8762 -1.3397 -0.9132
15671TIP3   OH268427   1.007   4.835  11.237  0.1567  0.2220  0.3588
15671TIP3    H168428   0.936   4.774  11.257  0.3017  0.0338  0.3017
15671TIP3    H268429   1.064   4.832  11.314  0.3435  0.0292  0.2126
15672TIP3   OH268430   1.735   1.030   0.071 -0.1968  0.3625  0.1261
15672TIP3    H168431   1.800   0.962   0.054  0.0810  0.5638  0.3641
15672TIP3    H268432   1.663   0.985   0.115 -0.7374 -0.0836 -1.1742
15673TIP3   OH268433   0.633   5.095  14.975 -0.9298  0.4212 -0.2365
15673TIP3    H168434   0.681   5.141  15.043 -0.8263 -1.4406  1.0334
15673TIP3    H268435   0.700   5.048  14.926 -1.2206 -0.4371  0.1585
15674TIP3   OH268436   5.856   4.763  16.053  0.7548 -0.1739  0.8115
15674TIP3    H168437   5.822   4.850  16.074  0.9192 -0.2230  1.2948
15674TIP3    H268438   5.942   4.779  16.015  1.0178 -0.1555  1.4160
15675TIP3   OH268439   4.249   0.535  14.635 -0.1421 -0.6696  0.0878
15675TIP3    H168440   4.254   0.626  14.664 -1.2370 -0.6047  0.1380
15675TIP3    H268441   4.248   0.485  14.717  0.1527 -0.7100  0.0671
15676TIP3   OH268442   4.943   1.608   0.528 -0.2452 -0.0347  0.3852
15676TIP3    H168443   4.947   1.572   0.616  0.6721  0.6748  0.6514
15676TIP3    H268444   5.022   1.576   0.485 -0.0691  0.6063  0.2206
15677TIP3   OH268445   1.370   3.528  11.317  0.1481  0.1641  0.4771
15677TIP3    H168446   1.425   3.607  11.314 -1.6453  1.4395 -1.3017
15677TIP3    H268447   1.292   3.555  11.364  0.1004 -1.0051  1.1068
15678TIP3   OH268448   3.722   5.945   0.988  0.0819  0.3485 -0.5260
15678TIP3    H168449   3.725   5.887   0.913 -0.5909 -0.3045 -0.0630
15678TIP3    H268450   3.801   5.925   1.038 -0.3699 -0.5050 -0.1353
15679TIP3   OH268451   0.929   3.325  12.125  0.0905  0.1566  0.4595
15679TIP3    H168452   0.859   3.329  12.190 -0.7684  0.5096 -0.4606
15679TIP3    H268453   0.993   3.265  12.163 -1.2004 -1.0306  0.8671
15680TIP3   OH268454   5.827   0.500  16.377 -0.1745  0.4617 -0.4140
15680TIP3    H168455   5.806   0.446  16.454  1.3803  0.4251  0.0208
15680TIP3    H268456   5.848   0.586  16.413  0.1908  0.5480 -0.8151
15681TIP3   OH268457   1.946   0.393  13.752  0.0813 -0.3810  0.1993
15681TIP3    H168458   2.008   0.366  13.820  0.1739 -0.9048 -0.0815
15681TIP3    H268459   1.996   0.386  13.670 -0.1724 -0.2297  0.0309
15682TIP3   OH268460   5.249   1.985  14.923  0.4670 -0.4880 -0.0817
15682TIP3    H168461   5.217   2.021  15.006  0.5548  1.5598 -0.8663
15682TIP3    H268462   5.343   2.003  14.924  0.3398  0.2793 -0.9511
15683TIP3   OH268463   5.558   1.737   2.737 -0.2040 -0.3257 -0.3994
15683TIP3    H168464   5.541   1.732   2.831  1.8193  0.0457  0.0099
15683TIP3    H268465   5.531   1.651   2.704 -0.0552 -0.7984  0.6667
15684TIP3   OH268466   0.381   3.081   6.040  0.1463 -0.0596  0.0483
15684TIP3    H168467   0.472   3.088   6.071  0.1707 -0.0737 -0.0194
15684TIP3    H268468   0.335   3.150   6.087  0.8493  2.1956 -2.3219
15685TIP3   OH268469   4.697   4.418   2.964 -0.2767 -0.1773  0.2557
15685TIP3    H168470   4.751   4.467   2.902 -0.3035 -1.1566 -0.5789
15685TIP3    H268471   4.731   4.329   2.959  0.2328 -0.1320  2.2687
15686TIP3   OH268472   1.942   1.176  11.463 -0.8292 -0.1046 -0.4672
15686TIP3    H168473   1.908   1.262  11.490  0.8163  0.9608 -1.5903
15686TIP3    H268474   1.866   1.131  11.426 -1.7373  0.8304  0.1825
15687TIP3   OH268475   4.972   6.292  14.386  0.1976 -0.4625 -0.1558
15687TIP3    H168476   4.883   6.276  14.353  0.6846 -2.0852 -0.7442
15687TIP3    H268477   5.029   6.243  14.327  1.4020 -0.4283  0.9371
15688TIP3   OH268478   2.413   4.479  13.971 -0.1367 -0.1834 -0.3076
15688TIP3    H168479   2.359   4.410  13.932 -1.2146  0.9344 -0.8822
15688TIP3    H268480   2.492   4.480  13.917 -1.0697  0.4843 -1.7432
15689TIP3   OH268481   0.687   4.620  16.101  0.3297 -0.0328  0.1147
15689TIP3    H168482   0.662   4.659  16.185 -1.6203 -0.9081 -0.0163
15689TIP3    H268483   0.681   4.692  16.039 -2.9211 -0.3228 -0.0642
15690TIP3   OH268484   6.108   4.789   3.327 -0.5676  0.5565  0.0332
15690TIP3    H168485   6.136   4.766   3.239  0.2727  0.9209  0.1946
15690TIP3    H268486   6.116   4.884   3.330  0.8950  0.4318  0.9806
15691TIP3   OH268487   5.194   5.355  13.582  0.3407 -0.1473 -0.5729
15691TIP3    H168488   5.211   5.288  13.648  1.4316  0.3934 -0.2775
15691TIP3    H268489   5.277   5.365  13.536  0.3333  1.3158 -0.3098
15692TIP3   OH268490   6.571   4.859  15.385  0.0468  0.0872 -0.1072
15692TIP3    H168491   6.617   4.824  15.462  0.2152 -1.3590 -0.8382
15692TIP3    H268492   6.493   4.901  15.421  0.3081 -0.2499  0.8852
15693TIP3   OH268493   6.330   4.713   4.746 -0.4760 -0.3506 -0.2244
15693TIP3    H168494   6.392   4.662   4.694  1.6766  0.6679  1.1505
15693TIP3    H268495   6.275   4.648   4.790  2.7635 -1.7288  2.2142
15694TIP3   OH268496   4.100   2.812   3.474 -0.0461  0.2241  0.5000
15694TIP3    H168497   4.082   2.904   3.456 -0.4022 -0.0447 -0.6279
15694TIP3    H268498   4.014   2.773   3.489 -0.5034 -0.7603 -3.4127
15695TIP3   OH268499   3.885   0.395   1.791 -0.2426 -0.2944 -0.5602
15695TIP3    H168500   3.958   0.451   1.815 -2.2704  1.9327  0.8401
15695TIP3    H268501   3.926   0.317   1.753  2.7960  0.9197 -0.0475
15696TIP3   OH268502   2.169   6.639   4.354  0.0174 -0.1412 -0.0037
15696TIP3    H168503   2.102   6.681   4.407  0.8549 -1.1994  2.0109
15696TIP3    H268504   2.122   6.575   4.301 -0.7953  0.6555 -0.2554
15697TIP3   OH268505   2.904   4.606   5.823  0.6140 -0.3106 -0.4011
15697TIP3    H168506   2.976   4.641   5.875  0.1451 -1.5181  1.1418
15697TIP3    H268507   2.863   4.540   5.880 -3.7652  2.5094  0.2363
15698TIP3   OH268508   1.856   2.229   4.426 -0.0444 -0.3578 -0.3845
15698TIP3    H168509   1.870   2.315   4.387 -0.3510  0.0157  0.3177
15698TIP3    H268510   1.829   2.247   4.516 -0.1553 -1.1881 -0.2411
15699TIP3   OH268511   3.571   2.071   5.395  0.5722 -0.1230  0.4121
15699TIP3    H168512   3.651   2.073   5.448  1.2918 -2.5741 -0.4127
15699TIP3    H268513   3.500   2.062   5.459  1.0160  0.9803  1.0997
15700TIP3   OH268514   0.317   1.674   6.591 -0.2226 -0.1589 -0.3961
15700TIP3    H168515   0.258   1.748   6.601 -1.2640 -0.9955 -0.0966
15700TIP3    H268516   0.403   1.707   6.616 -1.0973  0.2759  2.3176
15701TIP3   OH268517   3.292   3.088   2.137  0.2409 -0.6629 -0.6089
15701TIP3    H168518   3.267   3.051   2.053  0.7400  0.0366 -1.0713
15701TIP3    H268519   3.384   3.111   2.128  0.4229 -1.0028  0.2820
15702TIP3   OH268520   0.418   4.797  14.082  0.0577  0.5544 -0.2017
15702TIP3    H168521   0.453   4.884  14.100 -0.7266  0.6484  0.9335
15702TIP3    H268522   0.331   4.797  14.122  0.9117 -1.4945  1.8712
15703TIP3   OH268523   2.380   4.759   6.556 -0.4512 -0.3585 -0.0695
15703TIP3    H168524   2.333   4.742   6.475 -0.7202  1.3573 -0.2927
15703TIP3    H268525   2.318   4.734   6.625 -0.7478 -0.4982 -0.3828
15704TIP3   OH268526   2.705   6.156  13.897  0.3841  0.4605  0.3207
15704TIP3    H168527   2.649   6.226  13.864 -0.1296  1.4673  3.0522
15704TIP3    H268528   2.794   6.188  13.884  0.1552  1.6344  1.4293
15705TIP3   OH268529   1.806   6.308  15.976  0.1773 -0.2444 -0.0365
15705TIP3    H168530   1.768   6.342  16.057 -1.6921 -2.5385  0.1509
15705TIP3    H268531   1.742   6.329  15.909  0.8227 -0.0546 -0.6099
15706TIP3   OH268532   5.541   5.473  11.728  0.4468 -0.0272 -0.2567
15706TIP3    H168533   5.528   5.557  11.771 -0.2935 -0.6452  0.7604
15706TIP3    H268534   5.511   5.487  11.638 -0.7921  0.4913  0.2176
15707TIP3   OH268535   6.446   2.821   3.012  0.0335  0.4505 -0.1398
15707TIP3    H168536   6.390   2.898   3.023 -0.9048 -0.2984  0.5304
15707TIP3    H268537   6.384   2.749   3.001  0.7722 -0.6660  2.2700
15708TIP3   OH268538   1.994   5.397   1.511  0.0053  0.0815 -0.2990
15708TIP3    H168539   1.917   5.427   1.558  0.2512  0.3442 -0.0555
15708TIP3    H268540   2.063   5.458   1.537  0.0835  0.3969 -1.2146
15709TIP3   OH268541   3.169   2.511   0.523  0.8072  0.3557 -0.0556
15709TIP3    H168542   3.079   2.481   0.508  0.4269  0.7424  1.2617
15709TIP3    H268543   3.192   2.475   0.608  1.1604  1.8622  0.5250
15710TIP3   OH268544   2.363   1.256  14.386  0.3566 -0.3538  0.1277
15710TIP3    H168545   2.318   1.269  14.469  1.8204 -0.9997  1.0633
15710TIP3    H268546   2.292   1.241  14.323 -0.7588 -1.2156  1.5082
15711TIP3   OH268547   3.439   6.428  16.768 -0.1809 -0.4379  0.0893
15711TIP3    H168548   3.386   6.508  16.765  1.0561  0.3865 -1.3513
15711TIP3    H268549   3.485   6.432  16.852  1.7936  1.7458 -0.9723
15712TIP3   OH268550   1.945   2.176  16.845  0.6029  0.3997  0.9051
15712TIP3    H168551   1.881   2.146  16.910  0.3450 -1.5729 -0.1580
15712TIP3    H268552   1.925   2.268  16.832 -0.8466  0.2748  1.9388
15713TIP3   OH268553   0.635   3.633   4.373 -0.1220  0.0771 -0.2520
15713TIP3    H168554   0.720   3.589   4.365  0.2995  0.9790 -1.0697
15713TIP3    H268555   0.602   3.637   4.283 -2.2521 -2.4899  0.3093
15714TIP3   OH268556   2.052   5.301  14.542 -1.2095  0.0457 -0.0065
15714TIP3    H168557   2.117   5.368  14.521 -0.3574 -0.5013  0.7820
15714TIP3    H268558   1.980   5.317  14.481  0.1838 -0.1102 -1.7840
15715TIP3   OH268559   6.412   2.310  15.535 -0.5060  0.0490  0.0489
15715TIP3    H168560   6.451   2.292  15.449  1.0143 -2.4859  1.1349
15715TIP3    H268561   6.464   2.382  15.571  0.0038 -0.0497 -0.4815
15716TIP3   OH268562   5.327   6.721  17.139 -0.1625 -0.3708  0.2198
15716TIP3    H168563   5.329   6.625  17.132 -1.3222 -0.3727 -0.3456
15716TIP3    H268564   5.279   6.738  17.220  2.6994 -0.2503  2.0151
15717TIP3   OH268565   2.063   4.198  10.929 -0.1325 -1.1222  0.4494
15717TIP3    H168566   2.079   4.267  10.865  0.3723 -0.6657  1.0524
15717TIP3    H268567   2.046   4.120  10.876  2.8847 -1.3866 -0.3308
15718TIP3   OH268568   6.777   1.763  12.294 -0.1807 -0.3316 -0.6520
15718TIP3    H168569   6.826   1.843  12.276  2.0262 -1.7014 -1.1766
15718TIP3    H268570   6.706   1.764  12.230  0.2271  0.8454 -1.1175
15719TIP3   OH268571   0.736   3.649   0.050  0.3558  0.2351  0.1110
15719TIP3    H168572   0.715   3.558   0.072  1.0448 -0.3460 -1.4705
15719TIP3    H268573   0.656   3.684   0.011  0.2068  0.2030  0.3831
15720TIP3   OH268574   6.000   3.179   5.830 -0.1908 -0.5390 -1.0626
15720TIP3    H168575   6.077   3.146   5.784  0.5149  1.4364 -1.3934
15720TIP3    H268576   6.036   3.231   5.902 -1.2532 -0.8057 -0.3195
15721TIP3   OH268577   2.005   0.096  13.693 -0.1854  0.2176 -0.1107
15721TIP3    H168578   2.048   0.076  13.776 -0.9322 -1.7432 -0.1339
15721TIP3    H268579   1.971   0.011  13.663  0.4394  0.7677 -2.6409
15722TIP3   OH268580   6.368   2.570   1.921  0.1036  0.0684  0.4261
15722TIP3    H168581   6.367   2.504   1.851 -2.3580 -0.4967  0.8876
15722TIP3    H268582   6.455   2.562   1.960  0.2661 -2.1686 -0.2323
15723TIP3   OH268583   6.779   3.671   4.130  0.5898  0.1646 -0.0368
15723TIP3    H168584   6.843   3.637   4.192  1.4472  1.2625 -0.2741
15723TIP3    H268585   6.714   3.601   4.121  0.4618 -0.0354  2.0375
15724TIP3   OH268586   4.791   6.145   5.792  0.3054 -0.4300  0.1715
15724TIP3    H168587   4.699   6.128   5.812 -0.1340  0.7317 -0.7449
15724TIP3    H268588   4.789   6.222   5.735  1.8020 -0.8055 -0.4265
15725TIP3   OH268589   4.025   3.655   1.016  0.1155  0.7156 -0.0720
15725TIP3    H168590   3.992   3.585   1.072 -1.3489  1.1628 -0.3375
15725TIP3    H268591   3.992   3.735   1.056  0.3448  1.1431 -0.7249
15726TIP3   OH268592   5.251   3.230  11.796  0.3340 -0.2226 -0.2013
15726TIP3    H168593   5.287   3.221  11.708  1.1907  0.1327  0.1020
15726TIP3    H268594   5.232   3.324  11.805  2.4675  0.1581  0.8125
15727TIP3   OH268595   6.123   0.519  13.884 -0.4805  0.1677  0.8274
15727TIP3    H168596   6.058   0.463  13.842  0.5419 -0.5655  0.1724
15727TIP3    H268597   6.135   0.591  13.823 -1.9401  1.2508  1.7602
15728TIP3   OH268598   1.798   5.117   1.889 -0.3988  0.1629  0.4299
15728TIP3    H168599   1.804   5.090   1.797 -1.7456 -1.0378  0.6473
15728TIP3    H268600   1.802   5.035   1.938 -0.5758  0.7165  1.3938
15729TIP3   OH268601   1.651   4.055  15.381  0.4622  0.0981 -0.1638
15729TIP3    H168602   1.612   3.970  15.399  0.8345 -0.7151 -2.8216
15729TIP3    H268603   1.743   4.036  15.363  0.4836  1.0120 -1.0877
15730TIP3   OH268604   4.525   3.722  12.358 -0.2804 -0.6551  0.0902
15730TIP3    H168605   4.488   3.806  12.331  0.1373 -0.0501  1.3175
15730TIP3    H268606   4.618   3.729  12.334 -0.2322 -0.7343  0.2517
15731TIP3   OH268607   0.257   5.868   3.222  0.3102  0.4281  0.4180
15731TIP3    H168608   0.294   5.854   3.135  0.8435  0.6882  0.6006
15731TIP3    H268609   0.244   5.780   3.257 -0.0306  0.3211  0.0237
15732TIP3   OH268610   1.372   4.715   5.018 -0.1574 -0.3670  0.2827
15732TIP3    H168611   1.372   4.706   5.114 -3.3355  3.0883  0.8311
15732TIP3    H268612   1.427   4.791   5.002  0.1379 -0.7700 -0.6555
15733TIP3   OH268613   4.083   3.280   4.867 -0.3443 -0.1939 -0.5220
15733TIP3    H168614   4.131   3.236   4.937 -0.3771 -0.1079 -0.4453
15733TIP3    H268615   3.993   3.248   4.877 -0.9269  1.7754  1.1009
15734TIP3   OH268616   6.645   6.427   0.431 -0.5105 -0.1202 -0.1556
15734TIP3    H168617   6.591   6.428   0.511 -2.4774 -0.8082 -1.4144
15734TIP3    H268618   6.591   6.471   0.365  1.6395  1.7007 -0.8317
15735TIP3   OH268619   5.123   3.689  13.697  0.2406 -0.1253  0.0009
15735TIP3    H168620   5.089   3.602  13.718 -1.0045  0.3582  0.0625
15735TIP3    H268621   5.159   3.680  13.609 -1.7442 -0.2360 -0.8443
15736TIP3   OH268622   3.929   3.785   3.241 -0.2833  0.2500 -0.1646
15736TIP3    H168623   4.017   3.763   3.211 -0.2701  0.2693 -0.1409
15736TIP3    H268624   3.870   3.747   3.176 -0.2249  1.2771 -0.8475
15737TIP3   OH268625   5.032   3.819  14.778 -0.4228 -0.2074 -0.3975
15737TIP3    H168626   4.953   3.823  14.725  0.2666  1.8895 -1.3561
15737TIP3    H268627   5.062   3.910  14.784  0.2455 -0.5002  2.5349
15738TIP3   OH268628   0.201   6.222   4.475 -0.4294  0.6768  0.0523
15738TIP3    H168629   0.162   6.150   4.425  1.6117  0.6759 -1.6967
15738TIP3    H268630   0.171   6.301   4.430 -0.7795  0.8256  0.5363
15739TIP3   OH268631   4.933   3.136  14.809 -0.0167 -0.1608  0.0294
15739TIP3    H168632   4.959   3.159  14.899  0.2316  0.5453 -0.2180
15739TIP3    H268633   4.838   3.130  14.813 -0.1500  1.5097 -0.0146
15740TIP3   OH268634   2.099   1.861   3.388  0.4469  0.2718 -0.1997
15740TIP3    H168635   2.069   1.776   3.356 -0.0612  0.4060 -0.0924
15740TIP3    H268636   2.154   1.840   3.464  0.2472  0.0424 -0.1168
15741TIP3   OH268637   6.253   6.042  12.794 -1.0983 -0.0319  0.2298
15741TIP3    H168638   6.309   6.034  12.717 -0.2540  2.6637  0.4505
15741TIP3    H268639   6.308   6.087  12.858 -3.2612  2.2141  0.6607
15742TIP3   OH268640   2.376   3.431   2.801  0.6790  0.2554  0.2692
15742TIP3    H168641   2.468   3.426   2.773  0.4701  0.8012 -0.5706
15742TIP3    H268642   2.362   3.524   2.817 -0.0623  0.3459 -0.8269
15743TIP3   OH268643   3.157   0.288   3.015 -0.2977  0.1380 -0.3609
15743TIP3    H168644   3.227   0.301   2.952  0.8507 -1.0737  0.6077
15743TIP3    H268645   3.128   0.377   3.039  0.9712  0.6560 -0.7034
15744TIP3   OH268646   4.317   2.144  15.775  0.1890  0.3132  0.0234
15744TIP3    H168647   4.348   2.115  15.690 -1.6926 -2.1037  0.0354
15744TIP3    H268648   4.396   2.165  15.824  1.5430 -1.4658 -1.2655
15745TIP3   OH268649   5.179   0.703  15.164 -0.3740  0.7277 -0.6556
15745TIP3    H168650   5.155   0.710  15.256  0.3401 -1.0675 -0.2954
15745TIP3    H268651   5.213   0.790  15.141 -0.2424  1.0976  0.8540
15746TIP3   OH268652   2.613   4.238  12.581 -0.0134  0.0990 -0.0428
15746TIP3    H168653   2.519   4.245  12.596  0.2264  0.9640  1.2457
15746TIP3    H268654   2.623   4.242  12.486 -1.2697  0.0263 -0.1933
15747TIP3   OH268655   4.552   1.223   0.500  0.1405 -0.4725 -0.5860
15747TIP3    H168656   4.568   1.279   0.425 -2.2540  0.9667 -0.1251
15747TIP3    H268657   4.605   1.262   0.570 -2.4855  2.2733  0.1059
15748TIP3   OH268658   1.101   2.703  14.563  0.4661  0.0875 -0.2711
15748TIP3    H168659   1.169   2.743  14.618  0.2206 -0.4957  0.4756
15748TIP3    H268660   1.143   2.693  14.477  0.8337  1.0667 -0.2154
15749TIP3   OH268661   1.847   0.802  15.360 -0.3505 -0.0470 -0.5741
15749TIP3    H168662   1.924   0.746  15.355  0.5385  0.9944  0.6276
15749TIP3    H268663   1.809   0.799  15.272  1.3495 -0.1912 -1.3381
15750TIP3   OH268664   2.506   5.390   1.387  0.2423  0.2030 -0.3747
15750TIP3    H168665   2.588   5.399   1.436  0.4737  0.8066 -0.8577
15750TIP3    H268666   2.463   5.476   1.396 -0.9910 -0.5107  1.0027
15751TIP3   OH268667   3.078   6.650  12.695 -0.1754  0.5584  0.5878
15751TIP3    H168668   3.009   6.682  12.638 -0.4503 -1.1044 -0.0697
15751TIP3    H268669   3.159   6.666  12.646 -0.3708 -0.4003 -0.0777
15752TIP3   OH268670   4.692   6.182  16.681 -0.2407 -0.3068 -0.2974
15752TIP3    H168671   4.715   6.242  16.753 -0.8740 -1.8859  1.3032
15752TIP3    H268672   4.684   6.238  16.604  0.8308  1.4126  0.7806
15753TIP3   OH268673   4.113   0.975   5.930  0.3194  0.2221  0.3237
15753TIP3    H168674   4.041   1.039   5.931  0.0035 -0.0328 -2.0782
15753TIP3    H268675   4.103   0.927   6.013 -3.1352 -0.7188 -0.4867
15754TIP3   OH268676   6.072   5.791   2.611 -0.2295  0.0276 -0.3292
15754TIP3    H168677   6.081   5.797   2.706  1.2697 -0.2984 -0.4281
15754TIP3    H268678   6.078   5.882   2.580 -0.4171  0.1056 -0.1357
15755TIP3   OH268679   3.671   4.413   2.097  0.0007  0.4213  0.2570
15755TIP3    H168680   3.683   4.464   2.177 -0.8170 -0.4888  0.9913
15755TIP3    H268681   3.580   4.383   2.102 -0.1040  0.4750 -1.0970
15756TIP3   OH268682   5.950   3.587  16.128  0.3360 -0.2247  0.3392
15756TIP3    H168683   5.926   3.565  16.038  0.0739 -2.5257  0.9068
15756TIP3    H268684   5.871   3.571  16.179  0.6278  0.5633  1.0738
15757TIP3   OH268685   4.161   0.530   4.995  0.1496  0.1425  0.8282
15757TIP3    H168686   4.123   0.615   5.018 -1.4314 -0.3023  0.0185
15757TIP3    H268687   4.188   0.540   4.904 -1.5239 -0.6444  0.1890
15758TIP3   OH268688   3.187   1.013   2.829  0.6456 -0.3208 -0.4937
15758TIP3    H168689   3.263   1.071   2.831 -0.1656  0.8344  2.4703
15758TIP3    H268690   3.204   0.949   2.898 -0.6719 -0.5857 -0.3929
15759TIP3   OH268691   4.838   3.941   4.889  0.2379  0.1450 -0.4259
15759TIP3    H168692   4.888   3.861   4.902 -0.2322 -0.1747 -0.5815
15759TIP3    H268693   4.786   3.951   4.968 -0.0145  0.0728 -0.5824
15760TIP3   OH268694   2.049   5.194  13.196  0.0851  0.2828 -0.3254
15760TIP3    H168695   2.049   5.277  13.244 -0.0894  0.6987 -1.0324
15760TIP3    H268696   2.058   5.128  13.264  1.3073  0.9167  0.1611
15761TIP3   OH268697   5.811   5.220   0.663  0.1871 -0.2292  0.3939
15761TIP3    H168698   5.829   5.314   0.675 -0.4702  0.1073 -0.9861
15761TIP3    H268699   5.724   5.218   0.622 -0.3404 -1.5114  1.5142
15762TIP3   OH268700   6.335   2.329  17.019 -0.0592 -0.1356  0.3612
15762TIP3    H168701   6.415   2.287  17.051  0.0926 -0.6074 -0.5946
15762TIP3    H268702   6.301   2.377  17.094  0.5083 -0.8687  1.1068
15763TIP3   OH268703   5.069   0.935  15.044  0.4546 -0.6414  0.4287
15763TIP3    H168704   5.015   0.856  15.049  1.0148 -1.0513  0.1294
15763TIP3    H268705   5.018   0.996  14.992 -0.4087 -0.4541  1.4554
15764TIP3   OH268706   1.618   3.754   0.911  0.6192 -0.1675  0.3192
15764TIP3    H168707   1.678   3.739   0.984 -1.3375  1.2968  2.3462
15764TIP3    H268708   1.600   3.848   0.914  0.8190  0.0430 -2.4121
15765TIP3   OH268709   3.106   1.733   5.497  0.3983  0.5630  0.3250
15765TIP3    H168710   3.185   1.738   5.552  1.0355  2.7135 -0.6661
15765TIP3    H268711   3.071   1.822   5.498 -1.2365 -0.0459 -0.4017
15766TIP3   OH268712   3.149   5.841  16.328  0.1453  0.3757 -0.1929
15766TIP3    H168713   3.198   5.859  16.408  0.6129 -1.8274  0.0598
15766TIP3    H268714   3.060   5.821  16.359  0.0199  0.6703 -0.3489
15767TIP3   OH268715   1.824   4.140   0.877 -0.3203  0.3971  0.4199
15767TIP3    H168716   1.814   4.053   0.838  0.2453  0.7215 -0.4745
15767TIP3    H268717   1.793   4.129   0.967 -0.9510 -0.5478  0.1098
15768TIP3   OH268718   5.719   5.564  17.152  0.1417  0.1434  0.5780
15768TIP3    H168719   5.684   5.617  17.080 -1.0580 -2.3156 -0.7903
15768TIP3    H268720   5.717   5.474  17.119 -1.3125 -1.2553  3.9640
15769TIP3   OH268721   4.880   3.942  16.340  0.1942  0.7970  0.6178
15769TIP3    H168722   4.928   3.889  16.403 -0.1684 -0.1163  0.1416
15769TIP3    H268723   4.848   3.879  16.275  1.1754  1.7971 -0.8802
15770TIP3   OH268724   1.800   0.358   2.686  0.0847 -0.0071  0.1078
15770TIP3    H168725   1.817   0.448   2.656  2.6510 -0.2992  0.4027
15770TIP3    H268726   1.751   0.318   2.614 -1.1628  1.6011 -0.0088
15771TIP3   OH268727   2.378   2.044  16.708 -0.3201  0.4017  0.2920
15771TIP3    H168728   2.451   2.105  16.711  0.6532 -0.7803  1.4664
15771TIP3    H268729   2.317   2.076  16.774 -1.3376  1.8764 -1.2562
15772TIP3   OH268730   4.327   3.540  12.259 -0.0968 -0.3212  0.0440
15772TIP3    H168731   4.406   3.590  12.281  0.5398 -1.0064 -0.6216
15772TIP3    H268732   4.307   3.492  12.339 -0.0708  0.1618  0.3448
15773TIP3   OH268733   3.950   2.731   5.783 -0.5447  0.0524  0.4651
15773TIP3    H168734   3.989   2.652   5.821  2.2846  1.1710  0.1169
15773TIP3    H268735   3.903   2.772   5.855  0.6312 -0.3481  1.4922
15774TIP3   OH268736   5.439   5.206  11.707  0.2194  0.6224  0.0008
15774TIP3    H168737   5.472   5.295  11.718  0.0207  0.7840 -0.6332
15774TIP3    H268738   5.443   5.167  11.794 -0.0799  1.3875  0.3648
15775TIP3   OH268739   0.603   6.681  16.553  0.3746 -0.0318  0.4910
15775TIP3    H168740   0.537   6.652  16.617 -0.2265  0.6838  0.2166
15775TIP3    H268741   0.608   6.776  16.565 -1.0450  0.3924 -1.6709
15776TIP3   OH268742   5.539   1.639  17.150 -0.2380 -0.1453  0.1421
15776TIP3    H168743   5.631   1.666  17.154 -0.1490 -0.5152  0.6492
15776TIP3    H268744   5.491   1.718  17.175 -0.0820  0.1647 -0.5132
15777TIP3   OH268745   2.235   2.076   4.760  0.3086  0.1306 -0.7985
15777TIP3    H168746   2.241   2.144   4.693  1.0499  1.1834  0.2654
15777TIP3    H268747   2.246   2.124   4.843 -0.6092 -1.1064  0.0792
15778TIP3   OH268748   5.608   1.236   2.991  0.6825  0.5957 -0.3098
15778TIP3    H168749   5.598   1.156   3.043 -0.5593  1.0416  0.1734
15778TIP3    H268750   5.679   1.216   2.929 -0.5436 -1.3987 -1.1592
15779TIP3   OH268751   3.492   5.029  16.242 -0.5190  0.1795 -0.3065
15779TIP3    H168752   3.434   5.038  16.166  0.1144  2.1390 -0.6201
15779TIP3    H268753   3.500   5.118  16.276  2.4721  0.0495 -0.4280
15780TIP3   OH268754   4.986   4.474  17.038 -0.1080 -0.4619  0.3532
15780TIP3    H168755   5.067   4.429  17.017  0.0428 -0.5872  1.1888
15780TIP3    H268756   4.930   4.407  17.076 -0.3492 -0.2251  0.4221
15781TIP3   OH268757   4.871   4.502   1.694  0.3946 -0.2216 -0.1069
15781TIP3    H168758   4.850   4.575   1.637  0.1894 -0.5813 -0.5007
15781TIP3    H268759   4.817   4.430   1.661  2.0274 -1.0973 -0.9709
15782TIP3   OH268760   1.035   2.802   5.046  0.4103 -0.7387 -0.1362
15782TIP3    H168761   1.081   2.811   5.129 -0.5470 -0.5918  0.3938
15782TIP3    H268762   1.087   2.853   4.984  0.9156 -0.5266  0.4538
15783TIP3   OH268763   4.457   4.885   0.271 -0.8579 -0.4396  0.4805
15783TIP3    H168764   4.408   4.967   0.260 -2.0420 -1.1762  0.0758
15783TIP3    H268765   4.430   4.852   0.357 -0.6735 -0.6024  0.4762
15784TIP3   OH268766   2.988   3.817  15.882 -0.5994 -0.8283  0.1284
15784TIP3    H168767   2.996   3.781  15.971 -2.4093 -1.4966  0.0637
15784TIP3    H268768   2.961   3.908  15.896  1.2263 -0.2686  0.2547
15785TIP3   OH268769   5.119   1.475   4.502 -0.6327 -0.2913 -0.1665
15785TIP3    H168770   5.076   1.422   4.435 -0.2799 -0.9436  0.1059
15785TIP3    H268771   5.154   1.411   4.564  0.2360  0.2380 -0.0899
15786TIP3   OH268772   1.668   6.207  13.795  0.1007 -0.6108  0.7621
15786TIP3    H168773   1.663   6.300  13.819 -0.6296 -0.8151  1.4686
15786TIP3    H268774   1.718   6.166  13.865  1.1471 -0.6311  0.0259
15787TIP3   OH268775   0.098   6.659  12.195 -0.6624 -0.1507  0.2118
15787TIP3    H168776   0.027   6.717  12.225 -0.8283 -1.3192  2.2250
15787TIP3    H268777   0.097   6.669  12.099 -4.7303 -1.4028 -0.0568
15788TIP3   OH268778   2.090   0.632   4.119  0.3794  0.1430 -0.3516
15788TIP3    H168779   2.166   0.581   4.092 -0.5161 -0.5285 -1.7197
15788TIP3    H268780   2.025   0.566   4.145 -0.7607  0.5176 -2.0536
15789TIP3   OH268781   1.698   4.596   0.652 -0.1451 -0.0971 -0.1842
15789TIP3    H168782   1.754   4.597   0.730  1.6393 -0.3360 -1.4003
15789TIP3    H268783   1.641   4.520   0.665  0.9335 -0.8480  0.3743
15790TIP3   OH268784   3.842   3.841   0.786  0.5943 -0.2814  0.5066
15790TIP3    H168785   3.904   3.903   0.748 -1.2320 -0.0539 -2.3372
15790TIP3    H268786   3.805   3.795   0.711 -3.4051  0.2861  1.9245
15791TIP3   OH268787   1.202   6.106  14.598  0.1413 -0.0460  0.4448
15791TIP3    H168788   1.163   6.089  14.684 -0.0566 -0.2505  0.3157
15791TIP3    H268789   1.159   6.186  14.567 -0.0436 -0.1681  0.3840
15792TIP3   OH268790   6.455   6.469   4.976  0.7290  0.2114 -0.5800
15792TIP3    H168791   6.387   6.421   4.929 -0.9435  1.2857  0.6228
15792TIP3    H268792   6.407   6.525   5.037  2.7072  1.1153  0.2378
15793TIP3   OH268793   6.278   0.411   4.428  0.5847  0.1774 -0.0938
15793TIP3    H168794   6.287   0.444   4.338  0.6567 -0.9896 -0.5363
15793TIP3    H268795   6.249   0.320   4.417 -0.6299  0.3963  1.1009
15794TIP3   OH268796   2.021   2.434  11.175  0.7021 -0.0328  0.1242
15794TIP3    H168797   2.067   2.517  11.186  1.7506 -0.4718 -0.8107
15794TIP3    H268798   1.933   2.459  11.146  0.2646  0.8113  1.9829
15795TIP3   OH268799   6.764   0.137   5.822 -0.0162 -0.4615 -0.1783
15795TIP3    H168800   6.716   0.058   5.798  0.3073 -0.4446 -0.8894
15795TIP3    H268801   6.842   0.104   5.867  0.8765 -0.6333 -1.7832
15796TIP3   OH268802   1.161   6.056  12.367 -0.0898  0.1941  0.3415
15796TIP3    H168803   1.194   5.967  12.353  1.4716  0.5623  1.4641
15796TIP3    H268804   1.078   6.058  12.319 -0.2823 -1.9327  0.4927
15797TIP3   OH268805   2.025   6.349  13.001  0.2258 -0.4321  0.7059
15797TIP3    H168806   1.974   6.422  12.966  0.9581 -0.2918 -0.0746
15797TIP3    H268807   2.089   6.390  13.059  0.1539 -0.5209  0.8498
15798TIP3   OH268808   5.582   1.376   4.205 -0.5350  0.4401  0.1396
15798TIP3    H168809   5.628   1.428   4.139 -2.2065 -0.5698 -1.9209
15798TIP3    H268810   5.614   1.287   4.191 -2.0683 -0.0433 -0.4293
15799TIP3   OH268811   3.942   5.325   1.519 -0.3542  0.1560  0.2297
15799TIP3    H168812   4.015   5.362   1.468 -1.0830  0.5048 -0.5817
15799TIP3    H268813   3.959   5.352   1.609 -0.1060  1.2421 -0.1355
15800TIP3   OH268814   0.074   2.108   1.905 -0.0221 -0.3886  0.5374
15800TIP3    H168815   0.016   2.162   1.959  1.8847  1.3481  0.9181
15800TIP3    H268816   0.041   2.019   1.918 -0.9134  0.2147  2.9197
15801TIP3   OH268817   2.757   4.126  15.838 -0.6118  0.3449  0.8190
15801TIP3    H168818   2.708   4.147  15.917 -1.2815 -1.1212  0.8203
15801TIP3    H268819   2.759   4.208  15.788 -0.3721  1.2302  2.2253
15802TIP3   OH268820   0.735   1.908  15.718 -0.1258 -0.3945  0.3895
15802TIP3    H168821   0.757   1.968  15.647  1.2100 -1.2100  0.0650
15802TIP3    H268822   0.673   1.956  15.772 -1.5537  0.0726 -1.5626
15803TIP3   OH268823   0.255   4.677   2.366 -0.6542 -0.6041 -0.3938
15803TIP3    H168824   0.262   4.722   2.450  0.2024  3.3181 -2.3393
15803TIP3    H268825   0.313   4.601   2.374 -0.7157 -0.4410  2.5155
15804TIP3   OH268826   2.810   6.144   4.762  0.6109 -0.0571  0.4869
15804TIP3    H168827   2.765   6.066   4.795  3.6591 -1.4397  1.8022
15804TIP3    H268828   2.844   6.117   4.676  1.6632 -0.2388  0.9422
15805TIP3   OH268829   4.276   0.397  14.887 -0.4087 -0.2561 -0.0713
15805TIP3    H168830   4.365   0.383  14.920 -0.1715  0.4537 -0.4069
15805TIP3    H268831   4.224   0.328  14.930  0.2348 -0.4680  0.3850
15806TIP3   OH268832   2.604   4.332  16.670 -0.3650 -0.4472  0.0659
15806TIP3    H168833   2.566   4.279  16.739 -0.0538 -0.8446 -0.0670
15806TIP3    H268834   2.559   4.416  16.677 -1.1345 -0.8499  0.0205
15807TIP3   OH268835   2.716   3.607  15.576  0.4781  0.1610  0.9089
15807TIP3    H168836   2.712   3.700  15.600  1.2814  0.6376 -0.6710
15807TIP3    H268837   2.807   3.593  15.550 -0.4426  0.0051 -2.6997
15808TIP3   OH268838   3.498   4.149   1.919 -0.3352  0.5313 -0.1547
15808TIP3    H168839   3.585   4.188   1.930 -0.3764  0.9594 -1.1880
15808TIP3    H268840   3.437   4.223   1.925 -0.6711  0.1925  0.8693
15809TIP3   OH268841   6.303   2.346   1.261 -0.2107  0.1451  0.4728
15809TIP3    H168842   6.289   2.439   1.277 -0.6345  0.4350 -1.2997
15809TIP3    H268843   6.256   2.302   1.331 -2.3057  1.2645 -0.1267
15810TIP3   OH268844   3.816   6.536  15.318 -0.3072 -0.2919 -0.2226
15810TIP3    H168845   3.774   6.482  15.252 -1.1776 -0.0313  0.1118
15810TIP3    H268846   3.901   6.494  15.333 -0.9971 -1.5959  0.0786
15811TIP3   OH268847   3.692   2.408  13.543  0.4051  0.5200  0.9835
15811TIP3    H168848   3.628   2.471  13.508  0.8362 -0.1675 -1.2069
15811TIP3    H268849   3.774   2.456  13.545  0.6976  0.1345 -0.5200
15812TIP3   OH268850   4.595   3.490  14.113 -0.0530  0.1105 -0.2255
15812TIP3    H168851   4.582   3.556  14.182  1.6552  1.4390 -1.1269
15812TIP3    H268852   4.609   3.541  14.034  0.4429 -1.3754 -1.1151
15813TIP3   OH268853   5.391   0.279  14.756 -0.5929  0.3987  0.6001
15813TIP3    H168854   5.481   0.260  14.729 -0.6025 -0.2719  1.0318
15813TIP3    H268855   5.389   0.260  14.850 -1.0453  0.9374  0.7039
15814TIP3   OH268856   2.454   1.044  12.433  0.4208  0.9047  0.2609
15814TIP3    H168857   2.473   0.996  12.352  0.3602  0.1576  0.6833
15814TIP3    H268858   2.470   1.136  12.410 -0.6191  0.8208 -0.8988
15815TIP3   OH268859   0.966   6.032   5.473 -0.5704 -0.2312 -0.5141
15815TIP3    H168860   0.985   6.096   5.541 -0.2615 -0.6445 -0.2021
15815TIP3    H268861   0.874   6.046   5.452  0.1351  2.1882 -2.4659
15816TIP3   OH268862   3.940   2.513  13.611  0.3093  0.2762 -0.7107
15816TIP3    H168863   3.898   2.575  13.671  0.7041 -0.3441  0.2317
15816TIP3    H268864   4.020   2.556  13.583  1.4075 -0.4004  1.2043
15817TIP3   OH268865   3.589   4.969  16.552  0.1960 -0.3890  0.0155
15817TIP3    H168866   3.502   4.944  16.582 -0.4211  0.7930 -0.6988
15817TIP3    H268867   3.581   4.975  16.456  0.5342  1.4690  0.0590
15818TIP3   OH268868   5.126   0.901  13.353 -0.2718 -0.6797 -0.5080
15818TIP3    H168869   5.210   0.949  13.349  0.1720 -1.3683  0.2962
15818TIP3    H268870   5.107   0.879  13.262 -0.7203  1.4008 -0.9590
15819TIP3   OH268871   1.341   4.597   1.743 -0.0672  0.1539  0.2587
15819TIP3    H168872   1.267   4.558   1.790  0.5754  0.7734  1.8374
15819TIP3    H268873   1.302   4.665   1.689 -0.9621 -1.3066 -1.0263
15820TIP3   OH268874   2.728   1.790  15.650 -0.6166  0.0444 -0.0057
15820TIP3    H168875   2.694   1.752  15.569  1.5980 -0.9703 -0.5286
15820TIP3    H268876   2.753   1.879  15.625  0.2660 -0.3336 -0.5395
15821TIP3   OH268877   6.648   0.959  15.265  0.1664 -0.6118 -0.4123
15821TIP3    H168878   6.681   1.026  15.204 -0.4455 -0.3714 -0.4929
15821TIP3    H268879   6.698   0.973  15.345 -0.7121  0.6906 -0.0546
15822TIP3   OH268880   1.107   4.248   5.813  0.1702 -0.0821  0.3084
15822TIP3    H168881   1.052   4.296   5.750  0.7006  0.5494  0.3159
15822TIP3    H268882   1.148   4.317   5.866  0.5683 -0.5696  0.6397
15823TIP3   OH268883   5.849   6.504   6.296  0.0425  0.1265 -0.4285
15823TIP3    H168884   5.887   6.485   6.210 -0.9004  0.3002 -0.8987
15823TIP3    H268885   5.796   6.583   6.282 -0.0955  0.1712  0.3167
15824TIP3   OH268886   5.738   0.478   0.611 -0.1038 -0.0352  0.4734
15824TIP3    H168887   5.764   0.438   0.528 -0.0105  0.4051  0.2881
15824TIP3    H268888   5.645   0.497   0.600 -0.0302  0.2727  0.3633
15825TIP3   OH268889   6.030   2.173  12.020 -0.0174  0.2316 -0.1943
15825TIP3    H168890   6.104   2.123  12.055 -0.2261  0.8705  1.2498
15825TIP3    H268891   5.959   2.109  12.013 -0.2941  0.2750  1.6694
15826TIP3   OH268892   3.773   6.555  14.074  0.1242  0.0342 -0.3613
15826TIP3    H168893   3.735   6.473  14.107  0.0350  0.2827  0.1572
15826TIP3    H268894   3.732   6.567  13.989  1.1382 -1.1626 -1.0586
15827TIP3   OH268895   5.448   5.295   0.878  0.2696 -0.4669  0.1289
15827TIP3    H168896   5.537   5.262   0.887  0.0527 -1.6511 -1.6171
15827TIP3    H268897   5.457   5.377   0.829  0.4563 -0.1580  0.6754
15828TIP3   OH268898   1.228   0.146   6.152  0.8740  0.0714 -0.0100
15828TIP3    H168899   1.247   0.144   6.246 -2.2942 -1.3381  0.7218
15828TIP3    H268900   1.179   0.227   6.139 -0.8249 -0.9017  0.0999
15829TIP3   OH268901   1.163   1.687   2.944  0.3670  0.3918 -0.3508
15829TIP3    H168902   1.090   1.723   2.993  0.8983  0.9712  0.0278
15829TIP3    H268903   1.229   1.667   3.011  0.9688  0.8734 -0.7933
15830TIP3   OH268904   3.572   4.466  15.485 -0.0969  0.4701  0.1293
15830TIP3    H168905   3.582   4.501  15.573 -0.3613 -0.3940  0.5127
15830TIP3    H268906   3.638   4.513  15.433 -0.4657  1.5349  0.6114
15831TIP3   OH268907   4.483   2.275  16.196 -0.1139  0.2211 -0.0683
15831TIP3    H168908   4.463   2.282  16.289  0.0211 -0.7775  0.0463
15831TIP3    H268909   4.490   2.366  16.166  0.7579  0.5536  1.0818
15832TIP3   OH268910   4.495   6.745  14.472  0.6557  0.5490 -0.4263
15832TIP3    H168911   4.404   6.745  14.444  0.7151 -0.9215 -0.6693
15832TIP3    H268912   4.504   6.666  14.526  1.2889  1.7318  1.2918
15833TIP3   OH268913   0.436   3.674  12.960 -0.0231 -0.0504  0.1473
15833TIP3    H168914   0.454   3.581  12.947  0.6738  0.2516 -1.3011
15833TIP3    H268915   0.391   3.701  12.880 -0.8211  0.7184  0.8442
15834TIP3   OH268916   6.424   2.290  11.955  0.3637 -0.0221 -0.2757
15834TIP3    H168917   6.465   2.370  11.989 -0.3722 -0.6442  2.3132
15834TIP3    H268918   6.449   2.288  11.863  3.7040  1.1492  0.4488
15835TIP3   OH268919   3.486   6.739  12.243 -0.2366 -0.1609  0.6906
15835TIP3    H168920   3.502   6.751  12.149  0.9487  0.6297  0.9621
15835TIP3    H268921   3.442   6.654  12.249 -1.1270  0.1833 -0.6436
15836TIP3   OH268922   4.188   4.291   4.734  0.2076  0.3012 -0.3833
15836TIP3    H168923   4.283   4.285   4.733  0.1893 -0.0144 -1.0217
15836TIP3    H268924   4.159   4.215   4.683 -0.2832  1.6936 -2.3158
15837TIP3   OH268925   5.431   5.396   5.247 -0.2588 -0.3810  0.4044
15837TIP3    H168926   5.467   5.325   5.192 -1.8442 -1.6794  0.9808
15837TIP3    H268927   5.361   5.355   5.297 -1.4092  1.6720  0.5913
15838TIP3   OH268928   4.773   0.696  12.101  0.2101 -0.8991  0.1225
15838TIP3    H168929   4.868   0.687  12.103  0.1672 -1.8048 -0.6274
15838TIP3    H268930   4.742   0.646  12.177  0.3323 -0.7125  0.2930
15839TIP3   OH268931   3.920   1.006   2.471 -0.4844  0.3639  0.0329
15839TIP3    H168932   3.832   1.028   2.502 -1.5259 -2.9127 -0.1603
15839TIP3    H268933   3.924   0.911   2.480  3.0378  0.4025 -0.1135
15840TIP3   OH268934   1.333   3.621  13.588  0.2497 -0.2394 -0.5662
15840TIP3    H168935   1.259   3.585  13.636 -0.0135 -0.5554 -1.2074
15840TIP3    H268936   1.294   3.677  13.521  0.5175 -1.6928 -1.9727
15841TIP3   OH268937   3.376   5.725   4.817 -0.1004  0.0825 -0.2467
15841TIP3    H168938   3.397   5.664   4.746  0.2220  0.8690 -0.8536
15841TIP3    H268939   3.295   5.767   4.789  0.2233  0.6599 -0.3398
15842TIP3   OH268940   3.541   6.168   2.224 -0.4148 -0.4269 -0.4009
15842TIP3    H168941   3.486   6.227   2.276  2.3589  0.0108  2.3232
15842TIP3    H268942   3.560   6.218   2.144  1.5661  2.4676  1.6555
15843TIP3   OH268943   0.873   0.710   4.253  0.1395  0.7605  0.2824
15843TIP3    H168944   0.811   0.679   4.318 -0.1517  2.6904  1.0145
15843TIP3    H268945   0.959   0.695   4.293  0.1156 -0.8425 -0.2293
15844TIP3   OH268946   6.328   0.278   0.690  0.4168 -0.2542 -0.0387
15844TIP3    H168947   6.248   0.261   0.641  0.5507 -0.6102 -0.1347
15844TIP3    H268948   6.395   0.293   0.622  0.3971  0.2257  0.0400
15845TIP3   OH268949   2.041   3.315   5.268  0.0542 -0.0075 -0.0973
15845TIP3    H168950   1.979   3.346   5.202 -0.5205  0.8268  0.8072
15845TIP3    H268951   2.111   3.273   5.218 -0.2877  0.7419 -1.2333
15846TIP3   OH268952   5.120   0.005  11.749 -0.2770 -0.0047  0.1749
15846TIP3    H168953   5.213  -0.004  11.731 -0.5585  0.2735 -1.6676
15846TIP3    H268954   5.114   0.015  11.844  1.7151  1.6637  0.1905
15847TIP3   OH268955   5.692   4.391  15.283  0.4431 -0.2902 -0.0868
15847TIP3    H168956   5.718   4.344  15.204  0.6659 -2.7023  1.3191
15847TIP3    H268957   5.770   4.390  15.338  0.1551  0.9267  0.3640
15848TIP3   OH268958   5.628   3.645   1.981 -0.2977 -0.8928 -0.2461
15848TIP3    H168959   5.685   3.570   1.999  3.0840  1.1221 -1.5541
15848TIP3    H268960   5.585   3.623   1.899 -0.7018 -2.0956  0.2725
15849TIP3   OH268961   0.350   5.149  14.594  1.2741 -0.4238 -0.8722
15849TIP3    H168962   0.423   5.179  14.649  2.5583  0.2463 -2.8087
15849TIP3    H268963   0.328   5.063  14.628 -0.2909  1.2048  2.7921
15850TIP3   OH268964   5.535   0.434  13.576 -0.0629 -0.1376  0.1364
15850TIP3    H168965   5.519   0.529  13.580  2.3821  0.3641 -0.4305
15850TIP3    H268966   5.601   0.424  13.507 -0.3761 -2.2915  0.0888
15851TIP3   OH268967   3.938   3.777   3.522 -0.6080 -0.1421 -0.3210
15851TIP3    H168968   3.923   3.775   3.428 -1.7960  0.4289 -0.1552
15851TIP3    H268969   3.914   3.690   3.552 -2.1284  0.2610 -0.2930
15852TIP3   OH268970   1.093   3.354   0.632  0.3087  0.0081 -0.9813
15852TIP3    H168971   1.036   3.389   0.701 -0.0640 -2.0266 -0.1995
15852TIP3    H268972   1.032   3.316   0.569  0.7325  0.0193 -1.4031
15853TIP3   OH268973   1.423   2.660  12.176  0.2601  0.6518 -0.1019
15853TIP3    H168974   1.514   2.674  12.201 -0.1615 -0.2634  2.2437
15853TIP3    H268975   1.374   2.721  12.231 -0.5808  0.7372 -0.9343
15854TIP3   OH268976   5.072   5.791  13.516 -0.8992  0.1427 -0.1719
15854TIP3    H168977   5.100   5.760  13.602  0.7133 -0.3898 -0.8485
15854TIP3    H268978   5.031   5.716  13.475 -0.2358 -0.0788 -0.4488
15855TIP3   OH268979   0.168   3.903  12.741 -0.1564 -0.1537  0.4152
15855TIP3    H168980   0.169   3.986  12.789 -2.0292 -0.5030  1.1008
15855TIP3    H268981   0.239   3.913  12.677  1.2858  0.9879  2.0766
15856TIP3   OH268982   1.683   1.589  12.789 -0.1262 -0.2197 -0.5086
15856TIP3    H168983   1.604   1.550  12.752 -0.6915  0.5276 -0.0886
15856TIP3    H268984   1.685   1.559  12.880 -1.7048  2.3441  0.4705
15857TIP3   OH268985   3.917   2.493   1.054 -0.2569  0.1855  0.2712
15857TIP3    H168986   3.826   2.478   1.080 -0.3268 -0.6701 -0.4512
15857TIP3    H268987   3.911   2.545   0.974 -0.0529  1.9343  1.3225
15858TIP3   OH268988   2.754   1.961   4.915  0.2869  0.4339 -0.6653
15858TIP3    H168989   2.778   1.992   4.828  2.6045 -0.1595 -0.3081
15858TIP3    H268990   2.778   1.868   4.914  1.2915  0.6412  0.8733
15859TIP3   OH268991   5.957   6.558   2.180 -0.3833  0.2867  0.4774
15859TIP3    H168992   5.888   6.563   2.114 -0.8236 -0.2984  0.8766
15859TIP3    H268993   6.015   6.631   2.160 -0.2590 -0.1420 -0.8202
15860TIP3   OH268994   0.501   3.493   1.345 -0.1564  0.2918 -0.3415
15860TIP3    H168995   0.479   3.580   1.312  1.5295  0.3265 -1.5348
15860TIP3    H268996   0.581   3.469   1.297  1.4804 -0.4166  2.4721
15861TIP3   OH268997   0.941   4.387   0.508 -0.4962 -0.2082 -0.4122
15861TIP3    H168998   1.035   4.400   0.490 -0.1103  0.6414  1.8742
15861TIP3    H268999   0.935   4.296   0.537  0.2350  0.4860  2.2716
15862TIP3   OH269000   5.673   0.548   1.346 -0.4101  0.1029  0.4207
15862TIP3    H169001   5.668   0.481   1.414 -0.9124 -1.2544 -0.9080
15862TIP3    H269002   5.744   0.520   1.289  0.0835  1.2949  0.4054
15863TIP3   OH269003   1.099   3.730   4.286 -0.0180 -0.2926  0.3251
15863TIP3    H169004   1.104   3.820   4.254  0.4184 -0.0362  1.0767
15863TIP3    H269005   1.183   3.716   4.331 -0.6015 -0.6238  1.3506
15864TIP3   OH269006   5.980   3.165   5.056 -0.3382 -0.7632  0.1657
15864TIP3    H169007   5.970   3.188   4.963  0.9066 -0.5222  0.0709
15864TIP3    H269008   5.947   3.242   5.102 -0.6005 -0.7242 -0.0783
15865TIP3   OH269009   1.662   2.133  11.237  0.1033  0.1344  0.7070
15865TIP3    H169010   1.651   2.205  11.175 -1.5271 -1.3324 -0.8085
15865TIP3    H269011   1.661   2.175  11.323 -1.4846  1.8715 -0.0868
15866TIP3   OH269012   6.310   1.776  11.598  0.7025 -0.1693 -0.1926
15866TIP3    H169013   6.285   1.691  11.635  0.4401  1.0008  2.5582
15866TIP3    H269014   6.396   1.795  11.637  0.7237  0.8743 -0.7161
15867TIP3   OH269015   4.132   5.111  16.919 -0.1598  0.0371 -0.4134
15867TIP3    H169016   4.169   5.117  16.831 -1.9385  1.6135 -1.1102
15867TIP3    H269017   4.139   5.018  16.941  0.7364 -0.3138 -2.0226
15868TIP3   OH269018   2.668   2.137  11.818  0.2453 -0.0722  0.4937
15868TIP3    H169019   2.574   2.154  11.807 -0.0888 -1.3964  1.0412
15868TIP3    H269020   2.679   2.129  11.913  0.2695 -3.0143  0.3313
15869TIP3   OH269021   0.273   2.639  16.587 -0.1235 -0.2376 -0.3357
15869TIP3    H169022   0.254   2.642  16.493  2.3975  0.5296 -0.8814
15869TIP3    H269023   0.312   2.552  16.600 -0.0259 -0.1530 -0.0785
15870TIP3   OH269024   6.241   3.557   5.407  0.2077  0.2967  0.1740
15870TIP3    H169025   6.207   3.540   5.319 -0.2291 -2.0206  0.7316
15870TIP3    H269026   6.165   3.587   5.457 -0.0321 -0.4631  0.2767
15871TIP3   OH269027   0.349   4.577   1.498  0.0304 -0.2482  0.1900
15871TIP3    H169028   0.347   4.619   1.584 -0.5373  0.9508 -0.3941
15871TIP3    H269029   0.311   4.641   1.438 -1.9613 -1.9942 -0.5729
15872TIP3   OH269030   2.984   3.768   5.751  0.1027 -0.0833  0.0030
15872TIP3    H169031   2.959   3.675   5.748  0.3649 -0.1393 -1.5130
15872TIP3    H269032   2.997   3.791   5.659  1.1789  1.1604  0.4455
15873TIP3   OH269033   5.113   0.271   3.652 -0.2834 -0.3046  0.2236
15873TIP3    H169034   5.204   0.280   3.626  0.1109 -0.4488  1.5256
15873TIP3    H269035   5.072   0.354   3.628  0.1666 -0.2551 -0.3920
15874TIP3   OH269036   2.546   6.226  14.640 -0.5368  0.1182  0.2484
15874TIP3    H169037   2.582   6.269  14.563 -0.7104  1.3201  0.8260
15874TIP3    H269038   2.454   6.253  14.643 -0.6812 -0.3743  0.5696
15875TIP3   OH269039   6.634   5.843  13.877  0.2676 -0.6341  0.1737
15875TIP3    H169040   6.622   5.750  13.857 -1.1990 -0.2484 -0.8810
15875TIP3    H269041   6.557   5.886  13.840  0.6952  0.9612  1.0402
15876TIP3   OH269042   5.704   5.607   4.171 -0.2650  0.4941  0.1650
15876TIP3    H169043   5.753   5.524   4.168 -0.5554  0.3499 -1.3652
15876TIP3    H269044   5.640   5.599   4.100 -1.5231  1.2932  1.1758
15877TIP3   OH269045   3.761   4.510   2.676  0.0864  0.0976  0.0226
15877TIP3    H169046   3.728   4.454   2.746 -1.1790  1.7571  0.8377
15877TIP3    H269047   3.706   4.490   2.601 -1.2350  1.0878  0.6772
15878TIP3   OH269048   3.794   4.121   3.223  0.3862 -0.2512 -0.8867
15878TIP3    H169049   3.849   4.157   3.153  2.8736 -0.9625  0.5981
15878TIP3    H269050   3.792   4.027   3.206 -0.1444 -0.2728 -0.7428
15879TIP3   OH269051   4.934   0.832   5.333  0.0758  0.1439 -0.7920
15879TIP3    H169052   4.854   0.786   5.357 -0.4100  1.3466 -0.0025
15879TIP3    H269053   4.994   0.764   5.303 -0.6549 -0.9630  0.2159
15880TIP3   OH269054   3.298   4.847  12.950  0.6123  0.2124 -0.1257
15880TIP3    H169055   3.301   4.942  12.942  0.2907  0.3451  1.0218
15880TIP3    H269056   3.383   4.823  12.987  0.9694 -0.0327 -1.0937
15881TIP3   OH269057   0.404   1.203   3.599  0.6483  0.0414 -0.0192
15881TIP3    H169058   0.440   1.291   3.587 -0.1860  0.2933 -0.7660
15881TIP3    H269059   0.372   1.178   3.512 -2.5249  0.5239  0.8923
15882TIP3   OH269060   6.625   6.599  15.813 -0.2353  0.3695  0.9854
15882TIP3    H169061   6.713   6.561  15.811  0.0238  0.9699  0.8878
15882TIP3    H269062   6.638   6.690  15.786 -0.8934  0.4458  0.9268
15883TIP3   OH269063   5.894   1.181  14.795  0.4278 -0.3918 -0.1406
15883TIP3    H169064   5.804   1.209  14.777 -0.0519 -1.3582  0.6304
15883TIP3    H269065   5.916   1.224  14.878  1.7891  2.1981 -1.7062
15884TIP3   OH269066   3.458   2.420  15.619 -0.5733  0.0969  0.1242
15884TIP3    H169067   3.398   2.432  15.693 -0.5178  0.4692  0.1100
15884TIP3    H269068   3.482   2.509  15.594 -1.7234  0.0483 -1.2658
15885TIP3   OH269069   5.586   2.550   3.567  0.0339 -0.3723  0.1331
15885TIP3    H169070   5.622   2.622   3.516 -0.6270 -1.2646 -1.6657
15885TIP3    H269071   5.589   2.581   3.658  0.5901  1.5448 -0.5013
15886TIP3   OH269072   3.842   0.644   5.034  0.0736 -0.5222  0.2305
15886TIP3    H169073   3.888   0.722   5.002 -0.7992  0.1672  0.6264
15886TIP3    H269074   3.778   0.678   5.096 -0.0309 -1.6038  0.7297
15887TIP3   OH269075   6.407   0.159  14.115 -0.3368 -0.0023  0.3276
15887TIP3    H169076   6.477   0.096  14.132 -0.8221 -0.1240  2.0277
15887TIP3    H269077   6.441   0.243  14.145 -0.5075  0.1567  0.0876
15888TIP3   OH269078   4.494   1.816  15.388 -0.1859 -0.3164 -0.1052
15888TIP3    H169079   4.415   1.764  15.376 -1.0898  1.2506 -1.3173
15888TIP3    H269080   4.492   1.881  15.318  2.1829 -0.1967 -0.1709
15889TIP3   OH269081   3.741   1.931   2.413 -0.0185  0.1184  0.0566
15889TIP3    H169082   3.783   1.910   2.496  1.5489 -0.2794 -0.7845
15889TIP3    H269083   3.664   1.874   2.410  1.2087 -1.6595  0.2262
15890TIP3   OH269084   0.483   3.357   3.780 -0.3880  0.0528  0.6028
15890TIP3    H169085   0.406   3.414   3.788  1.1900  2.5420 -0.8221
15890TIP3    H269086   0.451   3.282   3.730 -1.6859  1.5215 -0.8965
15891TIP3   OH269087   3.973   0.890   3.553 -0.0693 -0.4982  0.0695
15891TIP3    H169088   3.989   0.958   3.488  1.2333  0.1350  0.9909
15891TIP3    H269089   3.902   0.925   3.608  1.2074  0.5753  1.0924
15892TIP3   OH269090   0.847   6.710  13.316  0.2569  0.2444 -0.3192
15892TIP3    H169091   0.778   6.725  13.251 -0.5405  0.1311  0.4952
15892TIP3    H269092   0.905   6.645  13.274 -1.0441 -0.9370 -0.3661
15893TIP3   OH269093   6.541   5.080   5.828 -0.2534  0.5294 -0.4790
15893TIP3    H169094   6.620   5.056   5.780 -0.7823  0.9773 -1.6106
15893TIP3    H269095   6.558   5.169   5.860  0.4983 -0.1389  1.0787
15894TIP3   OH269096   5.476   3.671  13.489  0.1068 -0.1149  0.1412
15894TIP3    H169097   5.436   3.756  13.471 -0.6236 -0.2431  1.0970
15894TIP3    H269098   5.412   3.607  13.457  1.2798 -0.3544 -1.9459
15895TIP3   OH269099   1.093   1.090   0.663  1.0264  0.0568 -0.9243
15895TIP3    H169100   1.099   1.089   0.759  1.5316 -0.2243 -0.9557
15895TIP3    H269101   1.009   1.048   0.644 -0.0440  1.8812 -0.5440
15896TIP3   OH269102   5.983   3.461  12.268 -0.2495  0.5251  0.2697
15896TIP3    H169103   5.956   3.521  12.337 -0.5520  2.2614 -1.2819
15896TIP3    H269104   5.904   3.444  12.218 -0.2617 -1.5789  0.9334
15897TIP3   OH269105   6.770   5.058  11.962 -0.3795  0.2996 -0.7453
15897TIP3    H169106   6.709   5.132  11.963 -1.4590 -0.5733  0.1884
15897TIP3    H269107   6.855   5.098  11.944 -0.8918  1.8047 -0.0135
15898TIP3   OH269108   1.925   0.407  14.560  0.1376 -0.0342 -0.0019
15898TIP3    H169109   1.893   0.409  14.650 -0.0474 -0.4743 -0.0555
15898TIP3    H269110   2.020   0.403  14.568  0.1787  1.0462  0.1600
15899TIP3   OH269111   5.590   0.125  16.012  0.1340  0.2211  0.4983
15899TIP3    H169112   5.495   0.137  16.020 -0.2577 -0.0529 -2.5480
15899TIP3    H269113   5.621   0.205  15.971  0.1651 -1.7436 -3.9128
15900TIP3   OH269114   3.884   1.551  13.876  0.0243 -0.1161 -1.0257
15900TIP3    H169115   3.802   1.519  13.914  0.3213  1.7811  1.4918
15900TIP3    H269116   3.871   1.543  13.782 -2.7981 -0.4986 -0.7097
15901TIP3   OH269117   1.486   6.149   0.221 -0.5705  0.1864  0.6997
15901TIP3    H169118   1.495   6.187   0.308  1.2773 -0.7152  0.9487
15901TIP3    H269119   1.496   6.055   0.234  2.5202  0.1893 -0.7194
15902TIP3   OH269120   5.615   4.738   6.148 -0.4626 -0.2590  0.1662
15902TIP3    H169121   5.612   4.661   6.092 -1.4460 -1.0412  1.2371
15902TIP3    H269122   5.688   4.723   6.208 -1.0166 -0.6644  0.7589
15903TIP3   OH269123   0.723   4.467   2.976  0.2333 -0.2640 -0.2893
15903TIP3    H169124   0.732   4.397   2.912  0.4913 -0.0984 -0.4395
15903TIP3    H269125   0.801   4.522   2.962 -0.2366  0.3571 -0.5603
15904TIP3   OH269126   3.128   0.766   5.864  0.4589  0.1903 -0.0242
15904TIP3    H169127   3.097   0.813   5.942 -0.8418 -1.6793  0.6447
15904TIP3    H269128   3.130   0.674   5.891  1.3190 -0.3487 -1.7997
15905TIP3   OH269129   5.328   2.070  11.518 -0.0685 -0.3101 -0.0427
15905TIP3    H169130   5.249   2.037  11.560 -0.3293  0.4755  0.1138
15905TIP3    H269131   5.309   2.070  11.425  0.2037 -1.2733 -0.1050
15906TIP3   OH269132   3.736   5.542  12.664  0.4585 -0.2051 -0.3973
15906TIP3    H169133   3.744   5.477  12.594 -2.2761 -0.7656 -0.2745
15906TIP3    H269134   3.651   5.583  12.650 -0.8015 -1.1711  3.1935
15907TIP3   OH269135   1.249   5.892  17.032  0.1944  0.3162 -0.1476
15907TIP3    H169136   1.312   5.894  17.103  0.6560  0.4258 -0.5536
15907TIP3    H269137   1.303   5.892  16.952 -0.3063 -0.0020 -0.4925
15908TIP3   OH269138   2.156   2.629   3.490  0.9069 -0.3536  0.4810
15908TIP3    H169139   2.073   2.650   3.446  1.2377  0.2528  0.1306
15908TIP3    H269140   2.139   2.547   3.535 -0.1522  0.1815  1.1049
15909TIP3   OH269141   1.859   5.391   1.032 -0.2229 -0.2532  0.1339
15909TIP3    H169142   1.799   5.398   1.106 -0.5804 -0.3008 -0.1462
15909TIP3    H269143   1.927   5.331   1.061 -1.1043 -1.3902 -0.0594
15910TIP3   OH269144   2.358   6.311  11.710 -0.4606  0.1593 -0.3625
15910TIP3    H169145   2.345   6.370  11.636  0.7696  0.1122 -0.6519
15910TIP3    H269146   2.370   6.369  11.786  0.9724  0.3277 -0.6827
15911TIP3   OH269147   1.914   3.659  15.372 -0.4096 -0.8991  0.0791
15911TIP3    H169148   1.841   3.600  15.390  0.9580 -2.0135  2.6381
15911TIP3    H269149   1.974   3.645  15.446  1.1327  1.9548 -0.4858
15912TIP3   OH269150   3.737   5.898   2.853  0.2465 -0.2895  0.1030
15912TIP3    H169151   3.792   5.823   2.873 -0.4104 -0.9966 -0.6878
15912TIP3    H269152   3.663   5.891   2.914  0.5542  0.1348  0.5299
15913TIP3   OH269153   4.890   2.712  14.966 -0.2547 -0.2657  0.3090
15913TIP3    H169154   4.941   2.633  14.949  0.5139  0.1644  0.5402
15913TIP3    H269155   4.950   2.768  15.015 -0.4844  0.8045 -0.5947
15914TIP3   OH269156   6.524   3.801   0.559 -0.4822 -0.1723  0.0304
15914TIP3    H169157   6.432   3.781   0.577 -0.7980  1.6331  0.5279
15914TIP3    H269158   6.571   3.764   0.633 -0.6403 -2.0572 -0.7374
15915TIP3   OH269159   0.429   0.077   4.673 -0.0593  0.2757  0.2927
15915TIP3    H169160   0.361   0.066   4.607  1.1642 -1.2171 -0.8092
15915TIP3    H269161   0.434  -0.008   4.716  0.2877  0.7413  1.1935
15916TIP3   OH269162   2.571   3.531  16.010  0.1606 -0.6727 -0.2025
15916TIP3    H169163   2.477   3.518  16.021  0.4106 -1.9324  0.5660
15916TIP3    H269164   2.587   3.618  16.047 -0.5552 -0.8670  0.6065
15917TIP3   OH269165   6.190   1.975   5.990 -0.3141 -0.0643 -0.2973
15917TIP3    H169166   6.184   1.943   6.080 -1.1840  2.4490  0.6297
15917TIP3    H269167   6.110   2.027   5.978  0.3053  0.5410 -2.1558
15918TIP3   OH269168   0.472   4.927   2.388 -0.3923  0.1505 -0.1408
15918TIP3    H169169   0.383   4.960   2.399 -0.3862  0.4254 -0.8929
15918TIP3    H269170   0.465   4.833   2.402 -0.7320  0.2183  0.1592
15919TIP3   OH269171   3.214   5.265  11.593 -0.0952 -0.4394 -0.6878
15919TIP3    H169172   3.144   5.331  11.603  0.7303  0.5670 -1.3216
15919TIP3    H269173   3.209   5.214  11.674 -2.2471 -1.0951 -1.1561
15920TIP3   OH269174   2.751   0.766  10.612  0.1099 -0.0288 -0.2722
15920TIP3    H169175   2.663   0.765  10.574 -0.3767 -2.5035  0.7312
15920TIP3    H269176   2.804   0.712  10.553  0.7778  0.7712 -0.4266
15921TIP3   OH269177   0.196   2.446  12.046  0.1033 -0.0431  0.0047
15921TIP3    H169178   0.110   2.487  12.056  0.6037  1.0607 -0.0850
15921TIP3    H269179   0.213   2.448  11.952 -1.5011 -3.9724 -0.5608
15922TIP3   OH269180   2.143   0.317  11.922  0.2641  0.2796  0.2739
15922TIP3    H169181   2.219   0.346  11.973  1.1389  1.2236 -1.4971
15922TIP3    H269182   2.082   0.390  11.925  0.3875  0.4025 -0.1589
15923TIP3   OH269183   2.810   5.081  14.821  0.6943 -0.0358 -0.3886
15923TIP3    H169184   2.896   5.120  14.838  0.5747 -0.5449  1.6575
15923TIP3    H269185   2.766   5.143  14.763  2.0546  0.7427 -0.6124
15924TIP3   OH269186   1.068   1.138   3.091 -0.2916  0.2943  0.0508
15924TIP3    H169187   1.011   1.061   3.081 -0.2300  0.3980 -1.1586
15924TIP3    H269188   1.008   1.210   3.108 -0.3993  0.1199  0.4336
15925TIP3   OH269189   2.726   4.267  13.113  0.4221 -0.0356  0.4275
15925TIP3    H169190   2.727   4.175  13.137 -1.9380  0.0095  0.9429
15925TIP3    H269191   2.641   4.299  13.144  0.6020  1.9739 -0.9596
15926TIP3   OH269192   4.594   3.376   1.713  0.6780 -0.9606 -0.0073
15926TIP3    H169193   4.549   3.393   1.795  0.4565 -1.6258  0.0135
15926TIP3    H269194   4.658   3.308   1.734  0.9707 -0.7715 -0.2718
15927TIP3   OH269195   5.537   6.162   4.704 -0.2175 -0.1795 -0.2514
15927TIP3    H169196   5.621   6.190   4.739  0.2107 -1.0999 -0.5120
15927TIP3    H269197   5.533   6.203   4.617  0.8158 -1.6085 -1.0076
15928TIP3   OH269198   4.556   0.698   1.904  0.2113 -0.3059 -0.2360
15928TIP3    H169199   4.474   0.684   1.951 -0.0833 -0.9107 -0.9214
15928TIP3    H269200   4.606   0.757   1.961 -0.9630  0.6194 -0.1116
15929TIP3   OH269201   4.828   6.100  16.155  0.0834 -0.3507  0.2093
15929TIP3    H169202   4.749   6.061  16.118  0.4626 -1.5515  0.6008
15929TIP3    H269203   4.877   6.025  16.189  1.4280  0.3585 -0.1020
15930TIP3   OH269204   2.137   2.653   3.016  0.5752  0.3780 -0.1152
15930TIP3    H169205   2.185   2.647   2.933 -1.4053 -2.3452 -1.1798
15930TIP3    H269206   2.050   2.685   2.991  0.2544  0.4586  1.0688
15931TIP3   OH269207   2.997   5.931  11.222  0.2618 -0.2902 -0.1237
15931TIP3    H169208   2.935   5.868  11.259  0.3958 -0.7577 -0.6863
15931TIP3    H269209   3.054   5.953  11.295 -0.2050 -0.3056  0.2503
15932TIP3   OH269210   0.102   5.325   2.065  0.1040 -0.1132  0.0426
15932TIP3    H169211   0.119   5.414   2.036 -1.6916  0.7485  1.3834
15932TIP3    H269212   0.158   5.270   2.010 -0.0150  1.6847 -2.0151
15933TIP3   OH269213   4.175   4.690  12.954 -0.5696 -0.3846  0.1366
15933TIP3    H169214   4.205   4.780  12.961 -0.1002 -0.6409  2.0116
15933TIP3    H269215   4.085   4.697  12.921 -0.6696  0.8076  0.6116
15934TIP3   OH269216   0.585   4.846   2.668  0.8772 -0.1632 -0.4449
15934TIP3    H169217   0.604   4.864   2.760 -0.0632 -2.5759  0.2933
15934TIP3    H269218   0.537   4.923   2.638 -1.7543 -0.6516  2.0738
15935TIP3   OH269219   0.127   5.052  10.269 -0.3289  0.3841  0.1561
15935TIP3    H169220   0.133   5.126  10.329  0.1985  0.5146 -0.0554
15935TIP3    H269221   0.039   5.057  10.233 -1.3532 -0.7725  2.3119
15936TIP3   OH269222   1.402   0.742   5.662 -0.3563  0.3791 -0.3598
15936TIP3    H169223   1.456   0.676   5.705 -0.5659  0.0321 -0.6250
15936TIP3    H269224   1.329   0.757   5.722  0.1253  0.9781  0.0814
15937TIP3   OH269225   1.175   5.640   1.913 -0.3325 -0.4627  0.6616
15937TIP3    H169226   1.117   5.581   1.962 -0.7142 -0.1466  0.5970
15937TIP3    H269227   1.207   5.587   1.840 -0.7178 -0.5748  0.5733
15938TIP3   OH269228   3.933   6.796   3.731 -0.2156  0.1765  0.0851
15938TIP3    H169229   3.937   6.700   3.738  3.7049  0.0118 -1.7257
15938TIP3    H269230   3.864   6.812   3.666  0.5627 -1.6614 -1.2933
15939TIP3   OH269231   0.454   0.681  11.008  0.0541 -0.2556  0.1822
15939TIP3    H169232   0.413   0.652  10.926  0.2929 -0.5434  0.1627
15939TIP3    H269233   0.401   0.755  11.037  0.5856  0.5346 -0.7871
15940TIP3   OH269234   0.498   2.245  13.562  0.0837 -0.4377  1.0107
15940TIP3    H169235   0.508   2.339  13.575  1.8964  0.0310 -2.5625
15940TIP3    H269236   0.574   2.206  13.606  0.3974 -0.0265  0.8325
15941TIP3   OH269237   2.423   1.587  16.499  0.6147 -0.3555 -0.0800
15941TIP3    H169238   2.339   1.550  16.471  1.0000 -0.8366 -0.6324
15941TIP3    H269239   2.432   1.559  16.590  0.6234 -1.1302 -0.3121
15942TIP3   OH269240   6.563   1.256  14.823 -0.5437 -0.3506  0.3658
15942TIP3    H169241   6.643   1.208  14.803  0.2722  1.0085  0.2521
15942TIP3    H269242   6.507   1.243  14.747 -0.2401 -0.9274  0.2392
15943TIP3   OH269243   4.963   6.435   2.126  0.0071 -0.0174 -0.0420
15943TIP3    H169244   4.939   6.396   2.210  0.4915 -1.4635 -0.5507
15943TIP3    H269245   5.051   6.403   2.108 -0.3462 -0.2995 -1.4138
15944TIP3   OH269246   4.845   2.844   1.004  0.2451 -0.0373  0.1837
15944TIP3    H169247   4.800   2.896   1.071  1.4447  0.2604  0.7997
15944TIP3    H269248   4.917   2.803   1.051  0.6349 -0.4676 -0.7720
15945TIP3   OH269249   0.028   4.401   4.520  0.0374 -0.0406 -0.3066
15945TIP3    H169250   0.054   4.462   4.452  0.6941  0.6512  0.5349
15945TIP3    H269251   0.110   4.362   4.551 -0.3441 -1.1830 -0.6561
15946TIP3   OH269252   2.645   4.923   3.547 -0.0101  0.2202  0.6179
15946TIP3    H169253   2.550   4.922   3.560  0.0256 -0.1284  0.8825
15946TIP3    H269254   2.656   4.943   3.454 -0.3899 -1.0708  0.2696
15947TIP3   OH269255   0.978   6.357   4.976 -0.1809  0.7321 -0.0101
15947TIP3    H169256   1.047   6.350   4.910 -0.5340  0.3655 -0.3487
15947TIP3    H269257   0.960   6.450   4.983 -0.4596  0.7406 -0.7712
15948TIP3   OH269258   4.839   5.875   1.024 -0.4093 -0.3430 -0.1381
15948TIP3    H169259   4.934   5.862   1.030 -0.0816  1.4394 -0.9348
15948TIP3    H269260   4.818   5.928   1.100 -0.7183 -0.4405 -0.1557
15949TIP3   OH269261   2.991   1.466  15.961 -0.3971  0.1400 -0.6501
15949TIP3    H169262   2.990   1.524  16.037 -0.5355 -1.2226  0.4455
15949TIP3    H269263   3.075   1.482  15.918 -0.6570  1.5002 -0.6934
15950TIP3   OH269264   4.805   0.287  12.928 -0.6620  0.2836 -0.3522
15950TIP3    H169265   4.883   0.236  12.950  0.1488  1.5321 -0.2607
15950TIP3    H269266   4.764   0.306  13.012 -0.7290  0.1584 -0.3558
15951TIP3   OH269267   0.467   1.086   2.544 -0.2751 -0.1393 -0.6613
15951TIP3    H169268   0.537   1.021   2.542  0.3702  0.5546 -1.1787
15951TIP3    H269269   0.386   1.035   2.538  0.0783 -1.0911  1.6249
15952TIP3   OH269270   3.790   2.598  14.412 -0.0380  0.4413  1.0271
15952TIP3    H169271   3.743   2.591  14.328 -0.4258 -1.7352  1.3618
15952TIP3    H269272   3.876   2.559  14.394  0.9684  2.5681  0.9519
15953TIP3   OH269273   4.495   2.288  13.112  0.2104  0.2982 -0.4417
15953TIP3    H169274   4.546   2.228  13.166 -0.7900 -0.5537 -0.4138
15953TIP3    H269275   4.405   2.279  13.145  0.2335  3.0042  0.6737
15954TIP3   OH269276   1.209   6.688   2.570  0.1925  0.5065 -0.1087
15954TIP3    H169277   1.202   6.616   2.507  0.9854  0.0096  0.3609
15954TIP3    H269278   1.299   6.683   2.603 -0.3351  0.4566  1.4074
15955TIP3   OH269279   1.581   1.537  16.117 -0.1122 -0.6691 -0.2757
15955TIP3    H169280   1.584   1.512  16.209  0.0915  2.5310  0.7037
15955TIP3    H269281   1.488   1.545  16.097 -0.1789  1.7687  0.7038
15956TIP3   OH269282   0.240   3.382   4.034 -0.9248  0.1943  0.2960
15956TIP3    H169283   0.287   3.299   4.022  0.4404  0.6898  1.7209
15956TIP3    H269284   0.157   3.369   3.989 -0.4198 -1.6451 -0.2301
15957TIP3   OH269285   5.770   2.256   2.387  0.7352  0.2240 -0.0066
15957TIP3    H169286   5.817   2.337   2.369 -0.2264  0.8028 -0.0060
15957TIP3    H269287   5.709   2.247   2.314  1.5149 -1.0467 -0.5344
15958TIP3   OH269288   1.648   0.571   0.553  0.2979 -0.8465  0.1439
15958TIP3    H169289   1.719   0.554   0.616 -0.7663 -1.2991  1.2565
15958TIP3    H269290   1.635   0.488   0.509  0.1529 -0.8972  0.2789
15959TIP3   OH269291   3.692   1.590  12.454 -0.1640 -0.7787  0.1782
15959TIP3    H169292   3.645   1.531  12.395  1.4683 -0.3635 -1.6770
15959TIP3    H269293   3.781   1.556  12.456  0.1297 -0.0041  1.3745
15960TIP3   OH269294   4.246   4.670  16.618  0.2015  0.4549 -0.0385
15960TIP3    H169295   4.190   4.716  16.555  0.9249 -0.6557 -1.5656
15960TIP3    H269296   4.185   4.624  16.675 -0.5073  2.4344  0.9048
15961TIP3   OH269297   5.046   6.563   5.653  0.0735  0.3214 -0.4350
15961TIP3    H169298   4.990   6.541   5.727  2.3946  1.1879  1.7397
15961TIP3    H269299   5.033   6.491   5.590 -1.0470 -1.1231  1.3565
15962TIP3   OH269300   2.328   1.349  14.930  0.0448  0.5053  0.2609
15962TIP3    H169301   2.382   1.317  14.858  0.4146 -1.9327  1.5174
15962TIP3    H269302   2.244   1.373  14.889 -0.2018 -2.0111 -0.8775
15963TIP3   OH269303   0.083   2.454  13.839  0.6418 -0.5901 -0.1258
15963TIP3    H169304   0.110   2.544  13.852 -1.9537  0.4125 -0.9750
15963TIP3    H269305   0.050   2.452  13.749 -2.4724 -1.4516  0.9197
15964TIP3   OH269306   5.794   5.909  15.933 -0.5213  0.1999 -0.2094
15964TIP3    H169307   5.822   5.961  15.857 -0.4301  1.6890  0.8081
15964TIP3    H269308   5.779   5.973  16.002  0.2370 -1.1930  1.3204
15965TIP3   OH269309   4.291   2.354   1.848  0.4459  0.5048 -0.3325
15965TIP3    H169310   4.235   2.344   1.772  0.2987 -0.6939 -0.0918
15965TIP3    H269311   4.373   2.311   1.823  0.3284 -0.0764  0.2316
15966TIP3   OH269312   3.411   1.266   5.313 -0.2335  0.2112  0.0012
15966TIP3    H169313   3.377   1.347   5.276 -0.0481 -1.2778 -3.8085
15966TIP3    H269314   3.334   1.223   5.351 -0.6816  1.2337  0.3064
15967TIP3   OH269315   6.129   6.101   4.845  0.1244  0.1675 -0.2568
15967TIP3    H169316   6.129   6.105   4.941  0.4911  0.7130 -0.2747
15967TIP3    H269317   6.193   6.033   4.824 -0.5778 -0.5512 -0.0999
15968TIP3   OH269318   5.648   1.476  12.499 -0.0812 -0.1919  0.7938
15968TIP3    H169319   5.575   1.443  12.552 -1.5662  0.7208 -0.6116
15968TIP3    H269320   5.660   1.566  12.529 -0.8786  0.3038 -0.3231
15969TIP3   OH269321   5.986   4.136  11.195 -0.8700 -0.3195 -0.4958
15969TIP3    H169322   6.067   4.089  11.216 -0.7547 -0.0607 -0.3571
15969TIP3    H269323   6.001   4.172  11.108 -2.0094 -2.8678 -1.8556
15970TIP3   OH269324   4.365   2.474   4.378 -0.5594  0.7658 -0.2087
15970TIP3    H169325   4.339   2.447   4.466  0.0059 -1.0008 -0.5483
15970TIP3    H269326   4.449   2.520   4.391  0.6816 -1.4251  0.0175
15971TIP3   OH269327   4.716   5.104   1.607 -0.5824  0.3006  0.1153
15971TIP3    H169328   4.634   5.148   1.629 -0.9645 -1.4616  2.7817
15971TIP3    H269329   4.774   5.123   1.681  0.5726 -0.4464 -0.5672
15972TIP3   OH269330   0.211   6.738   3.170  0.1088  0.5278  0.4183
15972TIP3    H169331   0.165   6.803   3.223 -1.2458  0.1294 -0.2183
15972TIP3    H269332   0.304   6.757   3.184 -0.1873  0.5353  2.7589
15973TIP3   OH269333   6.109   5.425   2.486 -0.1154 -0.2904  0.1616
15973TIP3    H169334   6.109   5.394   2.576 -2.3452  0.3082  0.4456
15973TIP3    H269335   6.038   5.377   2.444 -0.1365  0.5608 -0.8340
15974TIP3   OH269336   5.565   2.936  11.544  0.1283  0.8182 -0.1301
15974TIP3    H169337   5.592   2.931  11.452 -1.2591 -1.5569 -0.4646
15974TIP3    H269338   5.647   2.928  11.593  0.5425 -2.4781 -1.1538
15975TIP3   OH269339   4.498   4.818   5.044 -0.3343  0.6845  0.1280
15975TIP3    H169340   4.567   4.752   5.054 -0.6355  0.3824  0.2422
15975TIP3    H269341   4.517   4.860   4.960 -0.2894  0.2772 -0.0673
15976TIP3   OH269342   4.873   6.285   1.858 -0.6924 -0.2482  0.1901
15976TIP3    H169343   4.796   6.231   1.872 -0.6954 -0.8218 -1.8304
15976TIP3    H269344   4.938   6.250   1.919 -2.0821  0.5156  2.2289
15977TIP3   OH269345   0.446   3.625   6.283 -0.3464  0.0019  0.4880
15977TIP3    H169346   0.407   3.576   6.356  1.3910 -1.4202  0.5371
15977TIP3    H269347   0.536   3.644   6.311 -0.4415  1.7559 -0.2558
15978TIP3   OH269348   6.754   1.752   3.789  0.0267 -0.3386 -0.2703
15978TIP3    H169349   6.761   1.663   3.824 -0.2273  0.1343  1.0380
15978TIP3    H269350   6.820   1.756   3.721  1.8230 -0.7686  1.3593
15979TIP3   OH269351   0.857   5.094  12.160 -0.0041  0.1216  0.5447
15979TIP3    H169352   0.875   5.168  12.101  0.8103  0.7644  1.5790
15979TIP3    H269353   0.938   5.044  12.162  0.5056  0.9607  2.3036
15980TIP3   OH269354   0.327   4.071   0.771 -0.3474 -0.8078 -0.1742
15980TIP3    H169355   0.380   4.114   0.839 -1.3389 -0.0738  0.1656
15980TIP3    H269356   0.288   3.996   0.815 -0.6390 -0.5851 -0.0488
15981TIP3   OH269357   5.761   3.258  15.668 -0.4141  0.3822  0.1428
15981TIP3    H169358   5.711   3.300  15.598 -0.0490  0.1420 -0.2641
15981TIP3    H269359   5.815   3.328  15.704  1.4112 -0.0367 -1.6070
15982TIP3   OH269360   0.410   1.393   4.585  0.3843  0.3485  0.3739
15982TIP3    H169361   0.482   1.340   4.551  1.1791  2.0798 -0.7979
15982TIP3    H269362   0.443   1.427   4.668 -0.5178 -1.7008  1.6553
15983TIP3   OH269363   0.566   0.308  13.626 -0.5076  0.1624 -0.4989
15983TIP3    H169364   0.559   0.229  13.679 -1.3858  0.5700  0.0182
15983TIP3    H269365   0.573   0.277  13.536 -0.3569 -0.5066 -0.2611
15984TIP3   OH269366   4.008   5.309  13.186 -0.4452  0.5584  0.0798
15984TIP3    H169367   3.931   5.267  13.224  0.8281 -0.5274  1.5729
15984TIP3    H269368   4.047   5.359  13.258  1.2818 -0.4497 -0.1018
15985TIP3   OH269369   6.655   3.531   6.395 -0.0448  0.0513  0.4596
15985TIP3    H169370   6.674   3.624   6.387 -0.5661 -0.0030 -1.9961
15985TIP3    H269371   6.683   3.508   6.484 -0.4370  2.6495  1.3233
15986TIP3   OH269372   3.551   2.094   5.917  0.3784  0.2482 -0.4474
15986TIP3    H169373   3.592   2.176   5.943  0.3982  0.4555 -1.1072
15986TIP3    H269374   3.491   2.073   5.989  0.0125  1.0983 -0.4915
15987TIP3   OH269375   0.426   3.908   6.499  0.4031  0.3248 -0.1772
15987TIP3    H169376   0.461   3.889   6.586 -1.4389 -0.5932  0.4305
15987TIP3    H269377   0.502   3.908   6.441  1.3424 -2.4799  0.8894
15988TIP3   OH269378   5.710   1.414   0.937  0.1623  0.2196 -0.7548
15988TIP3    H169379   5.713   1.333   0.989  1.2224 -0.5073 -1.9082
15988TIP3    H269380   5.768   1.474   0.983 -0.8472  0.4609  0.2673
15989TIP3   OH269381   2.474   3.035   2.454  0.0812 -0.5729 -0.1389
15989TIP3    H169382   2.507   3.125   2.457  2.1198 -1.2882  0.5965
15989TIP3    H269383   2.414   3.029   2.528 -0.0576  0.1707 -0.1830
15990TIP3   OH269384   4.518   5.540   5.170 -0.2473 -0.5193  0.5365
15990TIP3    H169385   4.505   5.595   5.247 -0.7796 -0.4898  0.4294
15990TIP3    H269386   4.610   5.516   5.173 -0.3180 -0.7394  1.3349
15991TIP3   OH269387   5.844   3.885  16.336  0.1506  0.0469 -0.1995
15991TIP3    H169388   5.782   3.828  16.380  0.8511  0.0180  0.7905
15991TIP3    H269389   5.798   3.969  16.327  0.1074  0.1575  0.9155
15992TIP3   OH269390   3.032   0.049   2.931 -0.1347 -0.0388  0.1204
15992TIP3    H169391   2.983   0.064   2.850 -0.1940 -1.6303 -0.1731
15992TIP3    H269392   3.048   0.136   2.966 -0.9722  0.6306 -1.0947
15993TIP3   OH269393   1.029   6.241  13.810 -0.0050  0.1132  0.4746
15993TIP3    H169394   1.040   6.169  13.748  0.7488  0.3209  0.3569
15993TIP3    H269395   0.997   6.200  13.890 -0.7564 -0.1900  0.0298
15994TIP3   OH269396   3.223   0.773  16.460  0.4936  0.8275 -0.0149
15994TIP3    H169397   3.216   0.757  16.554 -1.6457  0.8936 -0.1175
15994TIP3    H269398   3.222   0.869  16.452 -0.1157  0.8160 -0.1315
15995TIP3   OH269399   1.200   5.824   3.738 -0.1987 -0.2227  0.0200
15995TIP3    H169400   1.230   5.849   3.651 -0.8863 -0.8425 -0.4055
15995TIP3    H269401   1.234   5.892   3.796 -0.1195  0.4398 -0.7947
15996TIP3   OH269402   5.320   4.451   3.025  0.5331 -0.0133  0.4029
15996TIP3    H169403   5.240   4.401   3.011  1.1571 -1.3225  1.3485
15996TIP3    H269404   5.359   4.459   2.938 -0.4176  0.3243 -0.0113
15997TIP3   OH269405   6.792   0.861  13.564 -0.5111  1.2112 -0.2786
15997TIP3    H169406   6.810   0.814  13.645 -2.2517 -2.0062 -1.5519
15997TIP3    H269407   6.699   0.882  13.568 -0.6170  1.0201 -1.4240
15998TIP3   OH269408   4.467   5.264   2.411 -0.0341 -0.2264 -0.5044
15998TIP3    H169409   4.430   5.199   2.471 -0.4012 -0.3223 -0.8323
15998TIP3    H269410   4.396   5.326   2.395 -0.2979 -0.8170 -1.7187
15999TIP3   OH269411   1.127   6.713  14.591 -0.1842  0.0467 -0.1445
15999TIP3    H169412   1.180   6.742  14.517 -0.5369 -2.1625 -1.3208
15999TIP3    H269413   1.159   6.625  14.611  1.3241  1.2299  3.7436
16000TIP3   OH269414   5.179   0.231   4.534  0.2981  0.1274  0.2908
16000TIP3    H169415   5.177   0.136   4.523  0.1646  0.1076  0.4786
16000TIP3    H269416   5.267   0.257   4.509  0.0691  0.0617 -0.6325
16001TIP3   OH269417   0.556   6.670  14.444  0.3349  0.3196 -0.1905
16001TIP3    H169418   0.629   6.615  14.471  1.6338  1.6000 -0.9730
16001TIP3    H269419   0.525   6.711  14.525  0.7960  0.1513  0.0736
16002TIP3   OH269420   6.143   0.450   1.092  0.1028  0.2793  0.1275
16002TIP3    H169421   6.113   0.360   1.111 -1.6466  1.1493  1.8797
16002TIP3    H269422   6.238   0.443   1.090  0.0118 -1.6095  0.2843
16003TIP3   OH269423   6.616   5.316   5.946  0.5033  0.1413  0.3275
16003TIP3    H169424   6.587   5.325   6.036  0.6547 -0.3709  0.4325
16003TIP3    H269425   6.637   5.405   5.918 -0.5275  0.4381  0.4629
16004TIP3   OH269426   5.715   0.342   1.936 -0.2586 -0.3818 -0.0733
16004TIP3    H169427   5.799   0.377   1.906 -0.5049 -0.1805 -0.5328
16004TIP3    H269428   5.716   0.356   2.031  0.1287 -0.1769 -0.1047
16005TIP3   OH269429   3.414   1.906   4.317 -0.0425 -0.3054 -0.4027
16005TIP3    H169430   3.430   1.916   4.223 -0.0960 -1.8109 -0.6048
16005TIP3    H269431   3.435   1.814   4.334 -0.8264 -0.2592  0.8953
16006TIP3   OH269432   2.586   3.248  13.936 -0.3788 -0.0823  0.0679
16006TIP3    H169433   2.671   3.228  13.896 -1.3177 -2.7030 -0.8462
16006TIP3    H269434   2.599   3.229  14.029 -0.3260 -2.2381 -0.3069
16007TIP3   OH269435   3.095   1.053  13.546  0.5741 -0.2343  0.0392
16007TIP3    H169436   3.179   1.082  13.509 -0.0494  1.1783 -0.3307
16007TIP3    H269437   3.119   0.998  13.620  1.8478 -1.5169 -1.2502
16008TIP3   OH269438   2.554   1.229   5.214  0.0284 -0.6423 -0.7906
16008TIP3    H169439   2.551   1.317   5.177 -1.7762  0.3874  1.5314
16008TIP3    H269440   2.635   1.227   5.265  0.3977 -0.5899 -1.3618
16009TIP3   OH269441   2.239   6.094  15.266  0.3905 -0.0607  0.6754
16009TIP3    H169442   2.279   6.173  15.304  1.6399 -1.1205  1.6663
16009TIP3    H269443   2.256   6.026  15.331  0.0938 -1.3401 -0.5502
16010TIP3   OH269444   6.531   4.144  13.682  0.0149  0.8244  0.2027
16010TIP3    H169445   6.470   4.135  13.755  2.0317  1.4481  2.0924
16010TIP3    H269446   6.526   4.060  13.636 -1.5951  0.5559  0.7954
16011TIP3   OH269447   5.017   1.505  15.756  0.2123 -0.1722  0.5273
16011TIP3    H169448   4.983   1.553  15.831 -2.1824 -0.2141 -0.4376
16011TIP3    H269449   5.067   1.433  15.794  0.3580  0.6918  2.0352
16012TIP3   OH269450   3.052   2.572   3.284 -0.4568  0.0985 -0.3893
16012TIP3    H169451   3.025   2.541   3.197  1.9243  0.1143 -1.2140
16012TIP3    H269452   2.999   2.520   3.345 -1.4075 -0.7023 -1.8170
16013TIP3   OH269453   3.553   4.330   1.290 -0.0400  0.5786 -0.2497
16013TIP3    H169454   3.515   4.304   1.206  1.1379  1.0368 -0.9500
16013TIP3    H269455   3.554   4.250   1.342 -0.0692  0.1118 -0.9577
16014TIP3   OH269456   2.337   2.111  17.153 -0.1870 -0.1910  0.4924
16014TIP3    H169457   2.361   2.093  17.244 -0.1169 -0.2989  0.4519
16014TIP3    H269458   2.257   2.059  17.139 -0.3777  0.0723  0.5884
16015TIP3   OH269459   0.591   0.524  11.792  0.5511 -0.0418  0.5670
16015TIP3    H169460   0.642   0.604  11.779 -1.1438  0.6703 -2.9559
16015TIP3    H269461   0.636   0.458  11.739 -0.5099 -0.1823 -0.1921
16016TIP3   OH269462   5.314   5.605   0.234 -0.1728 -0.3993  0.0447
16016TIP3    H169463   5.328   5.521   0.190 -1.9902 -1.5448  1.5003
16016TIP3    H269464   5.402   5.632   0.262  0.4992 -1.5822 -0.8272
16017TIP3   OH269465   0.392   5.292   3.249 -0.3534  0.1946  0.3714
16017TIP3    H169466   0.485   5.288   3.227  0.3466  1.2942  2.8180
16017TIP3    H269467   0.360   5.203   3.233  1.4788 -0.6071  0.8539
16018TIP3   OH269468   4.951   6.681  15.538 -0.1208 -0.4128  0.1140
16018TIP3    H169469   4.958   6.773  15.562  0.2946 -0.1050 -1.1015
16018TIP3    H269470   5.023   6.638  15.585 -0.7047 -0.2532  1.1930
16019TIP3   OH269471   3.913   2.497   3.684 -0.0665  0.0003  0.2111
16019TIP3    H169472   3.974   2.518   3.756  0.1501  0.4308 -0.0968
16019TIP3    H269473   3.955   2.532   3.606 -0.4096 -0.2743 -0.1003
16020TIP3   OH269474   3.286   3.324   5.502 -0.7762  0.6339  0.3237
16020TIP3    H169475   3.220   3.255   5.491 -0.2428  0.3581 -1.5489
16020TIP3    H269476   3.236   3.405   5.504 -1.2419  0.3743 -0.2683
16021TIP3   OH269477   2.074   5.365   5.540  0.0620 -0.3364  0.2444
16021TIP3    H169478   2.033   5.305   5.602  2.1764 -0.9674  1.1334
16021TIP3    H269479   2.167   5.364   5.564  0.6645  0.7851 -1.8202
16022TIP3   OH269480   3.535   0.096  15.138 -0.1274  0.3352 -0.3722
16022TIP3    H169481   3.601   0.162  15.159 -0.8011  0.9843 -0.2478
16022TIP3    H269482   3.523   0.102  15.043 -0.7499  0.9445 -0.2615
16023TIP3   OH269483   6.327   0.659  14.961 -0.2471 -0.1036  0.0822
16023TIP3    H169484   6.282   0.696  15.037 -0.5713 -0.7555  0.2103
16023TIP3    H269485   6.359   0.574  14.991  0.6369  0.1375 -0.1623
16024TIP3   OH269486   2.209   3.968  11.798 -0.1544  0.1338  0.0841
16024TIP3    H169487   2.269   3.895  11.783  0.5801  0.9008 -0.8095
16024TIP3    H269488   2.188   3.963  11.891  0.1729 -0.9956  0.1095
16025TIP3   OH269489   5.971   5.007  14.982 -0.5464  0.5767  0.0038
16025TIP3    H169490   5.928   5.066  15.044 -1.6805 -0.3259  0.0976
16025TIP3    H269491   5.923   5.021  14.900 -1.6183 -1.0487  0.3159
16026TIP3   OH269492   1.245   5.669  10.531  0.5149  0.0458 -0.2300
16026TIP3    H169493   1.271   5.688  10.621  1.0335 -1.7740  0.0356
16026TIP3    H269494   1.328   5.668  10.482  0.3757 -0.2980 -0.4608
16027TIP3   OH269495   4.855   1.047   0.387 -0.1871 -0.3455  0.2990
16027TIP3    H169496   4.799   1.097   0.447 -1.3228 -1.1237 -0.0661
16027TIP3    H269497   4.930   1.104   0.370 -0.7548  0.6387  0.9960
16028TIP3   OH269498   2.600   3.478   2.335  0.0368 -0.1240 -0.2415
16028TIP3    H169499   2.569   3.557   2.290  0.8490  0.2463 -0.1524
16028TIP3    H269500   2.538   3.466   2.407  0.2941  0.8091  0.1446
16029TIP3   OH269501   4.659   3.160   5.449 -0.4967 -0.0908  0.2580
16029TIP3    H169502   4.739   3.205   5.476 -0.2591 -0.8457  0.8773
16029TIP3    H269503   4.644   3.189   5.360  0.9469 -0.5446 -0.1735
16030TIP3   OH269504   4.736   5.342  10.949  0.4263 -0.4034 -0.2614
16030TIP3    H169505   4.661   5.362  10.894  1.0445 -2.4100 -1.9625
16030TIP3    H269506   4.751   5.422  11.000 -1.5884  0.7241 -1.3359
16031TIP3   OH269507   4.879   5.168   5.518 -0.0986 -0.4291 -0.4133
16031TIP3    H169508   4.791   5.205   5.530 -0.1168  0.4299 -2.7724
16031TIP3    H269509   4.865   5.074   5.514 -0.9819 -0.2795 -1.1306
16032TIP3   OH269510   5.282   2.341  16.251 -0.5362 -0.0886  0.1614
16032TIP3    H169511   5.311   2.304  16.334  0.1166 -1.0041 -0.4581
16032TIP3    H269512   5.363   2.371  16.208 -0.2413 -3.3681 -1.9323
16033TIP3   OH269513   5.926   3.193   1.693  0.6078 -0.7630  0.1321
16033TIP3    H169514   5.898   3.185   1.784 -1.1617 -0.2526 -0.3349
16033TIP3    H269515   5.849   3.225   1.646  0.7603 -3.1260 -1.9663
16034TIP3   OH269516   3.735   4.634   6.045 -0.7947  0.1333 -0.3520
16034TIP3    H169517   3.658   4.685   6.072 -0.2656 -0.1703  1.9531
16034TIP3    H269518   3.720   4.547   6.082  0.3465 -0.1298 -0.4665
16035TIP3   OH269519   0.922   2.579  15.077 -0.3734 -0.2449 -0.2556
16035TIP3    H169520   0.976   2.628  15.015  0.6455 -1.4955 -0.4007
16035TIP3    H269521   0.926   2.630  15.158  2.5752 -1.1742  0.3016
16036TIP3   OH269522   6.078   5.875   4.148  0.5515  0.0036  0.7397
16036TIP3    H169523   6.131   5.821   4.207  1.2999  0.0188  0.0997
16036TIP3    H269524   6.135   5.890   4.072 -0.9748 -1.5049 -0.7995
16037TIP3   OH269525   2.458   4.229   2.176  0.7049  0.2988 -0.2583
16037TIP3    H169526   2.474   4.319   2.146 -1.0656  1.2279  1.3651
16037TIP3    H269527   2.498   4.226   2.263  1.5239 -0.8125 -0.6461
16038TIP3   OH269528   1.791   3.011  10.768  0.1200  0.2373 -0.1978
16038TIP3    H169529   1.746   3.010  10.683 -1.0025  0.0262  0.3839
16038TIP3    H269530   1.883   2.993  10.746 -0.4931 -2.0888 -1.1778
16039TIP3   OH269531   0.283   1.065  13.178 -0.0293 -0.2642 -0.4169
16039TIP3    H169532   0.231   1.144  13.165  1.2945  0.6845 -0.1814
16039TIP3    H269533   0.227   0.993  13.148 -1.7543  0.6156  0.5713
16040TIP3   OH269534   6.167   2.565   2.483  0.0541 -0.0458 -0.0875
16040TIP3    H169535   6.235   2.616   2.438 -0.4369  0.2129 -0.5484
16040TIP3    H269536   6.172   2.594   2.574  1.7479 -1.3147  0.2775
16041TIP3   OH269537   6.731   2.376  16.242 -0.0634  0.1172 -0.1838
16041TIP3    H169538   6.658   2.360  16.182 -0.4161 -0.5614  0.4118
16041TIP3    H269539   6.809   2.355  16.191 -0.2832  0.7479 -0.7926
16042TIP3   OH269540   6.768   4.676   4.608 -0.0402 -0.4452  0.5779
16042TIP3    H169541   6.757   4.586   4.580 -0.4528 -0.5276  0.9856
16042TIP3    H269542   6.811   4.720   4.535 -0.5397 -0.7927  0.0728
16043TIP3   OH269543   1.166   1.335  16.554 -0.0027  0.7345  0.6069
16043TIP3    H169544   1.176   1.321  16.460 -0.2843 -1.9404  0.8993
16043TIP3    H269545   1.072   1.325  16.570 -0.1623  2.5872  1.0128
16044TIP3   OH269546   0.931   1.369   3.094 -0.2305 -0.0490 -0.3355
16044TIP3    H169547   0.909   1.426   3.020  0.4377 -0.2007 -0.6558
16044TIP3    H269548   0.848   1.358   3.141 -0.6038  0.2666 -0.9094
16045TIP3   OH269549   1.959   4.264  15.450 -0.0450  0.3865 -0.5998
16045TIP3    H169550   1.923   4.229  15.531 -0.2366  1.2199 -0.3058
16045TIP3    H269551   2.052   4.276  15.469 -0.1557  0.9191 -0.3709
16046TIP3   OH269552   4.411   6.369  14.044  0.0953  0.0556  0.1628
16046TIP3    H169553   4.321   6.358  14.016 -0.5263  2.2149  1.0592
16046TIP3    H269554   4.462   6.369  13.963 -0.7074 -1.1065 -0.3527
16047TIP3   OH269555   6.662   2.445   5.334 -0.6618  0.4331  0.5936
16047TIP3    H169556   6.678   2.498   5.412 -2.7202  0.0932  1.3263
16047TIP3    H269557   6.748   2.417   5.305  0.5055  3.6506  0.4973
16048TIP3   OH269558   2.510   3.979  13.824 -0.3350  0.2992 -0.1920
16048TIP3    H169559   2.527   4.020  13.909  0.9555  0.5123 -0.5336
16048TIP3    H269560   2.566   4.027  13.762  1.8121 -2.3611 -0.5120
16049TIP3   OH269561   5.342   2.979   5.228 -0.6859 -0.1209 -0.0043
16049TIP3    H169562   5.384   3.056   5.266  1.0048 -1.3165  0.6876
16049TIP3    H269563   5.255   2.977   5.268 -0.3552  0.8007  0.8071
16050TIP3   OH269564   2.425   2.421  13.916  0.4679  0.1451  0.4699
16050TIP3    H169565   2.520   2.426  13.910  0.4389  2.0457  0.9357
16050TIP3    H269566   2.394   2.483  13.850 -0.4641 -0.2492  0.5182
16051TIP3   OH269567   5.445   5.980  14.298  0.1942 -0.2560  0.8517
16051TIP3    H169568   5.526   5.932  14.309  1.3607  1.5129  0.4453
16051TIP3    H269569   5.378   5.924  14.337  1.5361 -1.9147  0.8797
16052TIP3   OH269570   2.693   4.489  14.638 -0.0359 -0.3667 -0.6814
16052TIP3    H169571   2.742   4.502  14.557  0.1982 -0.3727 -0.5398
16052TIP3    H269572   2.668   4.397  14.637  3.3561 -1.4377  1.1411
16053TIP3   OH269573   4.313   1.852   4.005 -0.0949  0.2362 -0.0721
16053TIP3    H169574   4.386   1.852   3.944  0.1088  1.0747  0.1589
16053TIP3    H269575   4.303   1.944   4.031 -1.3205  0.1677 -0.2171
16054TIP3   OH269576   2.635   3.364   5.140  0.1574  0.1838 -0.4141
16054TIP3    H169577   2.601   3.284   5.100  1.2473 -0.9702  0.8343
16054TIP3    H269578   2.721   3.376   5.099  0.7144 -0.2642  0.5947
16055TIP3   OH269579   4.248   4.302  10.445  0.4083 -0.0853  0.0864
16055TIP3    H169580   4.161   4.288  10.482  0.4536 -0.8567 -0.0764
16055TIP3    H269581   4.296   4.221  10.465  0.4266 -0.5548 -1.6624
16056TIP3   OH269582   2.612   0.324   1.726  0.4538  0.6257 -0.2463
16056TIP3    H169583   2.625   0.277   1.808 -0.7025  1.0091  0.1756
16056TIP3    H269584   2.606   0.416   1.751  0.3604  0.7761 -0.7966
16057TIP3   OH269585   0.961   1.944  13.817 -0.2263  0.1135  0.5877
16057TIP3    H169586   1.007   2.019  13.855  1.2132 -0.2324 -0.3574
16057TIP3    H269587   1.018   1.916  13.745 -0.4714 -2.2006  1.2412
16058TIP3   OH269588   0.766   5.462   6.297 -0.3694 -0.0598  0.1128
16058TIP3    H169589   0.859   5.460   6.272 -0.4964  0.8984 -0.5092
16058TIP3    H269590   0.754   5.385   6.353  0.6779 -0.4806 -0.2193
16059TIP3   OH269591   4.285   3.571   1.123  0.4753 -0.2184  0.2752
16059TIP3    H169592   4.329   3.655   1.138  0.3815  0.2572 -1.7904
16059TIP3    H269593   4.193   3.595   1.111  0.6939 -0.3411 -2.0706
16060TIP3   OH269594   6.373   1.405   3.964 -0.1256  0.1098 -0.3917
16060TIP3    H169595   6.337   1.332   3.913 -0.5290  0.6062 -0.8385
16060TIP3    H269596   6.372   1.479   3.903 -3.3838  1.5087  1.0946
16061TIP3   OH269597   2.497   1.935   1.056  0.1162 -0.3030  0.5913
16061TIP3    H169598   2.442   2.013   1.058 -0.1031 -0.4456  0.2793
16061TIP3    H269599   2.451   1.871   1.109 -1.3097 -1.2423 -1.6236
16062TIP3   OH269600   5.140   3.496  12.385 -0.7873  0.2438  0.1121
16062TIP3    H169601   5.187   3.573  12.353  2.0022 -1.1216  0.6325
16062TIP3    H269602   5.119   3.517  12.476 -0.5509  0.6332  0.0778
16063TIP3   OH269603   6.384   3.325   3.899  1.0608 -0.0525 -0.3556
16063TIP3    H169604   6.451   3.257   3.907  0.9427 -0.2299 -0.8516
16063TIP3    H269605   6.338   3.305   3.817  0.4739  0.1318 -0.0819
16064TIP3   OH269606   3.079   5.148  12.973  0.3132  0.3078  0.4077
16064TIP3    H169607   3.139   5.217  12.945  0.0701  0.1565 -0.5063
16064TIP3    H269608   2.993   5.176  12.942  0.1078 -0.0827  0.6072
16065TIP3   OH269609   5.032   1.867  16.305 -0.1359  0.0766  0.9554
16065TIP3    H169610   5.099   1.927  16.270  0.0139  0.9191  2.5611
16065TIP3    H269611   4.966   1.861  16.236  0.4690  1.1023  0.2597
16066TIP3   OH269612   2.291   3.311   5.715 -0.3480  0.1420  0.7167
16066TIP3    H169613   2.332   3.238   5.760 -1.6481 -1.0217  0.1081
16066TIP3    H269614   2.217   3.336   5.770 -0.2435  0.6335  0.6438
16067TIP3   OH269615   2.961   0.845   4.274 -0.2070  0.4243 -0.1994
16067TIP3    H169616   2.868   0.848   4.297 -0.1109  0.1270  0.2410
16067TIP3    H269617   2.968   0.772   4.213 -0.4378  1.1255 -1.0990
16068TIP3   OH269618   2.931   5.298   5.713  0.3477  0.0050 -0.2724
16068TIP3    H169619   2.956   5.233   5.648  1.7181 -0.1615  0.3787
16068TIP3    H269620   2.961   5.381   5.677  0.7884 -0.0427 -0.0235
16069TIP3   OH269621   6.231   2.001  11.785  0.2735  0.0590  1.1587
16069TIP3    H169622   6.143   2.038  11.771  0.4988  0.1269 -0.3227
16069TIP3    H269623   6.220   1.907  11.771  0.2074 -0.0956  2.2260
16070TIP3   OH269624   0.644   4.191  13.810  0.3400 -0.5297 -0.2292
16070TIP3    H169625   0.698   4.270  13.819 -1.7840  0.9285  0.6095
16070TIP3    H269626   0.699   4.121  13.844  1.4912  0.9696  1.1995
16071TIP3   OH269627   2.740   5.253  16.326 -0.2253  0.3342  0.3792
16071TIP3    H169628   2.654   5.254  16.367 -0.3836  1.0325  0.0426
16071TIP3    H269629   2.773   5.164  16.341 -1.8300 -0.5878 -1.1830
16072TIP3   OH269630   1.244   1.877   2.708 -0.5222  0.5637 -0.4625
16072TIP3    H169631   1.236   1.966   2.742 -1.3242  0.9595 -1.6258
16072TIP3    H269632   1.198   1.823   2.772 -2.5560  1.3743 -1.1606
16073TIP3   OH269633   4.549   3.714   1.710  0.2601 -0.3331 -0.0442
16073TIP3    H169634   4.499   3.709   1.628 -1.3436 -0.5009  0.9053
16073TIP3    H269635   4.618   3.649   1.700  0.1538 -0.2819 -1.2933
16074TIP3   OH269636   0.438   1.251  10.288 -0.3727  0.2214 -0.1211
16074TIP3    H169637   0.388   1.264  10.208 -2.6686 -0.6098  1.0862
16074TIP3    H269638   0.376   1.269  10.359  1.1190 -0.5764  1.4909
16075TIP3   OH269639   2.079   2.538  11.531 -0.4044 -0.0102 -0.0884
16075TIP3    H169640   2.167   2.536  11.492  0.6097 -0.2782  2.0741
16075TIP3    H269641   2.045   2.625  11.511 -0.1223 -0.2814 -1.8942
16076TIP3   OH269642   2.390   0.747  16.611 -0.1785  0.5383  0.2396
16076TIP3    H169643   2.469   0.783  16.570  0.6421  1.4665  2.4706
16076TIP3    H269644   2.329   0.821  16.613 -0.2384  0.4831  0.5572
16077TIP3   OH269645   5.517   5.283   4.801 -0.1649  0.0567  0.3153
16077TIP3    H169646   5.591   5.261   4.857 -0.1380  0.8687  0.6091
16077TIP3    H269647   5.497   5.202   4.754  0.9225 -0.1534  0.2118
16078TIP3   OH269648   1.467   4.820  13.887 -0.9079  0.4918  0.2148
16078TIP3    H169649   1.539   4.802  13.948 -1.0706  0.5357  0.4227
16078TIP3    H269650   1.504   4.805  13.800 -0.8247 -0.1008  0.3461
16079TIP3   OH269651   3.669   1.102  11.752  0.2302 -0.4793 -0.6208
16079TIP3    H169652   3.718   1.107  11.670 -1.0274 -0.3147 -1.3921
16079TIP3    H269653   3.578   1.112  11.725 -0.1484  0.3221  0.8904
16080TIP3   OH269654   0.447   0.070   3.219  0.1983 -0.1823 -0.1697
16080TIP3    H169655   0.450   0.137   3.150  0.9983  1.0208  1.0003
16080TIP3    H269656   0.415   0.116   3.296  2.3035 -0.7042  1.1016
16081TIP3   OH269657   2.398   1.119  15.485  0.0178  0.2820  0.4651
16081TIP3    H169658   2.420   1.200  15.531 -0.4496  0.1325  0.9720
16081TIP3    H269659   2.482   1.079  15.464  0.2730 -0.2617  2.3110
16082TIP3   OH269660   2.839   0.977  15.084 -0.3485  0.0164  0.2438
16082TIP3    H169661   2.759   1.016  15.120  0.3069  1.8675 -0.2248
16082TIP3    H269662   2.811   0.936  15.002 -1.0713 -0.6688  0.8124
16083TIP3   OH269663   4.249   4.479  15.360  0.0610  0.1174  0.7045
16083TIP3    H169664   4.340   4.450  15.365  0.0969  0.1780  0.4214
16083TIP3    H269665   4.245   4.554  15.419  0.9067  1.9190 -1.3929
16084TIP3   OH269666   0.887   1.819   0.309 -0.1641  0.0871 -0.0816
16084TIP3    H169667   0.935   1.782   0.384  0.1232 -0.4614 -0.5260
16084TIP3    H269668   0.948   1.810   0.235 -0.1590  1.3046 -0.2404
16085TIP3   OH269669   0.705   3.906   0.566 -0.4513 -0.1749  0.2860
16085TIP3    H169670   0.782   3.896   0.511  0.0267  0.6104  0.7907
16085TIP3    H269671   0.653   3.828   0.550  0.4452 -0.7046 -0.0736
16086TIP3   OH269672   5.227   4.680   2.390 -0.8789  0.0303 -0.1010
16086TIP3    H169673   5.231   4.608   2.327 -0.6636 -0.2576  0.2358
16086TIP3    H269674   5.182   4.751   2.343 -0.4585 -0.0745 -0.6716
16087TIP3   OH269675   4.636   0.078  12.393  0.5301 -0.5596  0.2350
16087TIP3    H169676   4.555   0.108  12.353  0.3169 -1.7336 -0.2578
16087TIP3    H269677   4.607   0.018  12.462  0.9847 -1.5607 -0.4330
16088TIP3   OH269678   1.070   5.249   5.786 -0.4237 -0.2892  0.0720
16088TIP3    H169679   1.134   5.240   5.858  1.3460  3.5424 -0.7815
16088TIP3    H269680   1.085   5.172   5.732  1.9877 -0.6180  1.0672
16089TIP3   OH269681   6.472   3.236   1.260 -0.1698 -0.3032  0.4016
16089TIP3    H169682   6.532   3.251   1.333  0.6403 -0.8015 -0.1318
16089TIP3    H269683   6.404   3.180   1.296  0.5159 -0.9953  0.6568
16090TIP3   OH269684   6.236   6.065  16.672 -0.3549  0.2579 -0.2470
16090TIP3    H169685   6.325   6.059  16.636 -0.5466 -0.4956 -0.6066
16090TIP3    H269686   6.243   6.025  16.759  0.0785  1.9617  0.5513
16091TIP3   OH269687   3.191   3.448   0.247  0.0627  0.6051 -0.5115
16091TIP3    H169688   3.161   3.406   0.166 -3.4608 -0.0523  0.9589
16091TIP3    H269689   3.188   3.542   0.227 -1.0929  0.4698 -1.0915
16092TIP3   OH269690   3.525   3.201   3.430  0.6419 -0.3544 -0.0045
16092TIP3    H169691   3.482   3.117   3.446  1.3117 -0.5979  0.5817
16092TIP3    H269692   3.462   3.267   3.457  0.1506 -0.6658 -0.3676
16093TIP3   OH269693   4.933   3.892  10.839  0.3747  0.4461 -0.6059
16093TIP3    H169694   4.904   3.810  10.879 -0.5424  0.4573 -1.2219
16093TIP3    H269695   4.854   3.944  10.831  0.7388  0.8917 -1.3727
16094TIP3   OH269696   0.973   4.506  10.466  0.1466 -0.3573  0.0297
16094TIP3    H169697   1.063   4.474  10.474  0.7888  1.6299  1.4550
16094TIP3    H269698   0.922   4.443  10.517  1.3160  0.5103  2.4366
16095TIP3   OH269699   4.980   3.701   3.256  1.0182  0.3626 -0.4246
16095TIP3    H169700   4.902   3.646   3.255  1.9834 -1.0812  0.6980
16095TIP3    H269701   5.023   3.682   3.339  1.2265  3.1043  0.1876
16096TIP3   OH269702   1.206   2.650  11.679 -0.1908 -0.0829  0.0706
16096TIP3    H169703   1.253   2.595  11.742 -0.8850  0.1921  0.8390
16096TIP3    H269704   1.142   2.591  11.638 -0.9908  0.1581  0.9533
16097TIP3   OH269705   6.127   2.697  14.847 -0.5896  0.1093 -0.0170
16097TIP3    H169706   6.109   2.768  14.908  0.4649 -0.2996  0.8049
16097TIP3    H269707   6.182   2.636  14.897 -0.5264 -0.7188 -1.0647
16098TIP3   OH269708   1.032   5.453   6.190 -0.2973 -0.5075 -0.0574
16098TIP3    H169709   1.078   5.531   6.219 -0.5926  1.1884 -3.6418
16098TIP3    H269710   1.086   5.380   6.221  1.7067  1.2204  0.7306
16099TIP3   OH269711   0.865   5.475   0.335  0.4686 -0.7529  0.1730
16099TIP3    H169712   0.856   5.463   0.430 -0.6125  0.3095  0.2324
16099TIP3    H269713   0.862   5.570   0.323  0.1158 -0.8975 -0.9715
16100TIP3   OH269714   2.951   4.361  15.102  0.1533 -0.0760  0.4386
16100TIP3    H169715   2.969   4.292  15.166 -0.8788 -0.3029  0.5049
16100TIP3    H269716   2.859   4.384  15.116 -1.0270 -2.0760 -2.7444
16101TIP3   OH269717   3.751   1.267  12.150  0.5799  0.1430 -0.1541
16101TIP3    H169718   3.778   1.183  12.113 -0.0359 -0.1594  0.0736
16101TIP3    H269719   3.829   1.322  12.144  1.2015 -0.6643  0.3461
16102TIP3   OH269720   1.371   2.998   1.206  0.5737  0.4026  0.2342
16102TIP3    H169721   1.369   2.987   1.301 -0.6019 -1.0444  0.0669
16102TIP3    H269722   1.406   2.915   1.173 -0.3558  0.3525 -0.6603
16103TIP3   OH269723   0.583   6.586  12.055 -0.0306 -0.5288 -0.0877
16103TIP3    H169724   0.528   6.510  12.074 -0.1536 -0.0647  1.5533
16103TIP3    H269725   0.671   6.550  12.045 -0.1538 -0.9467  0.2841
16104TIP3   OH269726   5.420   4.478   5.734 -0.3118  0.3513 -0.7767
16104TIP3    H169727   5.426   4.571   5.755 -1.5234  0.2881 -0.0266
16104TIP3    H269728   5.413   4.435   5.819 -0.7178 -0.3339 -1.1520
16105TIP3   OH269729   1.634   2.555  14.749 -0.0021 -0.1622 -0.1525
16105TIP3    H169730   1.592   2.590  14.671 -0.7312 -0.3126  0.1652
16105TIP3    H269731   1.720   2.598  14.751 -0.2586  0.3891 -0.6351
16106TIP3   OH269732   6.418   4.311   0.801 -0.0568 -0.4499 -0.0276
16106TIP3    H169733   6.426   4.405   0.816  1.9962 -0.7635  1.3526
16106TIP3    H269734   6.338   4.286   0.847  0.9311  0.2346  2.2335
16107TIP3   OH269735   4.728   4.190   2.174 -0.3969  0.0883 -0.0541
16107TIP3    H169736   4.743   4.226   2.261  0.9165 -1.0055  0.2190
16107TIP3    H269737   4.781   4.110   2.172  0.0351  0.3571 -2.0269
16108TIP3   OH269738   4.032   0.490  10.992 -0.0221  0.7421 -0.7775
16108TIP3    H169739   4.077   0.417  11.033 -3.0686 -0.4888  0.6811
16108TIP3    H269740   4.080   0.568  11.022  1.7215 -0.4906 -0.2329
16109TIP3   OH269741   1.126   4.522  16.406  0.2285  0.4169 -0.4215
16109TIP3    H169742   1.102   4.478  16.487 -2.1335  1.1635 -0.6429
16109TIP3    H269743   1.081   4.606  16.409 -0.3528  0.2677 -2.7013
16110TIP3   OH269744   4.888   3.821   1.608  0.2405 -0.0160  0.2322
16110TIP3    H169745   4.829   3.896   1.601  1.0934  0.6844  0.4412
16110TIP3    H269746   4.829   3.745   1.611 -0.6150  0.5815 -0.6640
16111TIP3   OH269747   6.459   5.571  16.200 -0.2176 -0.5778  0.1665
16111TIP3    H169748   6.379   5.529  16.233 -0.5826  1.4027  2.0102
16111TIP3    H269749   6.506   5.500  16.156 -1.3844 -2.6130  1.9819
16112TIP3   OH269750   3.534   0.688  16.303 -0.1628 -0.0985 -0.0670
16112TIP3    H169751   3.550   0.732  16.386 -0.7963 -1.1111  0.6054
16112TIP3    H269752   3.512   0.759  16.242  0.7186  0.6944  0.5065
16113TIP3   OH269753   2.343   2.487   4.205 -0.4456  0.0005  0.3441
16113TIP3    H169754   2.415   2.429   4.178 -0.3400  0.2645  0.0437
16113TIP3    H269755   2.272   2.428   4.229 -0.3737 -0.2537 -0.0544
16114TIP3   OH269756   5.531   4.344   0.316  0.1788  0.5308 -0.6068
16114TIP3    H169757   5.471   4.289   0.267  0.7073  0.6732 -1.4305
16114TIP3    H269758   5.615   4.298   0.312  0.4928  1.1080 -0.8256
16115TIP3   OH269759   5.761   2.284  12.219 -0.3293  0.1507 -0.0214
16115TIP3    H169760   5.827   2.353  12.218 -0.1675  0.0077  0.3815
16115TIP3    H269761   5.767   2.243  12.133  1.0750 -0.7698  0.4933
16116TIP3   OH269762   6.046   5.714   3.208  0.1754 -0.3953  0.7523
16116TIP3    H169763   5.975   5.657   3.237  0.8249 -0.5989  2.0012
16116TIP3    H269764   6.002   5.785   3.162 -0.6894 -1.5727 -0.3206
16117TIP3   OH269765   0.213   3.728   2.328  0.0743 -0.8867  0.1145
16117TIP3    H169766   0.132   3.705   2.282 -2.7191 -0.5316  4.3459
16117TIP3    H269767   0.240   3.812   2.289 -1.6262 -0.9622 -1.3404
16118TIP3   OH269768   3.981   6.275   1.760 -0.1378  0.4309  0.2720
16118TIP3    H169769   3.911   6.270   1.694  0.2991 -2.1380 -0.1077
16118TIP3    H269770   3.938   6.256   1.843 -0.1893  0.6864  0.3044
16119TIP3   OH269771   0.326   5.279  13.599  0.2626  0.4313 -0.1942
16119TIP3    H169772   0.238   5.251  13.625  0.7833 -0.6945  0.3913
16119TIP3    H269773   0.337   5.364  13.641 -0.9335  1.0983 -1.1375
16120TIP3   OH269774   2.309   3.937   5.360 -0.2640  0.5807 -0.1995
16120TIP3    H169775   2.335   4.016   5.312 -0.8485  1.2816  0.6121
16120TIP3    H269776   2.371   3.871   5.331  1.7310  1.9038  0.8020
16121TIP3   OH269777   5.696   1.548  13.446  0.4122 -0.2276 -0.1390
16121TIP3    H169778   5.630   1.480  13.461  0.2999 -0.0109  0.3533
16121TIP3    H269779   5.741   1.556  13.530 -0.6304  1.4320  0.2973
16122TIP3   OH269780   5.440   3.388  12.237  0.4151  0.6153  0.3464
16122TIP3    H169781   5.429   3.476  12.200 -0.4788 -0.1418 -1.3226
16122TIP3    H269782   5.459   3.332  12.161 -0.7452 -0.9059  1.1175
16123TIP3   OH269783   6.729   5.616  16.339 -0.5465 -0.2600 -0.9866
16123TIP3    H169784   6.792   5.565  16.288  0.5941  1.9268 -1.8964
16123TIP3    H269785   6.646   5.605  16.293 -0.5271 -1.8518 -0.7157
16124TIP3   OH269786   2.863   1.127   0.571  0.1400 -0.2476 -0.0203
16124TIP3    H169787   2.826   1.132   0.483  1.7176 -0.1246 -0.7182
16124TIP3    H269788   2.787   1.118   0.629 -0.8436 -2.2335 -1.5166
16125TIP3   OH269789   0.532   0.635   3.646  0.5792 -0.4568  0.1846
16125TIP3    H169790   0.581   0.661   3.724  2.0413  0.9689 -1.1219
16125TIP3    H269791   0.492   0.716   3.615  2.6981 -0.2002 -2.2909
16126TIP3   OH269792   1.138   1.661  12.764 -0.0174 -0.5986  0.4545
16126TIP3    H169793   1.162   1.602  12.836  3.0230  0.6842  0.6680
16126TIP3    H269794   1.083   1.728  12.806  1.8908  0.2574  1.7453
16127TIP3   OH269795   5.331   2.342   0.099  0.0034 -0.0458  0.1931
16127TIP3    H169796   5.404   2.390   0.137 -1.1939  1.3040  0.8891
16127TIP3    H269797   5.262   2.345   0.166 -0.9148 -0.7230 -0.6821
16128TIP3   OH269798   5.567   4.694  12.351  0.2652  0.3064 -0.1964
16128TIP3    H169799   5.503   4.762  12.370  0.9018  0.9414 -0.3052
16128TIP3    H269800   5.554   4.673  12.259 -0.1231  0.0745 -0.0911
16129TIP3   OH269801   3.154   6.420  13.960  0.0926 -0.0596  0.3844
16129TIP3    H169802   3.180   6.416  13.868  1.5879 -0.2023  0.7893
16129TIP3    H269803   3.070   6.374  13.963 -1.7898  2.8730 -1.4819
16130TIP3   OH269804   3.341   2.951   0.022 -0.4996  0.2710  0.1483
16130TIP3    H169805   3.415   2.931  -0.036 -0.0934  2.4887 -0.1902
16130TIP3    H269806   3.380   2.997   0.096 -1.3617 -0.0653  0.8301
16131TIP3   OH269807   3.346   0.944   1.235 -0.1563  0.4435 -0.4127
16131TIP3    H169808   3.363   1.013   1.170  1.6122  0.8488  0.4089
16131TIP3    H269809   3.252   0.947   1.250 -0.2320  2.0967 -1.0432
16132TIP3   OH269810   2.995   2.710  15.849 -0.0291 -0.5013  0.2038
16132TIP3    H169811   2.942   2.722  15.770  0.9537 -3.1815 -1.0043
16132TIP3    H269812   3.082   2.689  15.815  0.2411 -2.4584  1.9538
16133TIP3   OH269813   2.850   5.960   4.549  0.2268  0.3181  0.1825
16133TIP3    H169814   2.756   5.942   4.546  0.3596 -0.3696 -1.5703
16133TIP3    H269815   2.878   5.951   4.457  2.5874 -2.8282  1.0424
16134TIP3   OH269816   3.966   1.832  13.088 -0.0514  0.1908 -0.0161
16134TIP3    H169817   3.974   1.742  13.119  0.5295  0.3168  0.2124
16134TIP3    H269818   3.929   1.823  13.000 -0.8289 -0.2155  0.3412
16135TIP3   OH269819   0.022   6.681   1.769  0.0994 -0.3998  0.2551
16135TIP3    H169820   0.068   6.758   1.804  1.9724 -2.3875  2.5791
16135TIP3    H269821  -0.071   6.702   1.776  0.5349  1.1705  2.0722
16136TIP3   OH269822   5.577   3.761  14.710 -0.1381 -0.7721 -0.2878
16136TIP3    H169823   5.496   3.775  14.759  0.6587  2.4003  0.3616
16136TIP3    H269824   5.561   3.798  14.624  0.1916 -1.4024 -0.6292
16137TIP3   OH269825   1.725   6.497   0.747 -0.0024 -0.1002 -0.0013
16137TIP3    H169826   1.738   6.479   0.840 -1.0038 -5.3252 -0.5839
16137TIP3    H269827   1.644   6.548   0.743 -0.5738 -0.7867  1.9752
16138TIP3   OH269828   1.559   6.511  14.121  0.4510 -0.0827 -0.3043
16138TIP3    H169829   1.488   6.511  14.056  0.8994  0.7907 -0.8053
16138TIP3    H269830   1.517   6.482  14.202 -0.4564  0.3149 -0.6211
16139TIP3   OH269831   6.033   2.848  11.747  0.6626 -0.3896  0.3869
16139TIP3    H169832   6.010   2.759  11.775  0.7039 -0.7540 -0.7086
16139TIP3    H269833   6.055   2.893  11.829  0.8788 -1.4517  0.9384
16140TIP3   OH269834   1.101   0.739   1.187  0.1134 -0.5508  0.1354
16140TIP3    H169835   1.160   0.761   1.259 -0.2069 -0.3468  0.3418
16140TIP3    H269836   1.042   0.815   1.180 -0.0364 -0.6908 -0.1532
16141TIP3   OH269837   4.719   6.666   5.018 -0.1829  0.2137  0.4044
16141TIP3    H169838   4.800   6.620   5.042 -0.4596  1.1323  3.4489
16141TIP3    H269839   4.673   6.604   4.960  2.2628 -0.6618 -0.7378
16142TIP3   OH269840   0.403   5.915   1.368 -0.1503 -0.6987 -0.1513
16142TIP3    H169841   0.309   5.918   1.349 -0.0790 -0.2686 -0.4536
16142TIP3    H269842   0.425   6.005   1.393  0.2661 -0.7015 -0.4949
16143TIP3   OH269843   4.931   4.236   5.774 -0.3749  0.0487  0.2719
16143TIP3    H169844   5.011   4.265   5.730 -0.6709  1.7969  0.8114
16143TIP3    H269845   4.963   4.197   5.856 -0.0153 -0.5391 -0.1332
16144TIP3   OH269846   1.102   2.257   5.712 -0.0488 -0.1324  0.3710
16144TIP3    H169847   1.136   2.180   5.667 -1.2428 -0.3534 -0.1814
16144TIP3    H269848   1.155   2.330   5.679  0.2996 -0.5533 -0.0059
16145TIP3   OH269849   4.983   1.603  14.639  0.6955  0.4939 -0.3715
16145TIP3    H169850   5.049   1.534  14.639 -0.3722 -0.6945  2.2812
16145TIP3    H269851   5.011   1.662  14.709  0.4010  1.5136 -1.0988
16146TIP3   OH269852   3.596   6.203  14.424 -0.6776 -0.0315 -0.1441
16146TIP3    H169853   3.644   6.270  14.473 -0.4001 -0.3421  0.0143
16146TIP3    H269854   3.643   6.121  14.443 -1.1336 -0.3029 -0.1714
16147TIP3   OH269855   4.933   4.410  16.665  0.3773  0.2794 -0.6871
16147TIP3    H169856   4.998   4.388  16.599  0.3309  0.8942 -0.9462
16147TIP3    H269857   4.906   4.326  16.701 -0.2327 -0.1462 -2.0544
16148TIP3   OH269858   5.959   1.736  12.243  0.5676  0.5196  0.3036
16148TIP3    H169859   5.936   1.790  12.167 -1.3779  0.9591  1.1394
16148TIP3    H269860   5.918   1.652  12.225  1.8959 -0.0675 -0.0678
16149TIP3   OH269861   3.481   0.314  10.601  0.5983  0.1595 -0.0244
16149TIP3    H169862   3.506   0.261  10.526 -2.3403 -2.8608  0.9141
16149TIP3    H269863   3.401   0.360  10.573 -0.0519 -0.3481  0.9543
16150TIP3   OH269864   3.324   2.037  16.130 -0.1382  0.0929 -0.3779
16150TIP3    H169865   3.358   1.992  16.207 -0.9841  0.4954  0.2458
16150TIP3    H269866   3.391   2.102  16.109 -0.1581  0.3736  0.3816
16151TIP3   OH269867   2.488   5.456   2.262  0.0984  0.4174 -0.2508
16151TIP3    H169868   2.560   5.476   2.322  0.6228 -0.2859 -0.6239
16151TIP3    H269869   2.505   5.366   2.234 -0.6246  0.4353 -0.7753
16152TIP3   OH269870   0.280   1.691  12.680 -0.4426 -0.1728  0.1992
16152TIP3    H169871   0.271   1.612  12.733  1.4627  0.2978  1.3424
16152TIP3    H269872   0.372   1.715  12.689 -0.6864  1.4664 -1.1629
16153TIP3   OH269873   4.530   4.027  15.661  0.5234 -0.2937  1.5564
16153TIP3    H169874   4.446   4.066  15.637  0.5530 -0.5880  0.9708
16153TIP3    H269875   4.532   4.033  15.757 -0.6413 -1.2409  1.6710
16154TIP3   OH269876   5.297   2.117  13.808  0.2872 -0.0761  0.3847
16154TIP3    H169877   5.224   2.097  13.866 -0.5585  0.9055 -0.3069
16154TIP3    H269878   5.268   2.090  13.721 -0.3250  2.6076 -0.3341
16155TIP3   OH269879   3.999   1.378   1.083 -0.3652  0.4271 -0.4015
16155TIP3    H169880   4.012   1.294   1.126 -0.5912  0.7897  0.4053
16155TIP3    H269881   4.085   1.420   1.085 -0.0164 -0.1870 -1.7179
16156TIP3   OH269882   0.167   5.754  15.551 -0.3755 -0.2269  0.1904
16156TIP3    H169883   0.160   5.682  15.614 -0.1253 -1.6699 -1.3651
16156TIP3    H269884   0.258   5.753  15.523 -1.2718 -2.3813 -3.2212
16157TIP3   OH269885   1.760   2.431  15.334  0.2126 -0.1081  0.3700
16157TIP3    H169886   1.798   2.391  15.412  0.5738  1.0168  0.7915
16157TIP3    H269887   1.666   2.435  15.353  0.0077 -1.7547 -0.1547
16158TIP3   OH269888   2.225   2.829   0.454  0.3097 -0.0316  0.5324
16158TIP3    H169889   2.210   2.922   0.435 -0.0105  0.2880  2.2031
16158TIP3    H269890   2.143   2.800   0.495  0.1890 -1.2141 -0.4930
16159TIP3   OH269891   1.742   6.438   1.012  0.2668  0.0084 -0.0344
16159TIP3    H169892   1.654   6.451   1.046  0.7943  0.2074  1.3027
16159TIP3    H269893   1.799   6.485   1.073  1.3985 -1.0011 -0.2741
16160TIP3   OH269894   5.060   1.592  12.049  0.4883 -0.0535 -0.2427
16160TIP3    H169895   5.089   1.671  12.094  1.7647 -0.8648  0.4138
16160TIP3    H269896   5.140   1.542  12.034  0.3055  0.5268 -4.2332
16161TIP3   OH269897   0.709   0.296  15.116  0.3316  0.4806  0.2707
16161TIP3    H169898   0.689   0.388  15.135 -0.9886  0.7185 -1.8590
16161TIP3    H269899   0.746   0.297  15.028  1.2672 -0.9626  0.6131
16162TIP3   OH269900   2.911   6.683  16.435 -0.3932 -0.5992  0.0959
16162TIP3    H169901   3.002   6.662  16.455 -0.4574  0.8365  2.3340
16162TIP3    H269902   2.862   6.607  16.464  0.0365 -1.2087 -0.7313
16163TIP3   OH269903   4.445   5.865  12.186 -1.0669 -0.0052  0.2989
16163TIP3    H169904   4.394   5.790  12.155 -1.1741 -0.8076  2.2535
16163TIP3    H269905   4.379   5.928  12.216 -1.0050  1.2544 -1.9839
16164TIP3   OH269906   0.614   5.696  16.061  0.3297  0.2903  0.0629
16164TIP3    H169907   0.690   5.689  16.003  0.9729  0.5494  0.8567
16164TIP3    H269908   0.548   5.639  16.021  0.3655  1.2934 -1.5280
16165TIP3   OH269909   3.301   1.488   3.364  0.0743  0.0235 -0.6077
16165TIP3    H169910   3.271   1.505   3.274  0.7748  0.5359 -0.7487
16165TIP3    H269911   3.301   1.393   3.371  2.4087 -0.1653 -2.0066
16166TIP3   OH269912   6.459   3.207   0.992 -0.2547 -0.1210  0.2888
16166TIP3    H169913   6.546   3.244   0.982 -0.2795  0.4677  1.8505
16166TIP3    H269914   6.438   3.221   1.085 -2.0434 -0.1659 -0.0695
16167TIP3   OH269915   5.136   4.846  12.128  0.4847 -0.0696 -0.2029
16167TIP3    H169916   5.063   4.845  12.065 -1.0691 -0.3297  1.5352
16167TIP3    H269917   5.134   4.934  12.165  1.6556  0.2104 -0.7535
16168TIP3   OH269918   0.023   2.562   1.930 -0.1911 -1.0857  0.4223
16168TIP3    H169919   0.093   2.627   1.934  0.2302 -1.5180  0.1990
16168TIP3    H269920   0.046   2.506   1.856  0.0707 -2.1829  1.2916
16169TIP3   OH269921   3.960   3.588   4.029  0.0929  0.6575  0.2166
16169TIP3    H169922   3.905   3.645   3.974 -1.7060 -0.3981  0.8424
16169TIP3    H269923   3.913   3.582   4.112  0.3116 -1.5874  0.2341
16170TIP3   OH269924   1.966   0.525  11.954 -0.3159  0.4718  0.1402
16170TIP3    H169925   1.939   0.611  11.921 -0.7914 -0.7035 -2.9301
16170TIP3    H269926   1.884   0.480  11.973 -0.1744  0.0085 -0.3188
16171TIP3   OH269927   4.407   3.905  14.428  0.0591 -0.2985 -0.0870
16171TIP3    H169928   4.327   3.872  14.469  1.0290 -1.3798  1.0416
16171TIP3    H269929   4.430   3.982  14.480 -0.4408  0.2381 -0.6514
16172TIP3   OH269930   3.624   4.612  11.194 -0.0936  0.4877 -0.6615
16172TIP3    H169931   3.612   4.518  11.182  2.4063  0.2518 -2.0552
16172TIP3    H269932   3.640   4.622  11.288  0.5507 -0.6272 -0.6360
16173TIP3   OH269933   1.089   6.236  16.654  0.1383 -0.1584 -0.1847
16173TIP3    H169934   1.162   6.177  16.673  0.4582  0.2887 -0.0222
16173TIP3    H269935   1.130   6.317  16.623 -0.1914  0.7578  1.6306
16174TIP3   OH269936   2.264   1.807  16.006 -0.0171  0.0407  0.0742
16174TIP3    H169937   2.294   1.897  15.992 -1.2242  0.4784  0.1353
16174TIP3    H269938   2.218   1.811  16.090  1.1631 -0.9771  0.7921
16175TIP3   OH269939   0.111   2.432   2.550  0.7479 -0.5697 -0.1402
16175TIP3    H169940   0.166   2.510   2.542  3.9275 -2.4720  1.0732
16175TIP3    H269941   0.106   2.397   2.461  2.2189 -0.7011 -0.2091
16176TIP3   OH269942   3.687   4.286   0.840 -0.1049  0.0526  0.2107
16176TIP3    H169943   3.758   4.228   0.812  0.4151  0.6522  0.2374
16176TIP3    H269944   3.613   4.262   0.785  1.1099  1.7429 -2.4123
16177TIP3   OH269945   0.651   6.801   5.105 -0.4242  0.1355  0.4323
16177TIP3    H169946   0.693   6.764   5.183  2.2234  0.6423 -0.6440
16177TIP3    H269947   0.636   6.725   5.048  0.3509  0.0884  0.2751
16178TIP3   OH269948   1.637   3.088  13.441 -0.2943 -0.6440  0.0353
16178TIP3    H169949   1.722   3.070  13.402  0.9669 -0.4740  2.4607
16178TIP3    H269950   1.624   3.182  13.430 -0.3803 -0.7451 -0.7254
16179TIP3   OH269951   1.341   2.747   3.129 -0.0297 -0.0383 -0.3273
16179TIP3    H169952   1.365   2.805   3.057  1.7320  0.4897  0.6295
16179TIP3    H269953   1.273   2.795   3.176 -0.5894 -0.0154 -1.1291
16180TIP3   OH269954   2.799   0.502  14.901 -0.1111  0.0222  0.3314
16180TIP3    H169955   2.810   0.592  14.870  0.6048 -0.5770 -1.2322
16180TIP3    H269956   2.718   0.472  14.859 -0.2796 -0.1135  0.7467
16181TIP3   OH269957   0.796   3.454   3.273  0.3455  0.5963  0.1516
16181TIP3    H169958   0.782   3.377   3.328 -0.9754 -0.2383 -1.2651
16181TIP3    H269959   0.890   3.455   3.256  0.4052 -0.6151  0.3411
16182TIP3   OH269960   4.340   3.621   2.664 -0.4709 -0.0977 -0.1877
16182TIP3    H169961   4.365   3.705   2.702  0.1218  0.0053 -0.7960
16182TIP3    H269962   4.282   3.643   2.592  0.6430 -0.1292 -1.1193
16183TIP3   OH269963   1.840   3.579   4.116  0.2158  0.3128 -0.0559
16183TIP3    H169964   1.838   3.557   4.209 -1.9342 -0.5205 -0.2585
16183TIP3    H269965   1.807   3.501   4.072 -2.7801  2.0627 -1.1904
16184TIP3   OH269966   4.595   3.565   0.865 -0.1747  0.7773 -0.4681
16184TIP3    H169967   4.603   3.545   0.772 -1.3777 -1.5670 -0.1374
16184TIP3    H269968   4.524   3.629   0.868  0.9432  2.1112 -1.2467
16185TIP3   OH269969   2.737   0.232   4.947 -0.0392 -0.3524  0.1292
16185TIP3    H169970   2.655   0.260   4.989 -0.5482 -1.5115 -0.0455
16185TIP3    H269971   2.802   0.235   5.017 -0.8501 -2.1451  1.0381
16186TIP3   OH269972   1.435   1.966   3.287 -0.2459 -0.5930 -0.7387
16186TIP3    H169973   1.451   1.875   3.262 -0.3623 -1.5220  2.2027
16186TIP3    H269974   1.340   1.973   3.290 -0.2986  0.2067 -2.5939
16187TIP3   OH269975   1.462   2.030   0.155  0.4974  0.0198 -0.3655
16187TIP3    H169976   1.440   2.119   0.130 -0.9951 -0.1693  0.2009
16187TIP3    H269977   1.528   2.039   0.223 -0.3689  0.7414  0.3997
16188TIP3   OH269978   3.113   1.977   4.262  0.0662 -0.0202 -0.2170
16188TIP3    H169979   3.121   2.072   4.269  0.5060 -0.0482 -0.3011
16188TIP3    H269980   3.197   1.948   4.224  0.0984 -0.4767  0.1826
16189TIP3   OH269981   2.673   5.946   2.949 -0.0575  0.2651 -0.2599
16189TIP3    H169982   2.680   5.866   2.897 -1.6855  0.1979 -0.4134
16189TIP3    H269983   2.758   5.989   2.938  2.0733 -2.8258  2.2139
16190TIP3   OH269984   3.471   4.245   0.664 -0.2328 -0.0914 -0.3003
16190TIP3    H169985   3.484   4.226   0.571 -0.8557  0.0733 -0.4229
16190TIP3    H269986   3.438   4.162   0.701  1.3020 -0.5748  0.0528
16191TIP3   OH269987   5.483   6.667  11.213  0.3501 -0.0931 -0.5857
16191TIP3    H169988   5.444   6.582  11.236 -0.2675  0.2797 -0.2348
16191TIP3    H269989   5.408   6.724  11.198  0.7657  0.3701 -0.9291
16192TIP3   OH269990   3.906   5.017   5.578 -0.3073  0.4103 -0.0819
16192TIP3    H169991   3.963   4.966   5.635 -0.6549  0.3586  0.2265
16192TIP3    H269992   3.921   5.108   5.603 -0.0390  0.4269 -0.3020
16193TIP3   OH269993   5.419   4.449  11.533  0.0495 -0.0223  0.4347
16193TIP3    H169994   5.417   4.405  11.448  0.2557 -1.5618  1.1888
16193TIP3    H269995   5.408   4.541  11.512  0.9405 -0.2683 -1.3282
16194TIP3   OH269996   1.170   5.439  14.423 -0.4139 -0.0311 -0.0852
16194TIP3    H169997   1.139   5.489  14.498  2.3975  0.5514  0.7850
16194TIP3    H269998   1.139   5.488  14.347 -0.5197  1.1773  0.7164
16195TIP3   OH269999   2.991   2.667  13.620  0.3851  0.1581 -0.0679
16195TIP3    H170000   3.048   2.728  13.666  0.7212 -0.3899  0.2573
16195TIP3    H270001   2.908   2.671  13.668  0.6812 -0.2856  0.4968
16196TIP3   OH270002   3.131   1.167  12.225 -0.5616  0.0501  0.5049
16196TIP3    H170003   3.188   1.099  12.259  1.9719  2.1415  0.7428
16196TIP3    H270004   3.050   1.121  12.201  0.9070 -2.9447  0.8540
16197TIP3   OH270005   5.011   5.639   0.877 -0.1496  0.3021  0.4154
16197TIP3    H170006   4.940   5.691   0.914 -0.2765 -0.1790  0.8652
16197TIP3    H270007   5.023   5.674   0.788 -1.3269  0.0299  0.1249
16198TIP3   OH270008   6.040   4.126   4.875 -0.4136 -0.6262  0.2357
16198TIP3    H170009   5.963   4.133   4.931 -1.2052 -0.9170 -0.7838
16198TIP3    H270010   6.112   4.110   4.935 -1.5261 -2.9871  1.0448
16199TIP3   OH270011   5.272   0.550   5.705 -0.2113 -0.3636  0.5797
16199TIP3    H170012   5.258   0.567   5.612  0.2877 -2.6330  0.0479
16199TIP3    H270013   5.221   0.618   5.749  0.2177  1.2856 -1.3213
16200TIP3   OH270014   2.458   3.016  16.601 -0.3130  0.0415 -0.4346
16200TIP3    H170015   2.506   3.082  16.551 -1.2464  2.5663  1.7459
16200TIP3    H270016   2.383   3.064  16.638 -0.5366 -1.9898  2.0596
16201TIP3   OH270017   1.734   2.328  11.456  0.3640  0.0972 -0.2706
16201TIP3    H170018   1.766   2.372  11.534  0.9519  1.2039 -1.1209
16201TIP3    H270019   1.777   2.242  11.458 -1.5407 -0.9168  1.9077
16202TIP3   OH270020   6.370   2.823  16.496  0.2472  0.1787 -0.1252
16202TIP3    H170021   6.304   2.757  16.515  1.2548 -1.0162 -0.6857
16202TIP3    H270022   6.452   2.785  16.525  0.7334  1.6358  0.5350
16203TIP3   OH270023   4.115   4.143  13.503 -0.1478 -0.1972  0.5919
16203TIP3    H170024   4.173   4.090  13.557 -1.3627  1.4380  3.7902
16203TIP3    H270025   4.172   4.211  13.467  0.1180  1.4149  3.7202
16204TIP3   OH270026   5.265   1.160  15.359  0.4670  0.1075  0.1316
16204TIP3    H170027   5.241   1.167  15.451 -0.1670  1.0404 -0.0912
16204TIP3    H270028   5.337   1.223  15.348  1.6954 -1.2021  0.3384
16205TIP3   OH270029   0.118   0.579   1.485  0.0422  0.2215 -0.2636
16205TIP3    H170030   0.034   0.534   1.484  0.1949 -0.1416  1.2010
16205TIP3    H270031   0.179   0.518   1.445  0.0304 -0.4235  0.6922
16206TIP3   OH270032   5.000   3.244  11.518 -0.6976  0.1093  0.0204
16206TIP3    H170033   4.921   3.200  11.487  0.2829 -0.8344 -1.2622
16206TIP3    H270034   5.026   3.300  11.445 -0.4780  0.8377  0.6462
16207TIP3   OH270035   5.083   5.813  14.574 -0.8505  0.4118  0.3352
16207TIP3    H170036   5.000   5.769  14.559 -0.4945  0.1976 -1.1302
16207TIP3    H270037   5.129   5.808  14.490  1.5865 -1.3990  1.6660
16208TIP3   OH270038   4.218   4.885  13.593  0.9808  0.0835  0.2554
16208TIP3    H170039   4.159   4.871  13.668  1.5245  0.5243  0.7756
16208TIP3    H270040   4.161   4.914  13.523  0.2776 -1.5614  0.1087
16209TIP3   OH270041   2.735   3.172   0.770 -0.6195 -0.0782  0.7963
16209TIP3    H170042   2.823   3.162   0.806  0.8746 -0.4624 -2.5806
16209TIP3    H270043   2.719   3.266   0.769 -0.3517 -0.0151  1.5539
16210TIP3   OH270044   2.235   4.108   4.895  0.1056  0.3993  0.3948
16210TIP3    H170045   2.158   4.070   4.937 -0.5592 -0.4209 -1.4649
16210TIP3    H270046   2.297   4.121   4.967 -1.7267  1.0880  1.9470
16211TIP3   OH270047   6.643   0.216  12.567  0.1591 -0.2305 -0.5120
16211TIP3    H170048   6.598   0.286  12.613  0.9986  0.0451 -0.0970
16211TIP3    H270049   6.583   0.191  12.496 -0.4355  0.4372 -0.2527
16212TIP3   OH270050   4.875   0.218   3.398 -0.4095 -0.4861  0.4666
16212TIP3    H170051   4.951   0.273   3.380  0.0072 -1.0463  0.4990
16212TIP3    H270052   4.810   0.243   3.332 -0.0015 -0.3834  0.1051
16213TIP3   OH270053   5.050   4.867  15.734  0.3940 -0.1195 -0.5086
16213TIP3    H170054   5.141   4.863  15.707  1.1708  1.0093  1.7235
16213TIP3    H270055   5.052   4.907  15.821 -2.3087  0.8310 -0.7828
16214TIP3   OH270056   4.430   6.409   0.704 -0.3291 -0.0316  0.3500
16214TIP3    H170057   4.403   6.501   0.707  0.8596  0.3125  1.2666
16214TIP3    H270058   4.483   6.397   0.783  0.5514 -1.1763 -0.3807
16215TIP3   OH270059   5.770   5.654  13.012  0.5521  0.6256  0.0300
16215TIP3    H170060   5.704   5.626  13.075 -0.3398  1.5883 -0.4451
16215TIP3    H270061   5.733   5.630  12.926  1.0640  0.6851 -0.2099
16216TIP3   OH270062   5.989   5.967  13.990 -0.0244 -0.1917  0.2398
16216TIP3    H170063   6.074   5.989  13.952  1.0114  0.3837  2.6499
16216TIP3    H270064   6.010   5.921  14.071 -2.0544 -0.9267  0.4182
16217TIP3   OH270065   3.241   0.642   1.926  0.1976  0.1356 -0.3046
16217TIP3    H170066   3.234   0.734   1.900 -0.2772  0.0771 -0.3969
16217TIP3    H270067   3.324   0.636   1.974  0.3295  0.5667 -0.4807
16218TIP3   OH270068   2.639   3.593   4.554 -0.3808 -0.4532  0.0428
16218TIP3    H170069   2.543   3.587   4.556 -0.4622  0.5293 -0.2606
16218TIP3    H270070   2.659   3.619   4.464  0.3939 -3.6175 -0.8236
16219TIP3   OH270071   5.219   3.479   5.273  0.9776  0.6719  0.0361
16219TIP3    H170072   5.311   3.505   5.270  0.8514  1.0667 -2.1709
16219TIP3    H270073   5.216   3.396   5.225  0.1931  0.6526  0.1076
16220TIP3   OH270074   3.385   4.161   3.130  0.2986  0.7005  0.4361
16220TIP3    H170075   3.469   4.139   3.088  1.0874  2.8384  0.7592
16220TIP3    H270076   3.351   4.077   3.161  2.2270 -0.2590  0.1233
16221TIP3   OH270077   6.705   2.339   2.732  0.2217 -0.9413 -0.0188
16221TIP3    H170078   6.791   2.364   2.699  0.2037 -2.5539 -1.4466
16221TIP3    H270079   6.709   2.355   2.826  1.6160  0.2534 -0.2509
16222TIP3   OH270080   4.785   0.970   2.915 -0.3984 -0.2068  0.1190
16222TIP3    H170081   4.843   0.901   2.884 -2.2119 -1.6902 -0.1684
16222TIP3    H270082   4.749   1.008   2.835  0.8383  1.3852  0.2571
16223TIP3   OH270083   5.931   1.281  16.759 -0.0273  0.6103 -0.0104
16223TIP3    H170084   5.936   1.302  16.852 -1.9513 -0.5430  0.3845
16223TIP3    H270085   5.904   1.189  16.755  4.3045 -0.8700 -1.7084
16224TIP3   OH270086   4.625   6.101   4.106  0.0483  0.4503  0.4967
16224TIP3    H170087   4.569   6.027   4.085 -0.8070  1.3076 -0.3870
16224TIP3    H270088   4.714   6.070   4.092 -0.3629  0.0237 -1.3759
16225TIP3   OH270089   0.221   6.337  12.723  0.1403 -0.6161 -0.0086
16225TIP3    H170090   0.297   6.297  12.681 -0.1037 -1.0499 -0.0462
16225TIP3    H270091   0.191   6.402  12.659  0.9371  0.1047  0.3413
16226TIP3   OH270092   6.397   2.270   0.398  0.2886 -0.4490 -0.1646
16226TIP3    H170093   6.307   2.303   0.396 -0.6481 -2.8444 -1.3047
16226TIP3    H270094   6.439   2.319   0.468 -2.7763 -1.3659  2.5397
16227TIP3   OH270095   0.479   5.707   3.415 -0.1669  0.4419  0.0353
16227TIP3    H170096   0.507   5.799   3.416 -1.8136  0.9810  0.5721
16227TIP3    H270097   0.388   5.710   3.443 -0.7284 -1.2176 -1.4506
16228TIP3   OH270098   4.695   2.939   4.310  0.3131 -0.2234  0.1489
16228TIP3    H170099   4.694   2.845   4.290 -1.6653 -0.0277 -0.8930
16228TIP3    H270100   4.784   2.956   4.339  0.5745 -2.5422  0.9326
16229TIP3   OH270101   1.614   6.791   1.043 -0.3110  0.3361 -0.4075
16229TIP3    H170102   1.548   6.850   1.008  0.8653  2.3231  0.5975
16229TIP3    H270103   1.591   6.781   1.135  0.7590  1.0610 -0.0423
16230TIP3   OH270104   5.021   6.521   3.386 -0.2056  0.6113 -0.0973
16230TIP3    H170105   5.050   6.519   3.477  3.0859  0.7269 -1.0148
16230TIP3    H270106   5.022   6.430   3.358 -1.1424  0.5817 -0.0510
16231TIP3   OH270107   1.314   2.007  15.506  0.0788 -0.2678  0.4036
16231TIP3    H170108   1.306   1.953  15.427 -3.0274 -1.0005  1.0654
16231TIP3    H270109   1.274   1.953  15.575 -0.6484  1.7932  1.6729
16232TIP3   OH270110   2.790   5.090  13.538 -0.3222 -0.2987  0.1784
16232TIP3    H170111   2.703   5.114  13.507 -0.3769  1.2119  1.4168
16232TIP3    H270112   2.834   5.173  13.553  0.5609 -1.0145  1.7013
16233TIP3   OH270113   2.747   3.009   5.377 -0.0197 -0.7026  0.1195
16233TIP3    H170114   2.756   3.095   5.416 -0.5987 -0.0039 -1.2003
16233TIP3    H270115   2.837   2.981   5.359  0.1594 -0.1904  0.1995
16234TIP3   OH270116   2.111   5.451  16.587 -0.0978  0.1207  0.1657
16234TIP3    H170117   2.180   5.496  16.538 -1.4564  1.5338 -0.5272
16234TIP3    H270118   2.099   5.368  16.540 -0.7747  1.0755 -1.4572
16235TIP3   OH270119   0.454   4.123  16.778 -0.0227  0.1296  0.2344
16235TIP3    H170120   0.410   4.176  16.844 -1.7752  0.8228 -1.4137
16235TIP3    H270121   0.518   4.182  16.738 -0.9604  0.6175 -0.6000
16236TIP3   OH270122   2.743   4.076  12.317 -0.2996 -0.0105 -0.0335
16236TIP3    H170123   2.746   3.995  12.267  2.3453  0.0178 -0.0550
16236TIP3    H270124   2.788   4.140  12.262  1.1049  0.4569  1.5853
16237TIP3   OH270125   3.686   1.402  13.271 -0.2059  0.1822  0.3826
16237TIP3    H170126   3.606   1.349  13.267 -0.6859  0.7834  1.4456
16237TIP3    H270127   3.654   1.493  13.270  0.5939  0.4797 -1.2521
16238TIP3   OH270128   3.841   6.719   4.051  0.0538 -0.1351  0.5098
16238TIP3    H170129   3.767   6.761   4.008  0.5524  1.4234  1.1261
16238TIP3    H270130   3.853   6.637   4.003  0.3374  1.3298 -2.1062
16239TIP3   OH270131   0.759   5.189   5.244  0.0468  0.4455  0.6324
16239TIP3    H170132   0.760   5.097   5.220 -0.9960  0.2331  1.3636
16239TIP3    H270133   0.691   5.228   5.189  0.5956  0.8274  0.2050
16240TIP3   OH270134   6.108   6.413   0.635  0.7709  0.4388 -0.1054
16240TIP3    H170135   6.066   6.432   0.551 -2.1807  2.3663  1.6130
16240TIP3    H270136   6.094   6.492   0.687  0.5356 -1.4363  2.9279
16241TIP3   OH270137   2.029   1.623  15.386  0.1176 -0.1791 -0.3823
16241TIP3    H170138   1.958   1.559  15.376 -2.0978  2.0497  0.1818
16241TIP3    H270139   1.992   1.692  15.441  2.3301  1.6937 -1.0923
16242TIP3   OH270140   6.048   5.909   1.769  0.7368 -0.1679 -0.4674
16242TIP3    H170141   6.081   5.830   1.727 -0.5911 -0.2492 -1.4499
16242TIP3    H270142   6.059   5.894   1.863  0.0407 -1.7513 -0.6122
16243TIP3   OH270143   4.179   5.021  16.140 -0.3228  0.8535  0.8613
16243TIP3    H170144   4.235   5.050  16.067 -0.5325  0.4387  0.5291
16243TIP3    H270145   4.091   5.019  16.103 -0.6558  2.0933  1.5601
16244TIP3   OH270146   3.170   3.960  13.784 -0.2003  0.7485  0.1263
16244TIP3    H170147   3.100   3.895  13.788 -0.5041  1.0007 -0.9032
16244TIP3    H270148   3.247   3.914  13.818 -0.9325  0.5958  1.6402
16245TIP3   OH270149   3.705   6.220   3.361 -0.0551  0.4400 -0.2004
16245TIP3    H170150   3.619   6.210   3.321 -0.2037 -0.2775  0.2750
16245TIP3    H270151   3.766   6.226   3.288 -0.2675 -1.3106 -0.5580
16246TIP3   OH270152   3.955   1.553  13.151  0.1490 -0.6448  0.1129
16246TIP3    H170153   3.892   1.555  13.223  0.1371 -0.7885  0.1076
16246TIP3    H270154   3.913   1.498  13.084 -0.6785  0.9939 -0.7904
16247TIP3   OH270155   5.597   0.817  12.500 -0.2461  0.2118 -0.2352
16247TIP3    H170156   5.534   0.868  12.450 -0.4613  1.8171  1.5718
16247TIP3    H270157   5.592   0.852  12.589 -0.0211 -2.6177  1.0114
16248TIP3   OH270158   2.558   4.697   3.147 -0.1846 -0.5269  0.2308
16248TIP3    H170159   2.638   4.720   3.100  0.8163  1.2723  2.6215
16248TIP3    H270160   2.588   4.674   3.235 -1.9238 -4.1803  0.0436
16249TIP3   OH270161   6.196   2.637   3.769 -0.0551  0.4221  0.4768
16249TIP3    H170162   6.213   2.607   3.859  0.6199  0.0530  0.2380
16249TIP3    H270163   6.180   2.731   3.778 -1.7983  0.0980  1.1940
16250TIP3   OH270164   5.281   3.264  16.489 -0.3335 -0.2534 -0.2106
16250TIP3    H170165   5.195   3.286  16.524  0.6342  0.5312  1.8862
16250TIP3    H270166   5.289   3.170  16.503 -1.3753 -0.6151 -1.7879
16251TIP3   OH270167   4.504   1.490   5.909 -0.3372  0.3023  0.0480
16251TIP3    H170168   4.530   1.512   5.999  1.6926  1.2157 -0.7113
16251TIP3    H270169   4.543   1.403   5.894 -0.5627  0.2083  0.0030
16252TIP3   OH270170   2.947   4.197   1.601 -0.1930  0.1910  0.4298
16252TIP3    H170171   2.989   4.281   1.616  0.1002 -0.1948  1.9343
16252TIP3    H270172   2.871   4.197   1.660 -1.8176  0.4963 -1.5478
16253TIP3   OH270173   3.151   3.861   0.804  0.2672 -0.2524 -0.0943
16253TIP3    H170174   3.100   3.891   0.879  1.0251  0.4075  0.1638
16253TIP3    H270175   3.111   3.777   0.781 -1.6493  0.7489 -0.6015
16254TIP3   OH270176   2.735   3.754  16.852  0.6461 -0.0998 -0.0851
16254TIP3    H170177   2.730   3.667  16.891 -1.5000 -0.0134 -0.0826
16254TIP3    H270178   2.750   3.813  16.926  0.6009 -0.3152  0.0957
16255TIP3   OH270179   0.153   5.795   2.240  0.0066 -0.2428  0.0881
16255TIP3    H170180   0.202   5.713   2.246  0.6679  0.0174 -1.3965
16255TIP3    H270181   0.220   5.864   2.250 -0.7616  0.2066  3.2334
16256TIP3   OH270182   4.240   5.996  10.902  0.3359  0.2173 -0.1085
16256TIP3    H170183   4.222   6.090  10.896  2.9692  0.7440 -1.5491
16256TIP3    H270184   4.163   5.954  10.866 -0.4105  1.8886 -0.5598
16257TIP3   OH270185   2.742   5.547   3.789 -0.3312  0.2959 -0.2057
16257TIP3    H170186   2.811   5.552   3.723  0.4162  0.0192  0.5418
16257TIP3    H270187   2.690   5.470   3.763  1.7118 -1.6595  1.1394
16258TIP3   OH270188   1.339   1.974  15.010 -0.8715  0.3560 -0.2290
16258TIP3    H170189   1.408   1.955  14.947 -0.9988 -2.5037  0.4000
16258TIP3    H270190   1.301   2.057  14.979  1.9330  1.3526 -1.3115
16259TIP3   OH270191   1.609   6.379  13.038 -0.0668 -0.2905 -0.0404
16259TIP3    H170192   1.578   6.290  13.052  0.3003 -0.5413 -0.8098
16259TIP3    H270193   1.539   6.421  12.988  0.7081 -0.7955 -1.5939
16260TIP3   OH270194   6.680   4.226   0.688  0.0139 -0.1662 -0.0181
16260TIP3    H170195   6.656   4.172   0.613  2.1730 -0.2217 -0.7513
16260TIP3    H270196   6.597   4.246   0.732 -0.9830 -3.3264 -0.1976
16261TIP3   OH270197   0.404   1.053   5.094  0.5671  0.2424 -0.5256
16261TIP3    H170198   0.437   1.137   5.126  0.9094 -0.2534  0.4598
16261TIP3    H270199   0.309   1.066   5.087  0.5748  0.6008 -0.0414
16262TIP3   OH270200   5.117   2.672  12.913  0.0217 -0.5815 -0.3312
16262TIP3    H170201   5.148   2.582  12.907  0.7683 -0.5833  2.3102
16262TIP3    H270202   5.179   2.723  12.862  0.7483 -1.3385 -0.2193
16263TIP3   OH270203   4.841   1.105  11.939 -0.5574  0.2482  0.3915
16263TIP3    H170204   4.929   1.073  11.920 -0.9564 -1.1057  0.6992
16263TIP3    H270205   4.854   1.180  11.997  0.3958  0.3485  0.0617
16264TIP3   OH270206   6.362   3.897  11.552 -0.1641  0.2669  0.2433
16264TIP3    H170207   6.345   3.987  11.581  0.9956  0.5649  0.0753
16264TIP3    H270208   6.314   3.842  11.613 -1.3898  1.0067 -0.0085
16265TIP3   OH270209   5.550   5.260  13.658  0.2616 -0.2969 -0.1115
16265TIP3    H170210   5.486   5.193  13.683  0.3082 -0.5636 -0.7113
16265TIP3    H270211   5.585   5.291  13.742 -1.8750  1.0703  0.3564
16266TIP3   OH270212   4.902   0.202  11.045 -0.3499 -0.0739  0.0565
16266TIP3    H170213   4.941   0.169  10.964  0.5686  0.2135  0.3698
16266TIP3    H270214   4.972   0.253  11.086 -1.1124  0.5752  0.5649
16267TIP3   OH270215   6.766   1.840  13.731 -0.6610  0.8037 -0.0224
16267TIP3    H170216   6.821   1.856  13.654  0.8769  1.3198  1.1357
16267TIP3    H270217   6.716   1.762  13.709  0.5188  0.3275 -1.1508
16268TIP3   OH270218   1.757   3.939   3.252 -0.0808  0.8207 -0.4876
16268TIP3    H170219   1.824   3.875   3.276 -0.9132 -0.1069 -0.5801
16268TIP3    H270220   1.730   3.978   3.336  0.6813  1.3264 -0.4674
16269TIP3   OH270221   2.265   2.235   0.565 -0.1560  0.6309  0.5561
16269TIP3    H170222   2.331   2.305   0.567 -0.0668  0.5379  1.1332
16269TIP3    H270223   2.290   2.177   0.637  0.5005 -0.6794 -0.6633
16270TIP3   OH270224   1.665   2.175   3.499  0.1196  0.6545  0.4400
16270TIP3    H170225   1.666   2.205   3.408  3.0481 -0.8892 -0.1594
16270TIP3    H270226   1.640   2.083   3.495  0.9892  0.3697  1.0657
16271TIP3   OH270227   1.581   3.029   0.801 -0.4495 -0.0447  0.1710
16271TIP3    H170228   1.568   2.935   0.791 -1.2937 -0.0690  1.2988
16271TIP3    H270229   1.570   3.064   0.712 -1.9960 -0.8203  0.0120
16272TIP3   OH270230   1.798   6.401   3.940  0.4750 -0.1426  0.2642
16272TIP3    H170231   1.819   6.338   3.871  0.7647  1.1998 -0.9286
16272TIP3    H270232   1.722   6.364   3.985  0.3415 -1.1026 -0.7152
16273TIP3   OH270233   0.619   1.207   3.345  0.1836 -0.6931 -0.2349
16273TIP3    H170234   0.544   1.148   3.344 -0.6005  0.2436 -2.2506
16273TIP3    H270235   0.588   1.286   3.301  1.7214  0.5917  0.8437
16274TIP3   OH270236   4.175   0.276  11.071  0.0551  0.3072 -0.0704
16274TIP3    H170237   4.187   0.184  11.092 -1.4148 -0.4353 -2.1315
16274TIP3    H270238   4.226   0.289  10.990 -0.7455  0.9501 -0.4916
16275TIP3   OH270239   4.101   0.825   5.093 -0.4958  0.6837 -0.3920
16275TIP3    H170240   4.037   0.852   5.159  1.6705  0.0737  2.1592
16275TIP3    H270241   4.157   0.902   5.082 -0.6361  0.6625 -1.2674
16276TIP3   OH270242   4.095   5.558   5.621 -1.2744 -0.0715 -0.1635
16276TIP3    H170243   4.056   5.503   5.553 -0.4452 -2.2397  1.0189
16276TIP3    H270244   4.134   5.497   5.682  1.2257  1.8879  0.3762
16277TIP3   OH270245   3.203   2.084  14.623 -0.0525  0.0202 -0.1527
16277TIP3    H170246   3.175   2.171  14.649  0.8411  0.8008 -1.6658
16277TIP3    H270247   3.206   2.034  14.705 -0.4635  1.4245  0.7497
16278TIP3   OH270248   0.326   2.753  15.539 -0.0639 -0.1171  0.6017
16278TIP3    H170249   0.362   2.672  15.502  0.9838 -0.3546  2.0591
16278TIP3    H270250   0.399   2.791  15.588 -1.0954  0.7131  1.5284
16279TIP3   OH270251   5.571   2.034   5.637 -0.2441  0.5546  0.6998
16279TIP3    H170252   5.592   1.955   5.687 -0.0735 -0.4676 -0.8937
16279TIP3    H270253   5.516   2.086   5.695 -0.8072 -0.9886  1.6084
16280TIP3   OH270254   5.905   5.481  16.274  0.3866  0.1165 -0.0366
16280TIP3    H170255   5.876   5.557  16.324 -1.3512  0.0387 -0.8561
16280TIP3    H270256   6.001   5.484  16.280  0.3533  2.1324  0.2691
16281TIP3   OH270257   3.239   4.097  14.965 -0.4116  0.5988  0.4242
16281TIP3    H170258   3.251   4.163  15.033 -0.1311  1.8389 -0.8060
16281TIP3    H270259   3.309   4.033  14.981  1.3973  2.3097 -0.3310
16282TIP3   OH270260   0.599   1.134  13.317  0.3815  0.1369  0.3153
16282TIP3    H170261   0.684   1.161  13.353  0.4018  0.9958 -0.3282
16282TIP3    H270262   0.551   1.099  13.391 -0.1233  3.1275  1.5203
16283TIP3   OH270263   3.904   5.370  13.895  0.0280 -0.0460 -0.0003
16283TIP3    H170264   3.951   5.443  13.855 -3.4709  1.9371 -0.9446
16283TIP3    H270265   3.891   5.308  13.823 -0.1779  0.1588 -0.1400
16284TIP3   OH270266   2.867   1.910   0.060 -0.0003 -0.0687  0.4501
16284TIP3    H170267   2.873   1.857  -0.020 -3.0902  0.0943 -0.0157
16284TIP3    H270268   2.873   1.846   0.131 -1.5238 -0.8667 -0.0670
16285TIP3   OH270269   1.062   4.381  11.565  0.4089 -0.0469 -0.1591
16285TIP3    H170270   1.127   4.434  11.610 -0.3639 -1.3677  2.7641
16285TIP3    H270271   1.007   4.444  11.518  1.3393  1.4430  0.6813
16286TIP3   OH270272   6.595   6.728  12.610  0.0245 -0.2307  0.5546
16286TIP3    H170273   6.645   6.806  12.583  1.2155 -0.9484  0.6167
16286TIP3    H270274   6.531   6.761  12.672 -1.1143  1.0763 -1.2265
16287TIP3   OH270275   0.876   2.264  15.326  0.5223 -0.0791 -0.2028
16287TIP3    H170276   0.880   2.360  15.336  0.3951 -0.0073 -0.8300
16287TIP3    H270277   0.967   2.238  15.310  0.7503 -0.2095  1.2031
16288TIP3   OH270278   4.539   4.745  16.441  0.5456  0.0689  0.6135
16288TIP3    H170279   4.454   4.787  16.434  0.0954 -0.3464  2.8087
16288TIP3    H270280   4.602   4.816  16.427 -0.1337  0.4945 -0.4189
16289TIP3   OH270281   1.513   6.461  12.476  0.1260  0.2400 -0.6082
16289TIP3    H170282   1.459   6.509  12.540  1.0033  0.7567 -0.2421
16289TIP3    H270283   1.598   6.451  12.519 -0.2424 -2.3671 -0.3495
16290TIP3   OH270284   5.015   3.432  15.599 -0.2257 -0.3821 -0.2116
16290TIP3    H170285   5.083   3.424  15.531  0.4345 -1.5695  0.5464
16290TIP3    H270286   5.011   3.526  15.618  1.7471 -0.3420  0.2313
16291TIP3   OH270287   5.075   3.293   4.860  0.0855  0.7528 -0.1093
16291TIP3    H170288   5.063   3.375   4.811 -0.9060  1.2834  0.9742
16291TIP3    H270289   5.070   3.225   4.793 -2.6491  1.3554 -0.6286
16292TIP3   OH270290   5.197   6.412   4.773 -0.4018  0.2508  0.8776
16292TIP3    H170291   5.241   6.384   4.852 -1.3429 -0.6385  1.1022
16292TIP3    H270292   5.189   6.333   4.719 -0.3709  0.7040  0.1865
16293TIP3   OH270293   2.052   6.762  16.864 -0.2680 -0.0475  0.0496
16293TIP3    H170294   1.976   6.769  16.923 -0.5852  0.6539 -0.4352
16293TIP3    H270295   2.104   6.840  16.882 -0.8153  0.6323 -1.2119
16294TIP3   OH270296   0.972   6.775  14.132  0.2961  0.1976 -0.4945
16294TIP3    H170297   0.915   6.822  14.071  0.6900  0.9609 -0.2883
16294TIP3    H270298   1.022   6.714  14.076 -0.4820 -0.2523 -0.7139
16295TIP3   OH270299   3.899   4.617  16.740  0.3557 -0.0398 -0.1104
16295TIP3    H170300   3.839   4.546  16.764  1.8427 -1.0730  0.7026
16295TIP3    H270301   3.895   4.620  16.645  1.2292 -2.1392 -0.2699
16296TIP3   OH270302   2.308   2.513   4.823  0.4219  0.0132 -0.2721
16296TIP3    H170303   2.295   2.598   4.782  2.1700 -0.0667 -1.0668
16296TIP3    H270304   2.295   2.530   4.917 -0.5094  0.8504 -0.5298
16297TIP3   OH270305   4.270   4.946  11.168  0.1994 -0.0222  0.5515
16297TIP3    H170306   4.316   5.022  11.204  1.0254  1.0305 -2.4173
16297TIP3    H270307   4.193   4.982  11.125 -1.1085 -1.2847  1.7481
16298TIP3   OH270308   3.084   2.348  11.588 -0.5256 -0.9238 -0.1321
16298TIP3    H170309   3.081   2.425  11.645 -1.7123 -0.3612 -0.9046
16298TIP3    H270310   3.024   2.286  11.630  1.8333 -2.2280  1.5143
16299TIP3   OH270311   1.956   2.589   3.777 -0.1814  0.6336 -0.2957
16299TIP3    H170312   1.909   2.508   3.758 -0.4373  0.3610  1.3476
16299TIP3    H270313   2.043   2.560   3.804 -0.1334  0.9330 -0.1298
16300TIP3   OH270314   2.195   2.815  12.867 -0.9221  0.3469  0.5974
16300TIP3    H170315   2.151   2.828  12.783 -0.5418 -0.7931  0.1970
16300TIP3    H270316   2.135   2.760  12.918  0.4716 -2.3465 -0.4347
16301TIP3   OH270317   1.874   2.688  14.712  0.5764  0.1382 -0.2393
16301TIP3    H170318   1.960   2.726  14.729  1.4570 -1.1011 -1.7448
16301TIP3    H270319   1.854   2.712  14.622 -0.5291  0.1596  0.0000
16302TIP3   OH270320   5.521   0.092  13.009  0.3837 -0.7996 -0.0206
16302TIP3    H170321   5.470   0.138  13.075 -0.5729 -1.2656 -0.4232
16302TIP3    H270322   5.609   0.129  13.017 -0.1482  0.4662  0.2650
16303TIP3   OH270323   5.019   1.226  15.058  0.1454  0.1241  0.1931
16303TIP3    H170324   5.031   1.307  15.108  0.5399 -0.0770  0.4321
16303TIP3    H270325   5.108   1.203  15.028 -0.0855  0.2408 -0.5998
16304TIP3   OH270326   3.185   4.110   1.456  0.5551  0.1895 -0.1555
16304TIP3    H170327   3.120   4.125   1.525 -0.2084 -1.6737 -0.4055
16304TIP3    H270328   3.202   4.197   1.420 -3.3276  0.6232 -1.4324
16305TIP3   OH270329   4.985   4.904  16.684  0.1194 -0.2990 -0.7443
16305TIP3    H170330   4.978   4.852  16.764 -1.6030  1.5295  0.4151
16305TIP3    H270331   5.077   4.927  16.677  0.1898  0.1906  1.2416
16306TIP3   OH270332   0.065   2.276   6.123  0.4118 -0.4265  0.7325
16306TIP3    H170333   0.029   2.245   6.206 -2.9095 -1.2024 -0.8289
16306TIP3    H270334   0.033   2.366   6.116  0.6370 -0.3834  0.2640
16307TIP3   OH270335   4.247   4.459  10.757 -0.5733 -0.0452  0.2250
16307TIP3    H170336   4.156   4.441  10.732 -1.1924  2.0391  0.7818
16307TIP3    H270337   4.279   4.520  10.691 -0.4239  1.1594  1.3514
16308TIP3   OH270338   1.092   2.880  17.141 -0.1790  0.7821  0.5125
16308TIP3    H170339   1.179   2.887  17.103 -0.0525  2.4435  1.0406
16308TIP3    H270340   1.032   2.880  17.066  0.2213  0.6097  0.1916
16309TIP3   OH270341   1.730   5.312   5.628 -0.0293  0.5046 -0.7150
16309TIP3    H170342   1.648   5.308   5.678  1.0856  1.2527  1.3058
16309TIP3    H270343   1.708   5.364   5.551 -1.2707  1.4632  0.2326
16310TIP3   OH270344   5.537   5.191  12.649 -0.3903  0.1148  0.0759
16310TIP3    H170345   5.625   5.227  12.659 -0.5546  0.2534  1.1439
16310TIP3    H270346   5.487   5.263  12.610 -0.1672  0.2304  0.0004
16311TIP3   OH270347   3.199   5.446  12.599  0.0748 -0.4807 -0.6564
16311TIP3    H170348   3.191   5.467  12.693  1.8054  1.3730 -0.8378
16311TIP3    H270349   3.199   5.351  12.596 -1.7985 -0.6078  1.0191
16312TIP3   OH270350   0.903   3.188  11.610  0.2773  0.0952  0.6112
16312TIP3    H170351   0.862   3.274  11.598 -2.1056 -1.2655 -2.3152
16312TIP3    H270352   0.975   3.188  11.547 -1.7395 -1.0536 -1.8700
16313TIP3   OH270353   1.700   1.426   4.701 -0.1326  0.0160 -0.1045
16313TIP3    H170354   1.672   1.492   4.638 -0.3362  0.2641  0.2379
16313TIP3    H270355   1.778   1.386   4.662 -0.8917 -0.6185 -1.0345
16314TIP3   OH270356   1.823   4.264   2.536 -0.3403 -0.1696  0.0141
16314TIP3    H170357   1.741   4.220   2.513 -0.7578  0.1224  0.8852
16314TIP3    H270358   1.806   4.357   2.516 -0.6369  0.0593  1.2354
16315TIP3   OH270359   4.170   2.421  10.637  0.3253 -0.0509 -0.8495
16315TIP3    H170360   4.163   2.379  10.722 -0.0486  0.9764 -0.3608
16315TIP3    H270361   4.264   2.427  10.620  0.3834 -1.2139 -1.0059
16316TIP3   OH270362   0.517   4.008  15.711  0.4258  0.4573 -0.5160
16316TIP3    H170363   0.503   4.027  15.804  2.8622 -0.1663  0.0449
16316TIP3    H270364   0.578   4.075  15.682  3.3505 -1.9597 -0.3850
16317TIP3   OH270365   0.825   2.645   3.298 -0.2170 -0.2062  0.5336
16317TIP3    H170366   0.830   2.561   3.252  0.7217 -0.5088  1.1599
16317TIP3    H270367   0.861   2.626   3.385 -2.4778  0.2012  1.6248
16318TIP3   OH270368   4.361   0.064  11.162  0.1861  0.7451 -0.2725
16318TIP3    H170369   4.324  -0.023  11.172  1.2581  0.4669  1.7998
16318TIP3    H270370   4.408   0.061  11.079 -0.1987 -0.4901 -0.4645
16319TIP3   OH270371   5.573   5.957   6.100  0.1417 -0.0978  0.4470
16319TIP3    H170372   5.605   6.009   6.027 -1.0349 -0.5431 -0.4264
16319TIP3    H270373   5.651   5.916   6.136  0.6796 -0.4326 -1.0140
16320TIP3   OH270374   2.002   2.692   5.748 -0.0173  0.1512  0.1312
16320TIP3    H170375   1.983   2.603   5.779 -0.4971  0.2613  0.1557
16320TIP3    H270376   2.072   2.680   5.683 -2.9981 -0.8391 -3.2275
16321TIP3   OH270377   5.510   2.546   3.840 -0.1571  0.0517  0.0404
16321TIP3    H170378   5.416   2.559   3.846 -0.2434 -0.7779  0.5599
16321TIP3    H270379   5.525   2.458   3.876  0.9452  0.6418  1.0855
16322TIP3   OH270380   5.714   4.526   5.266  0.3317  0.4582  0.6372
16322TIP3    H170381   5.809   4.518   5.269  0.6628  3.4035  0.4386
16322TIP3    H270382   5.689   4.474   5.189  1.9172  0.6101 -0.0297
16323TIP3   OH270383   4.058   1.631   4.498 -0.1185 -0.0275 -0.2331
16323TIP3    H170384   4.069   1.619   4.592  1.8312  1.4035 -0.2307
16323TIP3    H270385   4.145   1.615   4.461 -1.3947 -3.4919 -2.2203
16324TIP3   OH270386   5.637   0.487   5.632  0.4433 -0.4227  1.0219
16324TIP3    H170387   5.549   0.488   5.596  0.6972 -0.0045  0.3933
16324TIP3    H270388   5.664   0.395   5.628  0.0837 -0.5333  1.1123
16325TIP3   OH270389   5.519   5.406   1.474 -0.1120  0.5248 -0.1686
16325TIP3    H170390   5.434   5.372   1.502  0.3187 -2.3471 -1.9799
16325TIP3    H270391   5.505   5.433   1.383  0.8452  0.1736 -0.4344
16326TIP3   OH270392   0.136   0.013   1.149  0.1254  0.2490 -0.5921
16326TIP3    H170393   0.216   0.028   1.200  0.2839  0.4764 -0.9066
16326TIP3    H270394   0.161  -0.054   1.086 -0.8378 -2.2178  1.4476
16327TIP3   OH270395   5.807   6.078   4.423  0.5058 -0.8118  0.8566
16327TIP3    H170396   5.867   6.108   4.491  0.5647 -0.1724  0.5305
16327TIP3    H270397   5.818   5.983   4.421  0.5220 -0.8323  1.7195
16328TIP3   OH270398   3.669   4.179   4.845 -0.1547  0.0961 -0.2431
16328TIP3    H170399   3.582   4.142   4.857  0.1499 -0.3987  0.4783
16328TIP3    H270400   3.704   4.188   4.934  1.3245 -1.6367 -0.5981
16329TIP3   OH270401   3.796   0.502  10.619 -0.0652 -0.5186  0.2465
16329TIP3    H170402   3.703   0.501  10.643  0.4341 -1.8107  2.3974
16329TIP3    H270403   3.836   0.435  10.674  1.8202 -1.5785 -2.1975
16330TIP3   OH270404   2.623   3.416   2.709  0.2379  0.1337 -0.1760
16330TIP3    H170405   2.717   3.422   2.723  0.5135 -0.3434 -1.7045
16330TIP3    H270406   2.612   3.356   2.635 -1.2432  0.4501 -0.2587
16331TIP3   OH270407   2.373   4.038   3.170  0.0455 -0.0005 -0.7928
16331TIP3    H170408   2.444   3.992   3.125  0.2709  0.7497 -1.2359
16331TIP3    H270409   2.414   4.074   3.249 -0.4982 -1.8489  0.3805
16332TIP3   OH270410   5.640   0.546  16.163  0.2401 -0.1497  0.3759
16332TIP3    H170411   5.595   0.471  16.124 -0.1719 -0.0397  0.6395
16332TIP3    H270412   5.699   0.508  16.228 -1.3620 -0.1399  1.8973
16333TIP3   OH270413   6.733   2.968  16.294 -0.2610  0.4718  0.4007
16333TIP3    H170414   6.778   2.910  16.355 -0.3907  0.6927  0.7166
16333TIP3    H270415   6.757   3.056  16.323 -0.9173  0.5924  0.6009
16334TIP3   OH270416   5.158   0.966  16.991  0.1745 -0.2308  0.4159
16334TIP3    H170417   5.150   0.952  16.897 -1.1329 -0.6963  0.5704
16334TIP3    H270418   5.162   0.878  17.028  3.2029 -0.0855  0.6695
16335TIP3   OH270419   4.971   4.836  17.081  0.0975 -0.0257  0.2860
16335TIP3    H170420   4.880   4.811  17.062 -0.1811  1.0248  0.1785
16335TIP3    H270421   5.023   4.787  17.017 -0.2423 -1.7258  1.2404
16336TIP3   OH270422   0.152   5.868   4.581 -0.6097 -0.6203  0.0988
16336TIP3    H170423   0.130   5.814   4.504  0.7886 -3.4208  1.4928
16336TIP3    H270424   0.070   5.871   4.631 -0.5609 -2.2054  0.3484
16337TIP3   OH270425   3.639   2.722   1.734  0.3836  0.1746 -0.2517
16337TIP3    H170426   3.672   2.796   1.683 -0.4441 -0.4784 -1.7996
16337TIP3    H270427   3.667   2.644   1.685  0.7282 -0.5350  1.0281
16338TIP3   OH270428   3.562   2.094  12.836  0.2044 -0.0983 -0.4438
16338TIP3    H170429   3.632   2.090  12.771  0.2938 -2.1733 -0.2752
16338TIP3    H270430   3.500   2.158  12.801  1.3510  0.5086 -1.4260
16339TIP3   OH270431   5.625   6.157  13.519  0.6927 -0.5028  0.1328
16339TIP3    H170432   5.718   6.142  13.505  0.2581 -0.8925 -3.0417
16339TIP3    H270433   5.588   6.070  13.537  0.6600 -0.6678 -0.7113
16340TIP3   OH270434   4.764   3.725  16.641  0.0600  0.3527 -0.6672
16340TIP3    H170435   4.857   3.710  16.626  0.0234  0.9598 -1.6204
16340TIP3    H270436   4.762   3.782  16.718  0.4695  0.2449 -0.5712
16341TIP3   OH270437   2.500   5.723   1.620 -0.5464  0.7223 -0.0343
16341TIP3    H170438   2.558   5.671   1.675  0.2656  0.4770 -1.0950
16341TIP3    H270439   2.550   5.803   1.601 -0.8051  0.7896 -0.4425
16342TIP3   OH270440   6.168   0.932   2.677  0.2130  0.7576 -0.0656
16342TIP3    H170441   6.073   0.936   2.688  0.3216  0.6413  0.9315
16342TIP3    H270442   6.185   0.840   2.653 -0.1287  1.2454 -2.4869
16343TIP3   OH270443   6.022   1.104   0.815  0.0268  0.1069 -0.0444
16343TIP3    H170444   5.985   1.026   0.774  0.2504  0.3750 -0.7773
16343TIP3    H270445   5.990   1.102   0.905  2.0120 -2.1875  0.7356
16344TIP3   OH270446   4.335   1.066  14.699  0.1876 -0.3618 -0.3078
16344TIP3    H170447   4.312   1.070  14.791 -0.6752  0.0702 -0.5277
16344TIP3    H270448   4.430   1.077  14.697 -0.1043  3.5809  0.3221
16345TIP3   OH270449   4.334   2.635  12.646 -0.2565 -0.3387 -0.1553
16345TIP3    H170450   4.395   2.681  12.588 -0.6497 -0.6758 -0.8530
16345TIP3    H270451   4.348   2.675  12.732 -0.2950  0.7950 -0.6573
16346TIP3   OH270452   0.085   2.162   0.989 -0.0061 -0.2384  0.6288
16346TIP3    H170453   0.118   2.105   0.920 -1.1576 -1.7526  1.2837
16346TIP3    H270454   0.007   2.203   0.952  0.3344  0.2834  0.4645
16347TIP3   OH270455   1.992   1.710  16.292  0.8485  0.2346 -0.1806
16347TIP3    H170456   2.029   1.637  16.241  0.4491 -0.8182  0.9868
16347TIP3    H270457   1.915   1.673  16.334 -1.3616  2.2478 -2.1619
16348TIP3   OH270458   6.024   5.006  12.126 -0.3430  0.1998  1.1062
16348TIP3    H170459   5.974   5.009  12.044  0.5176  1.6896  0.5955
16348TIP3    H270460   6.110   4.972  12.101 -0.9853 -2.2480  1.9639
16349TIP3   OH270461   0.575   0.661   2.351 -0.1307 -0.1031  0.1221
16349TIP3    H170462   0.613   0.587   2.305 -0.3139 -0.3874  0.4266
16349TIP3    H270463   0.508   0.695   2.291  1.2847  1.0502 -0.8754
16350TIP3   OH270464   6.570   5.568   5.613  0.4071  0.4996  0.2261
16350TIP3    H170465   6.591   5.646   5.664 -0.9539  0.9402  0.1313
16350TIP3    H270466   6.476   5.554   5.626  0.7047 -1.4481  0.6799
16351TIP3   OH270467   3.205   0.427  10.813  0.0873  0.5404  0.6349
16351TIP3    H170468   3.232   0.437  10.721 -0.2991  1.5052  0.6163
16351TIP3    H270469   3.223   0.513  10.852 -0.5654  0.3996  1.2479
16352TIP3   OH270470   6.586   5.103  15.625  0.3766 -0.0163 -0.4613
16352TIP3    H170471   6.638   5.112  15.705  1.2988 -0.3580 -1.0000
16352TIP3    H270472   6.635   5.152  15.559  0.8153 -1.5702 -1.3346
16353TIP3   OH270473   0.825   6.333   1.243  0.9262 -0.0371 -0.1528
16353TIP3    H170474   0.811   6.421   1.209 -0.6889  0.0860  0.7723
16353TIP3    H270475   0.824   6.277   1.165  0.3169  0.5755 -0.5929
16354TIP3   OH270476   6.106   0.727  13.697  0.0768 -0.0199  0.6290
16354TIP3    H170477   6.136   0.815  13.719  1.9781 -0.4047 -0.3001
16354TIP3    H270478   6.134   0.713  13.607 -0.5881 -1.4241  0.6103
16355TIP3   OH270479   3.523   5.104   5.985  0.0148  0.5106  0.2298
16355TIP3    H170480   3.439   5.100   5.937  0.4516  0.6404 -0.5720
16355TIP3    H270481   3.576   5.165   5.933  1.2246 -0.9068 -0.2582
16356TIP3   OH270482   5.291   1.476   5.620 -0.1447  0.5570  0.2145
16356TIP3    H170483   5.248   1.551   5.581  1.6784  1.5902  0.1037
16356TIP3    H270484   5.341   1.512   5.693 -0.1959 -0.7339  0.9148
16357TIP3   OH270485   5.973   6.648  15.803  0.1062  0.3089  0.4249
16357TIP3    H170486   5.984   6.617  15.894 -2.6420  1.4316  1.2372
16357TIP3    H270487   5.963   6.743  15.811 -0.4024  0.4016 -1.0256
16358TIP3   OH270488   6.664   5.351   2.236  0.0105 -0.2197 -0.2982
16358TIP3    H170489   6.590   5.291   2.223 -1.2172  1.0444  0.5144
16358TIP3    H270490   6.730   5.322   2.173 -1.2856 -1.2307 -1.2461
16359TIP3   OH270491   3.960   2.970  11.605 -0.2918  0.2105 -0.1961
16359TIP3    H170492   3.949   2.919  11.525 -0.7608  1.6754 -1.1023
16359TIP3    H270493   3.934   3.059  11.581  0.9974  1.0129  1.1698
16360TIP3   OH270494   5.298   1.374   1.298  0.2658 -0.5988  0.3724
16360TIP3    H170495   5.291   1.283   1.325 -0.2482 -1.1948 -1.5895
16360TIP3    H270496   5.212   1.395   1.261  0.7419  0.2953 -0.2767
16361TIP3   OH270497   6.490   1.278  16.382  0.2278 -0.4397 -0.0805
16361TIP3    H170498   6.582   1.252  16.373  0.4728 -0.2436  1.5838
16361TIP3    H270499   6.469   1.320  16.298  0.8610 -2.7536 -1.4850
16362TIP3   OH270500   1.252   3.990  13.118 -0.1178  0.2648 -0.4841
16362TIP3    H170501   1.161   3.983  13.148 -0.5240  0.4129 -1.6264
16362TIP3    H270502   1.280   4.076  13.148 -1.4776  1.6853 -2.9080
16363TIP3   OH270503   4.901   3.097   3.827 -0.0031  0.6663  0.1111
16363TIP3    H170504   4.813   3.128   3.806  0.1754  0.5092 -0.9533
16363TIP3    H270505   4.887   3.028   3.892 -0.7401  0.0878 -0.6360
16364TIP3   OH270506   5.903   2.227   1.354  0.5603  0.3914  0.7124
16364TIP3    H170507   5.905   2.135   1.325 -0.0495  0.4825  0.3787
16364TIP3    H270508   5.913   2.222   1.449  1.1823  0.0137  0.6368
16365TIP3   OH270509   3.259   4.931   6.095 -0.6910 -0.1733 -0.6538
16365TIP3    H170510   3.291   5.008   6.049  1.4230 -0.3596  0.3375
16365TIP3    H270511   3.251   4.959   6.186 -0.2201 -1.0100 -0.3397
16366TIP3   OH270512   6.072   4.139  16.715  0.5922 -0.3041  0.5739
16366TIP3    H170513   6.105   4.077  16.780 -1.8916 -0.6782  1.5493
16366TIP3    H270514   6.047   4.085  16.640  0.8915 -0.1701  0.3733
16367TIP3   OH270515   5.862   1.917  14.454  0.3273 -0.0688 -0.5716
16367TIP3    H170516   5.885   1.995  14.505 -0.0374 -0.2889 -0.0504
16367TIP3    H270517   5.841   1.951  14.367  1.0720  0.3040 -0.6157
16368TIP3   OH270518   1.058   3.503  16.613  0.2020  0.5575  0.4867
16368TIP3    H170519   1.100   3.417  16.607 -0.2428  0.4138 -1.3386
16368TIP3    H270520   1.131   3.565  16.618  0.5324  0.1136  1.4451
16369TIP3   OH270521   2.051   5.859  16.002  0.1197  0.0523  0.4211
16369TIP3    H170522   2.050   5.785  15.943  1.1333  1.7479 -1.8681
16369TIP3    H270523   2.024   5.934  15.949  0.9287  1.6504  2.1128
16370TIP3   OH270524   3.929   5.815  12.999 -0.2155 -0.0254 -0.2718
16370TIP3    H170525   3.842   5.833  12.963 -0.1166  0.5148 -0.2603
16370TIP3    H270526   3.961   5.740  12.948 -0.5992 -0.0891 -0.4230
16371TIP3   OH270527   4.158   3.744  13.999  0.7095 -0.2928  1.0866
16371TIP3    H170528   4.144   3.814  14.063  0.3135 -0.2224  0.9273
16371TIP3    H270529   4.078   3.691  14.004 -0.4316  1.0652 -1.0458
16372TIP3   OH270530   6.011   5.299  14.348 -0.0497 -0.0991 -0.1101
16372TIP3    H170531   6.043   5.388  14.340  1.2325 -0.4947  0.4566
16372TIP3    H270532   5.972   5.279  14.262 -1.2736  1.3264  0.0728
16373TIP3   OH270533   6.532   4.694  11.257  0.0817  0.0829  0.3369
16373TIP3    H170534   6.579   4.763  11.304  2.0840  0.7857 -2.3847
16373TIP3    H270535   6.599   4.650  11.205 -1.3953 -2.9784  0.7987
16374TIP3   OH270536   0.719   1.012   4.169 -0.2334  0.8630  0.1288
16374TIP3    H170537   0.796   1.015   4.112 -0.6353 -1.3949 -0.6358
16374TIP3    H270538   0.754   0.979   4.253 -0.1689  1.0421  0.1728
16375TIP3   OH270539   2.387   0.510  15.917 -0.7742 -0.1319  0.1837
16375TIP3    H170540   2.392   0.605  15.907 -1.9618 -0.0229  0.4248
16375TIP3    H270541   2.378   0.496  16.011 -0.0028 -0.5309  0.2090
16376TIP3   OH270542   6.044   3.356  11.260  0.3645  0.4116  0.1290
16376TIP3    H170543   6.034   3.304  11.180 -1.0995  1.1353 -0.1842
16376TIP3    H270544   6.008   3.300  11.330 -1.7832  1.1809 -0.2978
16377TIP3   OH270545   0.254   0.882   1.009 -0.5255 -0.6696 -0.6093
16377TIP3    H170546   0.348   0.893   0.991 -0.0943  1.4162  2.1404
16377TIP3    H270547   0.210   0.931   0.940  0.4167 -1.1793 -1.6085
16378TIP3   OH270548   2.027   2.434   4.807  0.5920 -0.3124  0.4917
16378TIP3    H170549   1.977   2.514   4.821  1.3359  0.4960 -1.2080
16378TIP3    H270550   2.118   2.464   4.797  1.1285 -1.5361  1.3835
16379TIP3   OH270551   3.309   1.393  14.582  0.3074  0.0296 -0.7364
16379TIP3    H170552   3.303   1.433  14.495  1.7435 -0.1382 -0.9422
16379TIP3    H270553   3.403   1.382  14.596  0.0344 -1.0916  0.3242
16380TIP3   OH270554   2.863   3.215  15.900  0.3431 -0.3233 -0.3671
16380TIP3    H170555   2.918   3.291  15.882  4.5832 -2.9246  0.1914
16380TIP3    H270556   2.831   3.187  15.814  0.2564  0.9658 -0.7764
16381TIP3   OH270557   2.089   3.475  12.871 -0.2183 -0.3712 -0.2963
16381TIP3    H170558   2.076   3.384  12.897 -2.4065 -1.4994 -4.4257
16381TIP3    H270559   2.003   3.515  12.884 -0.1946  0.1296 -1.5136
16382TIP3   OH270560   4.973   0.880  11.453  0.1593 -0.3408 -0.7919
16382TIP3    H170561   5.026   0.958  11.472  0.3493 -0.8064  0.7082
16382TIP3    H270562   4.970   0.876  11.357  0.2115  1.4537 -0.9081
16383TIP3   OH270563   1.843   3.050  14.646 -0.1402 -0.5608  0.1210
16383TIP3    H170564   1.755   3.024  14.672 -1.0821  0.7984 -1.5590
16383TIP3    H270565   1.872   2.982  14.585 -0.1381 -0.8258  0.4134
16384TIP3   OH270566   2.175   5.940  15.506 -0.0152  0.1304 -0.3609
16384TIP3    H170567   2.114   5.874  15.473 -1.0626  0.5741  0.5875
16384TIP3    H270568   2.118   6.012  15.534  0.8720  0.2910  1.1664
16385TIP3   OH270569   3.932   1.747   5.214  0.3055  0.3397 -0.0625
16385TIP3    H170570   3.867   1.784   5.274  0.3379  1.1811 -0.5144
16385TIP3    H270571   4.016   1.778   5.247  0.3883  0.1271 -0.0741
16386TIP3   OH270572   3.243   3.938  11.527  0.0153 -0.8751  0.1390
16386TIP3    H170573   3.166   3.992  11.547 -0.0224 -1.1154  0.6546
16386TIP3    H270574   3.215   3.848  11.543  0.8411 -0.8611  1.8349
16387TIP3   OH270575   0.158   0.850  12.643  0.2415  0.4555 -0.5131
16387TIP3    H170576   0.178   0.792  12.569 -0.9586 -0.4319 -0.1848
16387TIP3    H270577   0.078   0.895  12.617  0.4168  0.9601 -0.1968
16388TIP3   OH270578   4.879   4.538   2.752 -0.4817 -0.3061 -0.1308
16388TIP3    H170579   4.810   4.556   2.689 -2.0930 -0.3291  1.5463
16388TIP3    H270580   4.949   4.499   2.700 -2.3350 -1.7910 -1.6699
16389TIP3   OH270581   0.596   1.076  13.886  0.1457 -0.0296 -0.0852
16389TIP3    H170582   0.554   1.107  13.966 -1.6447  1.1417 -1.4208
16389TIP3    H270583   0.643   0.997  13.913  0.2582  0.7626  2.2652
16390TIP3   OH270584   0.778   1.759  11.501 -0.0119 -0.1428 -0.0365
16390TIP3    H170585   0.726   1.832  11.534  0.3638 -0.1331  0.5504
16390TIP3    H270586   0.866   1.795  11.489  0.5907 -0.8830  1.8281
16391TIP3   OH270587   0.589   4.324   4.020  0.1826 -0.5963 -0.4277
16391TIP3    H170588   0.623   4.311   4.108  0.1562 -2.3904 -0.6495
16391TIP3    H270589   0.599   4.239   3.977 -4.1033 -1.2020 -0.6666
16392TIP3   OH270590   2.185   4.638  13.991 -0.7096  0.1389 -0.2354
16392TIP3    H170591   2.271   4.601  14.008 -1.3416 -1.0189  0.6460
16392TIP3    H270592   2.125   4.585  14.044 -1.9646  0.9122 -0.8153
16393TIP3   OH270593   1.657   6.430  16.616  0.3420  0.0825 -0.3533
16393TIP3    H170594   1.741   6.475  16.626  0.2027  0.2109  0.2865
16393TIP3    H270595   1.595   6.485  16.662 -0.3160  0.5550 -1.7377
16394TIP3   OH270596   0.575   0.339   3.561  0.1470 -1.0342 -0.5340
16394TIP3    H170597   0.635   0.325   3.634  0.6859 -0.1053 -0.7961
16394TIP3    H270598   0.523   0.415   3.586  0.6720 -0.4032 -1.3328
16395TIP3   OH270599   3.114   1.006   1.343  0.2227 -0.5970  0.1643
16395TIP3    H170600   3.070   1.089   1.325  2.3664  0.3634 -1.0539
16395TIP3    H270601   3.095   0.988   1.435  0.3646  1.6729  0.6969
16396TIP3   OH270602   5.980   0.589   5.345 -0.3260 -0.2006  0.4015
16396TIP3    H170603   6.042   0.570   5.274 -0.6706  1.2994 -0.3327
16396TIP3    H270604   5.972   0.506   5.392  0.8672 -0.8989 -0.5635
16397TIP3   OH270605   5.500   3.248   4.957 -0.2894 -0.5499  0.1379
16397TIP3    H170606   5.567   3.185   4.929 -2.0055 -1.8417 -1.3803
16397TIP3    H270607   5.510   3.322   4.897 -1.5144 -1.6695 -1.5305
16398TIP3   OH270608   6.193   2.105  14.462 -0.3396 -0.6779  0.0765
16398TIP3    H170609   6.263   2.164  14.437  0.9616 -1.8017  0.9291
16398TIP3    H270610   6.166   2.062  14.381 -0.3079  0.0241 -0.3093
16399TIP3   OH270611   2.168   2.210  15.794  0.7011 -0.2186 -0.3723
16399TIP3    H170612   2.261   2.188  15.796  0.8999  0.6199 -0.2551
16399TIP3    H270613   2.165   2.305  15.805 -0.1945 -0.2953  0.1923
16400TIP3   OH270614   6.485   0.444   5.456 -0.1914  0.0559  0.3161
16400TIP3    H170615   6.563   0.406   5.497 -0.1909  1.6732  1.9674
16400TIP3    H270616   6.515   0.475   5.371  1.0806  0.8216  1.0004
16401TIP3   OH270617   4.708   3.312   0.618 -0.5088 -0.0752  0.6032
16401TIP3    H170618   4.695   3.299   0.524  1.4521 -0.6022  0.3694
16401TIP3    H270619   4.683   3.228   0.657  1.0507 -0.7334  0.2637
16402TIP3   OH270620   5.275   6.118   3.493  0.1820  0.7876  0.4321
16402TIP3    H170621   5.265   6.196   3.438 -1.2479 -0.1155 -0.6855
16402TIP3    H270622   5.368   6.100   3.492  0.2036  0.6674 -2.0027
16403TIP3   OH270623   1.965   5.548  13.728  0.0081 -0.2012  0.5658
16403TIP3    H170624   2.055   5.574  13.709  0.1344  0.4186  1.9044
16403TIP3    H270625   1.911   5.611  13.680  0.2214 -1.5100 -1.5324
16404TIP3   OH270626   2.095   1.124   0.075 -0.5479 -0.0226 -1.2150
16404TIP3    H170627   2.041   1.179   0.131  0.1234  0.0372 -0.6118
16404TIP3    H270628   2.085   1.036   0.112 -0.9184 -0.1653 -1.6397
16405TIP3   OH270629   1.308   3.849   5.394  0.0053  0.0309  0.1885
16405TIP3    H170630   1.288   3.870   5.303  1.6321 -1.0848 -0.4771
16405TIP3    H270631   1.251   3.774   5.414  0.8112 -0.8007 -0.5019
16406TIP3   OH270632   1.889   6.162   3.141 -0.1247  0.4885  0.2913
16406TIP3    H170633   1.820   6.213   3.182  0.1188  1.0771 -0.0160
16406TIP3    H270634   1.883   6.076   3.183 -0.6547  0.7100  0.6887
16407TIP3   OH270635   0.417   3.042  15.010 -0.0047 -0.1355 -0.4973
16407TIP3    H170636   0.322   3.031  15.001  0.2465 -3.1434 -0.2648
16407TIP3    H270637   0.453   3.004  14.930  1.0277  2.2109 -1.2268
16408TIP3   OH270638   4.890   4.016   4.052 -0.3953  0.1663 -0.4786
16408TIP3    H170639   4.801   4.019   4.086 -0.7447  0.5596 -1.3963
16408TIP3    H270640   4.897   3.931   4.008 -0.1315 -0.0997  0.0713
16409TIP3   OH270641   1.780   0.015   4.731  0.1965  0.1029 -0.6328
16409TIP3    H170642   1.763  -0.016   4.820 -0.7899 -0.1756 -0.9093
16409TIP3    H270643   1.874   0.031   4.730  0.2380  0.0529  0.4418
16410TIP3   OH270644   1.144   1.838  15.728 -0.3828  0.0683 -0.4073
16410TIP3    H170645   1.203   1.861  15.800 -1.0646  0.8881 -0.0902
16410TIP3    H270646   1.182   1.759  15.690  0.3405 -0.0128  0.4483
16411TIP3   OH270647   6.230   6.453  15.118  0.4699 -0.1040 -0.6420
16411TIP3    H170648   6.302   6.394  15.139  1.7683  1.0998 -1.5325
16411TIP3    H270649   6.192   6.476  15.203  0.2095 -1.8242 -0.2553
16412TIP3   OH270650   6.268   1.738   0.733 -0.3939 -0.3113  0.6265
16412TIP3    H170651   6.244   1.646   0.742  1.4750 -1.1691 -2.0336
16412TIP3    H270652   6.357   1.744   0.767  0.5850 -0.1829 -1.7800
16413TIP3   OH270653   3.388   2.484  12.075  0.1329 -0.4691  0.3927
16413TIP3    H170654   3.391   2.488  12.170  2.4214  0.4553  0.3388
16413TIP3    H270655   3.400   2.392  12.053  1.5329 -0.4519  1.0028
16414TIP3   OH270656   6.536   2.452   3.726  0.2598  0.6989  0.3014
16414TIP3    H170657   6.488   2.531   3.753  0.5693  1.2393 -0.6731
16414TIP3    H270658   6.628   2.480   3.726  0.5308 -0.1396  1.5237
16415TIP3   OH270659   5.739   2.377   0.792 -0.0689 -0.3300  0.1118
16415TIP3    H170660   5.788   2.302   0.825  1.9804  0.8466 -0.0906
16415TIP3    H270661   5.766   2.450   0.848 -2.6240  0.1729  0.8432
16416TIP3   OH270662   5.598   4.742   2.393 -0.1742 -0.0559 -0.0259
16416TIP3    H170663   5.567   4.674   2.453 -0.8752  1.3886  1.2962
16416TIP3    H270664   5.550   4.726   2.312  0.1873 -1.5404  0.0235
16417TIP3   OH270665   5.170   6.179   4.598  0.7297  0.7236  0.1762
16417TIP3    H170666   5.232   6.158   4.528  0.1334 -2.5500  0.4931
16417TIP3    H270667   5.093   6.127   4.578  0.2692  0.2235  2.8518
16418TIP3   OH270668   5.814   2.439  14.718  0.4009 -0.2059 -0.4258
16418TIP3    H170669   5.834   2.467  14.807  1.2356 -2.0110 -0.0049
16418TIP3    H270670   5.893   2.457  14.668 -0.2337  1.2652 -0.9589
16419TIP3   OH270671   5.965   6.789   1.716 -0.8176 -0.0246 -0.7660
16419TIP3    H170672   6.051   6.804   1.676 -0.8821 -0.0039 -0.8974
16419TIP3    H270673   5.903   6.812   1.647 -0.9447  0.8020 -0.3834
16420TIP3   OH270674   1.808   1.499   3.624  0.4237 -0.2802  0.3655
16420TIP3    H170675   1.880   1.533   3.677  1.8470  1.3233 -2.3678
16420TIP3    H270676   1.851   1.458   3.549 -1.4728 -3.2710  0.7608
16421TIP3   OH270677   6.564   1.177   3.394  0.2050  0.6997  0.2262
16421TIP3    H170678   6.658   1.162   3.386  0.0571 -0.1856  0.0372
16421TIP3    H270679   6.544   1.155   3.485 -0.0267 -0.4372 -0.0742
16422TIP3   OH270680   2.786   0.875  12.370  0.4130 -0.1162 -0.4568
16422TIP3    H170681   2.837   0.943  12.414 -1.0336  0.7092  0.0315
16422TIP3    H270682   2.825   0.793  12.399  0.8165  0.4630  0.7193
16423TIP3   OH270683   4.368   5.462  12.597  0.2113  0.1080 -0.4398
16423TIP3    H170684   4.378   5.396  12.528  1.4445  0.6242 -0.7934
16423TIP3    H270685   4.452   5.508  12.598  0.1745  0.2122  1.3147
16424TIP3   OH270686   1.974   0.453  14.141 -0.1232  0.5190  0.6877
16424TIP3    H170687   1.880   0.462  14.126  0.0146  0.8174 -0.0350
16424TIP3    H270688   2.008   0.542  14.135  0.4371  0.2346 -0.7875
16425TIP3   OH270689   0.490   4.855   5.594 -0.6546  0.6307  0.1781
16425TIP3    H170690   0.420   4.913   5.624 -2.3956 -0.8026 -0.8568
16425TIP3    H270691   0.473   4.845   5.500  1.2962  0.6592 -0.2081
16426TIP3   OH270692   4.674   3.321   0.300 -0.3221 -0.3815 -0.2118
16426TIP3    H170693   4.589   3.348   0.265 -0.7810 -1.3748  0.1000
16426TIP3    H270694   4.737   3.346   0.233 -0.7731  0.9794 -0.1574
16427TIP3   OH270695   3.116   1.718   4.442  0.1992 -0.2391 -0.2794
16427TIP3    H170696   3.182   1.698   4.508  0.2688 -0.8204 -0.5163
16427TIP3    H270697   3.148   1.797   4.398 -0.5433  0.9895  1.2936
16428TIP3   OH270698   3.802   1.624  12.717  0.0835  0.3367 -0.3585
16428TIP3    H170699   3.743   1.581  12.654  1.5824 -0.6017 -1.1670
16428TIP3    H270700   3.843   1.695  12.667 -0.1824  0.8570  0.1466
16429TIP3   OH270701   5.276   2.364   3.899 -0.1248 -0.6326  0.1606
16429TIP3    H170702   5.225   2.292   3.861 -0.3139 -1.2545  1.5223
16429TIP3    H270703   5.363   2.326   3.912 -0.1116 -0.4850  0.4965
16430TIP3   OH270704   3.005   1.067  13.899 -0.0343 -0.2698  0.4187
16430TIP3    H170705   2.983   1.057  13.992  0.0456 -0.7860  0.3884
16430TIP3    H270706   2.936   1.123  13.864 -2.4015 -3.1796 -0.0500
16431TIP3   OH270707   1.732   5.529   4.812 -0.0689 -0.6202 -0.2862
16431TIP3    H170708   1.652   5.579   4.799  0.9468  1.2617  0.2283
16431TIP3    H270709   1.740   5.521   4.907  0.3145 -0.8397 -0.3362
16432TIP3   OH270710   6.283   0.626   5.562  0.7863  0.5361  0.3826
16432TIP3    H170711   6.251   0.691   5.499 -1.8662  0.1703  1.2079
16432TIP3    H270712   6.327   0.560   5.508 -2.1307 -0.2105 -1.3116
16433TIP3   OH270713   4.338   1.889  10.774 -0.0647 -0.0444 -0.2870
16433TIP3    H170714   4.290   1.822  10.725 -0.4250  0.1738 -0.2321
16433TIP3    H270715   4.425   1.851  10.786  0.5289  0.4828 -2.3829
16434TIP3   OH270716   6.308   4.260  11.756 -0.0839 -0.3263  0.0057
16434TIP3    H170717   6.311   4.196  11.827  0.5963 -0.3458 -0.0257
16434TIP3    H270718   6.401   4.279  11.738 -0.1767 -1.1472 -1.6049
16435TIP3   OH270719   1.145   2.565   5.294  0.0631 -0.3356  0.3502
16435TIP3    H170720   1.152   2.659   5.308 -0.5324 -0.3057  0.4698
16435TIP3    H270721   1.197   2.549   5.215 -0.8162  0.2878 -0.3754
16436TIP3   OH270722   2.820   2.504  12.381 -0.1539 -0.7006  0.5364
16436TIP3    H170723   2.824   2.410  12.362 -0.7784 -0.3195 -1.6188
16436TIP3    H270724   2.736   2.533  12.346  0.4173  0.8360  0.3500
16437TIP3   OH270725   3.809   4.680   3.264 -0.1283 -0.4259  0.2410
16437TIP3    H170726   3.734   4.738   3.274  0.8522  0.6987  1.5598
16437TIP3    H270727   3.885   4.734   3.287  1.0609 -1.6153 -0.7115
16438TIP3   OH270728   0.286   3.224   2.490  0.0813 -0.3016  0.3844
16438TIP3    H170729   0.272   3.179   2.407  1.3281 -0.7010  0.3737
16438TIP3    H270730   0.213   3.197   2.545  0.0103 -1.1573 -0.1225
16439TIP3   OH270731   6.297   0.391   3.243  0.2521 -0.1105 -0.4822
16439TIP3    H170732   6.385   0.361   3.218  0.8933  0.2813  1.1957
16439TIP3    H270733   6.307   0.484   3.259 -0.8778  0.2811 -1.9148
16440TIP3   OH270734   2.924   6.358   4.904 -0.0996 -0.4061 -0.1107
16440TIP3    H170735   2.887   6.274   4.877 -0.6934 -0.9707  2.2011
16440TIP3    H270736   2.972   6.389   4.828 -0.1551 -2.6792 -1.1485
16441TIP3   OH270737   3.902   1.701  11.807 -0.6056  0.4957  0.3414
16441TIP3    H170738   3.844   1.699  11.731 -0.2865  2.6321 -0.0061
16441TIP3    H270739   3.877   1.623  11.857 -1.0725 -0.7647 -1.7314
16442TIP3   OH270740   4.489   6.496  15.298  0.1957 -0.2465 -0.5610
16442TIP3    H170741   4.414   6.460  15.346 -0.2120  0.2075 -0.8465
16442TIP3    H270742   4.484   6.590  15.313  1.1995 -0.2776  0.1014
16443TIP3   OH270743   3.752   5.045  11.589  0.1468  0.3738 -0.9193
16443TIP3    H170744   3.665   5.067  11.555 -0.1308 -1.0168 -1.1690
16443TIP3    H270745   3.809   5.113  11.553 -0.9148  1.6762 -0.2370
16444TIP3   OH270746   6.212   0.118  15.656  0.4801  0.0773  0.4201
16444TIP3    H170747   6.127   0.075  15.654  1.0283 -0.9867 -1.0240
16444TIP3    H270748   6.194   0.209  15.632 -0.0481 -0.5571 -1.7798
16445TIP3   OH270749   1.539   0.435  16.177 -0.0735 -0.8277 -0.1127
16445TIP3    H170750   1.483   0.467  16.106 -0.3062 -2.6778 -0.8270
16445TIP3    H270751   1.546   0.340  16.161  0.1143 -1.2522  2.1782
16446TIP3   OH270752   5.985   2.294   2.591  0.2088 -0.2634 -0.3357
16446TIP3    H170753   5.910   2.253   2.549 -0.4664 -0.2219  0.7841
16446TIP3    H270754   6.013   2.361   2.530 -1.7319  0.8674 -0.0601
16447TIP3   OH270755   3.998   6.201  16.370 -0.0546  0.1393  0.1311
16447TIP3    H170756   4.043   6.226  16.289 -0.5029  1.1336  0.1785
16447TIP3    H270757   4.040   6.255  16.437 -0.7687  0.4830  0.3041
16448TIP3   OH270758   3.544   0.825  13.537 -0.3827  0.0021  0.8587
16448TIP3    H170759   3.522   0.839  13.445  0.6486  2.3045  0.9045
16448TIP3    H270760   3.475   0.767  13.569  0.0328 -2.1126 -1.6799
16449TIP3   OH270761   5.109   6.548   3.063 -0.2821  0.1365 -1.0393
16449TIP3    H170762   5.022   6.507   3.059  0.1419 -0.8983 -0.1098
16449TIP3    H270763   5.102   6.624   3.005 -1.8832  0.2130 -0.8030
16450TIP3   OH270764   4.601   2.009   4.128 -0.2829  0.0175 -0.3130
16450TIP3    H170765   4.608   1.982   4.220  1.2938 -2.5554 -1.0744
16450TIP3    H270766   4.572   2.100   4.132 -1.8201 -0.4819  2.6681
16451TIP3   OH270767   6.397   6.321   5.235  0.3256 -0.1923  0.2504
16451TIP3    H170768   6.365   6.404   5.201 -0.4110 -0.2788  0.7028
16451TIP3    H270769   6.492   6.332   5.241  0.1371  1.0593  1.4493
16452TIP3   OH270770   6.348   6.360   5.648 -0.4875  0.7993  0.0142
16452TIP3    H170771   6.428   6.328   5.688 -0.5552 -1.0100 -1.1903
16452TIP3    H270772   6.344   6.453   5.672  1.1188  0.5452  1.4056
16453TIP3   OH270773   2.453   1.252  15.165  0.3488  0.4962 -0.0715
16453TIP3    H170774   2.539   1.284  15.194 -1.1185  3.0088  1.8746
16453TIP3    H270775   2.427   1.311  15.095  0.2533 -0.3783 -0.7918
16454TIP3   OH270776   0.218   3.057  11.647 -0.4249  0.2679  0.0509
16454TIP3    H170777   0.142   3.095  11.692  0.0252  2.0633 -0.6127
16454TIP3    H270778   0.190   3.050  11.555  0.1122  0.6544 -0.1413
16455TIP3   OH270779   5.917   0.914  13.936  0.0517 -0.0617 -0.1880
16455TIP3    H170780   5.866   0.833  13.940 -0.3910  0.2170 -0.1603
16455TIP3    H270781   5.887   0.958  13.856 -0.2322  0.4221  0.1824
16456TIP3   OH270782   1.724   6.065  11.834 -0.1336 -0.4847 -0.3499
16456TIP3    H170783   1.758   6.020  11.756  0.5582 -1.1758  0.3328
16456TIP3    H270784   1.733   6.158  11.814  0.3076 -0.6571 -0.9816
16457TIP3   OH270785   6.453   4.288   4.266  0.5165 -0.4246  0.1475
16457TIP3    H170786   6.496   4.280   4.351  2.0778  2.3175 -0.2603
16457TIP3    H270787   6.406   4.372   4.270  1.6212  0.3845 -2.0567
16458TIP3   OH270788   4.518   4.975  14.899  0.3329  0.1370  0.4416
16458TIP3    H170789   4.595   4.921  14.881 -0.1741 -0.1855 -0.8759
16458TIP3    H270790   4.487   4.944  14.984  1.4447  0.0301  0.8215
16459TIP3   OH270791   6.727   4.099  11.414  0.5575  0.0849 -0.2718
16459TIP3    H170792   6.748   4.044  11.490  1.0193 -0.8121 -1.0218
16459TIP3    H270793   6.656   4.052  11.369 -0.1545  0.9383 -0.0558
16460TIP3   OH270794   3.094   4.651   2.038  0.2589  0.5390 -0.4066
16460TIP3    H170795   3.186   4.641   2.015 -0.0096 -2.0800 -0.6455
16460TIP3    H270796   3.048   4.658   1.954  0.0115 -1.0728 -0.4338
16461TIP3   OH270797   1.323   5.634   0.857  0.0573 -0.6560  0.0250
16461TIP3    H170798   1.383   5.663   0.788  0.5042  0.7662  0.9545
16461TIP3    H270799   1.248   5.599   0.810 -1.2130  3.3478 -1.3922
16462TIP3   OH270800   5.697   0.588  14.387 -0.2088 -1.1093 -0.1251
16462TIP3    H170801   5.612   0.578  14.345  0.4608 -1.6632 -1.4022
16462TIP3    H270802   5.758   0.540  14.330  0.9439 -0.8000  0.8041
16463TIP3   OH270803   5.382   0.333   1.579  0.6274  0.1845  0.3411
16463TIP3    H170804   5.359   0.277   1.654  1.9549  0.8042  1.2515
16463TIP3    H270805   5.416   0.413   1.619  1.8232  0.3491 -0.9303
16464TIP3   OH270806   2.298   5.479  15.066  0.0646 -1.0473  0.2105
16464TIP3    H170807   2.306   5.384  15.060  2.2321 -0.8399 -1.3557
16464TIP3    H270808   2.326   5.511  14.981 -2.1843  0.9731  0.1275
16465TIP3   OH270809   0.800   1.513   1.941  0.2803 -0.0330  0.1014
16465TIP3    H170810   0.883   1.539   1.900  0.8803  1.0257  1.8584
16465TIP3    H270811   0.827   1.466   2.020 -0.7767  1.0545  1.1389
16466TIP3   OH270812   4.578   0.874  13.602  0.3216  0.0176 -0.8542
16466TIP3    H170813   4.541   0.908  13.683  2.2127  0.4920 -0.1515
16466TIP3    H270814   4.506   0.825  13.562 -0.6292 -0.3126  1.1421
16467TIP3   OH270815   1.405   5.263   5.222 -0.1711 -0.1255  0.4613
16467TIP3    H170816   1.484   5.281   5.274  1.3204  0.4035 -1.8577
16467TIP3    H270817   1.388   5.345   5.175 -1.1926 -0.7424 -0.2784
16468TIP3   OH270818   4.772   4.172  16.805 -0.0185  0.2248 -0.6771
16468TIP3    H170819   4.716   4.173  16.727  0.2151 -1.2620 -0.9065
16468TIP3    H270820   4.814   4.086  16.802  0.7628  0.5453  0.5596
16469TIP3   OH270821   6.185   3.357   3.189  0.3260 -0.2578 -0.1148
16469TIP3    H170822   6.189   3.315   3.274  0.5438 -0.7667 -0.3723
16469TIP3    H270823   6.274   3.388   3.172  0.3183 -0.2916 -0.2229
16470TIP3   OH270824   1.241   2.604   1.001 -0.2928  0.7024 -0.4039
16470TIP3    H170825   1.240   2.511   0.981 -0.7169  0.4468  0.7430
16470TIP3    H270826   1.299   2.642   0.935  1.5591 -0.6725  0.3216
16471TIP3   OH270827   1.979   5.609  11.900  0.4779  0.2968 -0.1753
16471TIP3    H170828   1.943   5.608  11.811  1.0978  0.4216 -0.4269
16471TIP3    H270829   2.008   5.699  11.914  2.2791 -0.1724 -0.6208
16472TIP3   OH270830   0.371   3.936  11.948 -0.5701  0.0828 -0.2896
16472TIP3    H170831   0.342   3.845  11.953  0.9539 -0.3907  0.4276
16472TIP3    H270832   0.319   3.981  12.015 -1.0570 -0.3386 -0.3778
16473TIP3   OH270833   3.426   4.930  12.658  0.4403 -0.6070  0.2402
16473TIP3    H170834   3.477   4.854  12.684 -0.8091 -0.8793  2.0432
16473TIP3    H270835   3.441   4.995  12.727  1.1888  0.6914 -1.0668
16474TIP3   OH270836   3.582   4.754  16.249 -0.1265  0.0566  0.2533
16474TIP3    H170837   3.602   4.721  16.337  0.7061 -1.6287 -0.5233
16474TIP3    H270838   3.534   4.836  16.265 -0.0424 -0.2218  2.2648
16475TIP3   OH270839   1.515   0.539   5.291 -0.6358 -0.6645  0.8049
16475TIP3    H170840   1.534   0.622   5.336 -0.5863  0.8607 -1.8390
16475TIP3    H270841   1.601   0.507   5.262 -0.9350  0.7798 -2.0306
16476TIP3   OH270842   0.483   6.389  12.855 -0.2575  0.4505 -0.0236
16476TIP3    H170843   0.531   6.329  12.913 -1.6916  1.2227  2.0747
16476TIP3    H270844   0.550   6.423  12.796  1.6762  0.9197  2.2864
16477TIP3   OH270845   4.400   2.808   4.575 -0.0035 -0.4937 -0.1563
16477TIP3    H170846   4.406   2.823   4.480 -2.0370  0.0439 -0.2336
16477TIP3    H270847   4.481   2.762   4.596  1.2886  0.8516 -1.8496
16478TIP3   OH270848   3.781   5.745   4.193  0.3863 -0.5617 -0.3141
16478TIP3    H170849   3.765   5.819   4.252  0.4337 -1.4258  0.8024
16478TIP3    H270850   3.875   5.749   4.175  0.4981 -0.6967  0.2229
16479TIP3   OH270851   6.705   1.706  15.277  0.3262 -0.3738 -0.1491
16479TIP3    H170852   6.741   1.637  15.222  1.4125  0.1356 -0.1037
16479TIP3    H270853   6.662   1.661  15.349 -1.3524 -1.0689 -1.5216
16480TIP3   OH270854   4.745   5.194  13.601  0.4105 -0.0788  0.0266
16480TIP3    H170855   4.840   5.201  13.598  0.3771 -0.1203 -2.3050
16480TIP3    H270856   4.713   5.279  13.573 -0.2118 -0.6018 -0.9167
16481TIP3   OH270857   1.936   5.426  15.845  0.4742 -0.2792  0.4072
16481TIP3    H170858   1.960   5.343  15.804 -0.4295 -0.7712  0.8552
16481TIP3    H270859   1.844   5.416  15.870  0.8444  0.1599  2.1217
16482TIP3   OH270860   4.030   1.842   5.503 -0.5328 -0.1024  0.1007
16482TIP3    H170861   4.117   1.805   5.521 -0.6111 -0.9331 -1.0558
16482TIP3    H270862   4.030   1.927   5.546  0.3618 -0.6619  1.2534
16483TIP3   OH270863   5.882   2.520   2.359  0.1361 -0.2520  0.5214
16483TIP3    H170864   5.946   2.590   2.348  2.1322 -1.5553  2.6773
16483TIP3    H270865   5.797   2.562   2.349  1.2399  1.4794 -3.0074
16484TIP3   OH270866   6.150   3.854  15.127 -0.4839 -0.4434  0.1238
16484TIP3    H170867   6.165   3.760  15.118  0.1295 -0.5175  1.6775
16484TIP3    H270868   6.095   3.876  15.052 -1.2469 -2.1818  0.1067
16485TIP3   OH270869   6.533   5.374   0.693  0.0659  0.5164  0.0857
16485TIP3    H170870   6.550   5.283   0.671 -0.0376  0.1419  1.4447
16485TIP3    H270871   6.525   5.374   0.788 -0.2714  1.8928  0.0748
16486TIP3   OH270872   2.189   5.356   2.358 -0.6687  0.2112  0.7660
16486TIP3    H170873   2.115   5.295   2.364 -0.1617 -0.4603  0.3498
16486TIP3    H270874   2.242   5.322   2.286 -0.7151  1.5460  0.0769
16487TIP3   OH270875   6.758   2.578   5.673  0.3715 -0.1536  0.3741
16487TIP3    H170876   6.807   2.646   5.719  2.1124 -1.4575  0.5635
16487TIP3    H270877   6.713   2.624   5.602 -1.5402  1.7441  2.6395
16488TIP3   OH270878   4.529   2.480  16.822 -0.3187  0.4660  0.0639
16488TIP3    H170879   4.528   2.574  16.841 -1.2145  0.6926 -1.0244
16488TIP3    H270880   4.620   2.462  16.798 -0.2835  1.2067 -0.4065
16489TIP3   OH270881   4.787   3.543   0.430  0.1731 -0.4606 -0.1469
16489TIP3    H170882   4.711   3.492   0.402 -0.4185 -0.7900  1.8807
16489TIP3    H270883   4.750   3.617   0.479  1.1342 -0.7114  1.0075
16490TIP3   OH270884   3.808   2.513   5.117  0.1925  0.5003 -0.3572
16490TIP3    H170885   3.767   2.552   5.040 -1.3871  1.5180  0.9465
16490TIP3    H270886   3.851   2.434   5.084 -1.9972 -0.0906 -1.9839
16491TIP3   OH270887   6.301   4.524  14.539 -0.6240  0.3804 -0.3458
16491TIP3    H170888   6.388   4.486  14.526 -0.5712  0.3410  0.0861
16491TIP3    H270889   6.283   4.571  14.458 -0.9953 -1.1383 -1.1764
16492TIP3   OH270890   2.452   5.635  16.741 -0.0682 -0.4544  0.1928
16492TIP3    H170891   2.544   5.609  16.734 -0.3621 -1.4768 -0.0468
16492TIP3    H270892   2.455   5.729  16.756  0.9709 -0.0908 -1.9674
16493TIP3   OH270893   5.395   4.421   5.019 -0.5954 -0.6070 -0.4775
16493TIP3    H170894   5.410   4.515   5.012 -2.2958 -0.2965 -0.3813
16493TIP3    H270895   5.358   4.410   5.107 -1.5261 -1.1827 -0.9294
16494TIP3   OH270896   6.683   2.828   4.879  0.5252 -0.1020 -0.2529
16494TIP3    H170897   6.685   2.910   4.928  0.5130 -0.2464 -0.0080
16494TIP3    H270898   6.727   2.765   4.937  1.5657 -0.0110 -0.9185
16495TIP3   OH270899   0.437   2.021  12.303 -0.2943  0.1436 -0.4672
16495TIP3    H170900   0.370   2.013  12.235 -2.6746  0.4646  1.6844
16495TIP3    H270901   0.486   1.938  12.298 -2.2356 -1.0523 -0.7950
16496TIP3   OH270902   5.044   0.243  11.602 -0.2156  0.6796  0.3635
16496TIP3    H170903   4.986   0.202  11.538 -0.1380  0.3768  0.4854
16496TIP3    H270904   5.049   0.180  11.674  0.6449  0.4858  0.1464
16497TIP3   OH270905   2.757   1.987   2.210 -0.3125  0.2703  0.2583
16497TIP3    H170906   2.739   1.896   2.186 -1.3439  0.6398 -0.4268
16497TIP3    H270907   2.754   2.035   2.127 -1.6267  1.2198  0.8301
16498TIP3   OH270908   1.275   0.286   0.301 -0.4474 -0.0183 -0.4598
16498TIP3    H170909   1.292   0.195   0.277 -2.8852 -0.4797 -0.6750
16498TIP3    H270910   1.286   0.287   0.396 -2.0415 -1.0132 -0.2135
16499TIP3   OH270911   0.112   6.476   1.293  0.0702  0.3158 -0.4105
16499TIP3    H170912   0.097   6.512   1.380 -0.8508 -1.6425  0.3214
16499TIP3    H270913   0.202   6.444   1.295 -0.9632 -2.9989  1.2362
16500TIP3   OH270914   3.655   2.259  11.341 -0.1875  0.6004 -0.1137
16500TIP3    H170915   3.686   2.281  11.429 -0.5553  2.5266 -0.4169
16500TIP3    H270916   3.613   2.339  11.311 -0.3095 -0.1240 -1.9444
16501TIP3   OH270917   4.528   1.848   2.812  0.0330 -0.5701 -0.3561
16501TIP3    H170918   4.535   1.892   2.897 -0.8664 -0.2047 -0.4679
16501TIP3    H270919   4.437   1.858   2.786  0.3519 -0.4405 -1.5006
16502TIP3   OH270920   1.000   0.739   0.473 -0.2666  0.6632 -0.4608
16502TIP3    H170921   0.911   0.772   0.478 -1.1530 -1.3357 -1.6153
16502TIP3    H270922   1.019   0.708   0.562 -1.2617 -0.0811 -0.4831
16503TIP3   OH270923   5.075   5.892   3.842 -0.2257 -0.4426 -0.4172
16503TIP3    H170924   5.063   5.960   3.776 -1.4342 -2.8938 -2.9757
16503TIP3    H270925   4.986   5.868   3.868  0.0557 -2.0467 -0.7970
16504TIP3   OH270926   5.603   6.417   3.477 -0.0720 -0.1671  0.3376
16504TIP3    H170927   5.681   6.473   3.477  1.2544 -1.9362 -0.3766
16504TIP3    H270928   5.631   6.337   3.434 -2.2335 -0.9751  0.3211
16505TIP3   OH270929   4.170   1.414  14.515 -0.0886 -0.6340  0.2831
16505TIP3    H170930   4.115   1.458  14.451  0.8518 -2.3395 -1.8317
16505TIP3    H270931   4.217   1.485  14.559 -0.2531  0.6076 -1.4401
16506TIP3   OH270932   3.160   1.074   2.196  0.1077  0.3562  0.2311
16506TIP3    H170933   3.075   1.115   2.214 -0.8415 -1.0031 -0.9282
16506TIP3    H270934   3.208   1.139   2.146 -0.8033  0.6234 -0.3104
16507TIP3   OH270935   2.925   0.884  16.339  0.5533 -0.9212 -0.0105
16507TIP3    H170936   2.863   0.920  16.276  2.3506  1.9201 -0.3497
16507TIP3    H270937   2.973   0.816  16.292 -0.0017 -0.7733 -0.7937
16508TIP3   OH270938   4.430   0.572  14.420  0.0815 -0.7319  0.0196
16508TIP3    H170939   4.401   0.599  14.333  1.8901 -0.7979 -0.6363
16508TIP3    H270940   4.351   0.578  14.474 -0.7527  0.7327 -1.2842
16509TIP3   OH270941   0.896   4.448   6.409 -0.0170 -0.3038 -0.1968
16509TIP3    H170942   0.846   4.529   6.407 -0.7859 -0.7527  0.1910
16509TIP3    H270943   0.845   4.386   6.357  0.6973 -0.4694 -0.7197
16510TIP3   OH270944   0.418   2.904   1.998 -0.3776 -0.3735 -1.0713
16510TIP3    H170945   0.460   2.989   1.987  2.1315 -1.4881 -0.8072
16510TIP3    H270946   0.460   2.866   2.075 -2.9801 -1.0300  0.1427
16511TIP3   OH270947   3.300   1.412   1.262 -0.3389 -0.2411  0.3024
16511TIP3    H170948   3.346   1.417   1.178  0.4203 -1.5046  0.6137
16511TIP3    H270949   3.212   1.381   1.240 -0.2841 -0.1254 -0.0775
16512TIP3   OH270950   3.315   5.832  15.365 -0.6053  0.1181 -0.2056
16512TIP3    H170951   3.322   5.900  15.299  0.1029 -1.3256 -1.6894
16512TIP3    H270952   3.268   5.873  15.437  0.6343  2.4382 -0.6393
16513TIP3   OH270953   5.228   2.014   4.209  0.1669  0.3382 -0.2580
16513TIP3    H170954   5.215   1.928   4.250 -0.5062  1.1557  1.2771
16513TIP3    H270955   5.184   2.006   4.124  2.2367 -1.6351 -1.2858
16514TIP3   OH270956   3.809   1.581  10.708  0.6500 -0.6834 -0.4284
16514TIP3    H170957   3.767   1.495  10.703 -0.6538 -0.0113 -2.1644
16514TIP3    H270958   3.813   1.611  10.617  0.5046  1.3636  0.1905
16515TIP3   OH270959   2.985   2.042   2.584 -0.3872  0.1145 -0.0409
16515TIP3    H170960   2.895   2.047   2.555 -0.1960  0.0729 -0.6487
16515TIP3    H270961   2.989   1.964   2.639 -0.7809  0.2781  0.2251
16516TIP3   OH270962   2.648   3.777  16.186  0.7039 -0.0277 -0.4591
16516TIP3    H170963   2.596   3.785  16.266  0.4779  0.0864 -0.6156
16516TIP3    H270964   2.733   3.744  16.216  0.4626 -0.4548 -0.2328
16517TIP3   OH270965   2.906   2.973   2.328  0.2025  0.0144 -0.5458
16517TIP3    H170966   2.886   2.939   2.415 -0.3598  2.4161  0.3390
16517TIP3    H270967   2.956   2.903   2.286 -0.6791 -1.7524  1.1878
16518TIP3   OH270968   2.887   6.730  15.248 -0.7542  0.8081  0.2637
16518TIP3    H170969   2.949   6.793  15.211 -0.4727  1.8460  2.3343
16518TIP3    H270970   2.843   6.778  15.318 -2.6143 -0.4692  0.0399
16519TIP3   OH270971   3.428   1.017  11.631  0.2461  1.0121 -0.5452
16519TIP3    H170972   3.453   0.925  11.620 -1.8622  0.1109  1.4599
16519TIP3    H270973   3.395   1.043  11.545  0.0830 -0.3586 -0.9268
16520TIP3   OH270974   0.677   5.664  12.515  1.1921  0.7066  0.3941
16520TIP3    H170975   0.630   5.588  12.548  0.3170  1.7991  1.7769
16520TIP3    H270976   0.735   5.689  12.587  1.0560  1.6684  0.1773
16521TIP3   OH270977   5.622   4.014   0.840  0.7293  0.0897 -0.1944
16521TIP3    H170978   5.602   4.095   0.792 -2.9115 -0.8669 -0.6234
16521TIP3    H270979   5.654   4.044   0.925  0.1128  2.0093 -0.5766
16522TIP3   OH270980   6.144   3.400  15.671  0.3639  0.0195 -0.0753
16522TIP3    H170981   6.054   3.416  15.701 -0.1408 -0.8238 -1.0825
16522TIP3    H270982   6.172   3.322  15.720 -0.5899 -1.5782 -1.9170
16523TIP3   OH270983   3.393   4.168  15.213  0.6136 -0.3014  0.6079
16523TIP3    H170984   3.447   4.119  15.274  1.8433 -0.1836 -0.3500
16523TIP3    H270985   3.451   4.235  15.176 -0.6335  0.9274  0.7782
16524TIP3   OH270986   0.922   0.882  13.640 -0.0312  0.2748 -0.1871
16524TIP3    H170987   1.007   0.923  13.622 -0.4716  1.3226  0.0349
16524TIP3    H270988   0.891   0.853  13.555  0.1593  0.6814 -0.3999
16525TIP3   OH270989   5.351   1.270   1.650 -1.1685 -0.3357  0.5525
16525TIP3    H170990   5.378   1.186   1.686  1.0012  0.1039  0.0959
16525TIP3    H270991   5.344   1.255   1.555 -0.9030 -0.0520  0.4836
16526TIP3   OH270992   3.637   4.415  14.046 -0.0336  0.6144  0.2554
16526TIP3    H170993   3.690   4.444  13.973  0.0226  0.5333  0.2632
16526TIP3    H270994   3.672   4.461  14.122  1.5721 -1.1740  0.6744
16527TIP3   OH270995   0.418   0.686  14.755  0.4957  0.7717 -0.1146
16527TIP3    H170996   0.388   0.766  14.711 -0.5476  1.3658  1.5912
16527TIP3    H270997   0.354   0.671  14.823  0.8955 -1.3533 -0.1589
16528TIP3   OH270998   1.509   2.386   5.291  0.0327  0.7140  0.2523
16528TIP3    H170999   1.513   2.402   5.385 -0.8758  0.3811  0.3557
16528TIP3    H271000   1.492   2.292   5.284  0.7889  0.6080 -0.2634
16529TIP3   OH271001   5.390   1.216   3.240  0.2617  0.4769 -0.1898
16529TIP3    H171002   5.337   1.138   3.222 -0.6939  0.9171  0.5951
16529TIP3    H271003   5.375   1.273   3.165 -0.5502  0.6734  0.1105
16530TIP3   OH271004   6.147   0.591   5.096 -0.0321 -1.0823 -0.1073
16530TIP3    H171005   6.235   0.619   5.121 -0.5471  0.5995 -0.0933
16530TIP3    H271006   6.158   0.498   5.074  1.6702 -0.9995  0.1941
16531TIP3   OH271007   3.471   1.674   4.643 -0.1717  0.8265 -0.5131
16531TIP3    H171008   3.467   1.647   4.551  1.5024  1.4695 -0.8083
16531TIP3    H271009   3.380   1.666   4.674 -0.3474 -1.8775 -1.4624
16532TIP3   OH271010   4.929   1.745   5.898  0.2521 -0.8256  0.6285
16532TIP3    H171011   4.867   1.779   5.832  0.0138 -1.3221  0.5925
16532TIP3    H271012   4.874   1.698   5.960  0.5860 -1.2040  0.6411
16533TIP3   OH271013   5.779   6.096  14.512 -0.1607 -0.1363 -1.2187
16533TIP3    H171014   5.699   6.044  14.507 -0.8626  0.8991 -0.9673
16533TIP3    H271015   5.763   6.171  14.455  1.3775 -0.8591 -2.6879
16534TIP3   OH271016   1.424   1.442  12.377  0.1075 -0.8662 -0.5468
16534TIP3    H171017   1.436   1.522  12.325  0.9128  0.1063  1.0612
16534TIP3    H271018   1.331   1.444  12.402  0.6219  0.9683  1.5453
16535TIP3   OH271019   2.449   3.807  12.799  0.3085  0.0685 -0.2036
16535TIP3    H171020   2.488   3.882  12.844  0.6276  0.7087 -1.5136
16535TIP3    H271021   2.402   3.760  12.868 -0.3817  1.7795  0.5455
16536TIP3   OH271022   4.414   4.313   5.488 -0.3805 -0.3171  0.4112
16536TIP3    H171023   4.319   4.317   5.491 -0.3912  1.0159 -0.5877
16536TIP3    H271024   4.434   4.228   5.449 -1.1136 -0.9659  1.4078
16537TIP3   OH271025   1.198   2.238  16.379  0.4602  0.2726 -0.3979
16537TIP3    H171026   1.150   2.232  16.296  0.6093  0.2491 -0.4834
16537TIP3    H271027   1.243   2.323  16.374 -0.4601  0.8089  0.1637
16538TIP3   OH271028   2.120   2.735  14.864 -0.3659 -0.5140 -0.0828
16538TIP3    H171029   2.199   2.785  14.886 -0.0997 -0.2230 -1.6093
16538TIP3    H271030   2.128   2.654  14.915 -0.3408  0.5714  1.6922
16539TIP3   OH271031   2.427   4.923   3.739  0.1505  0.4823 -0.4121
16539TIP3    H171032   2.344   4.945   3.781 -0.1756 -0.5962 -0.4580
16539TIP3    H271033   2.431   4.828   3.744  1.0882  0.4857 -0.9869
16540TIP3   OH271034   6.390   5.886   4.086  0.0187 -0.5100  0.7004
16540TIP3    H171035   6.368   5.847   4.171 -1.6455  0.4665  0.7565
16540TIP3    H271036   6.483   5.864   4.074  0.0167 -1.5925  2.2563
16541TIP3   OH271037   4.725   5.490   4.933 -0.3620 -0.1060  0.0787
16541TIP3    H171038   4.812   5.496   4.894 -0.1054  1.0617  0.7908
16541TIP3    H271039   4.739   5.508   5.026 -1.3433 -0.0424  0.2216
16542TIP3   OH271040   1.845   0.213   5.173 -0.3337 -0.1459  0.3291
16542TIP3    H171041   1.760   0.179   5.201 -1.0139  0.9432 -0.3359
16542TIP3    H271042   1.868   0.276   5.240 -1.7013  2.0557 -1.1470
16543TIP3   OH271043   1.763   0.413   6.457  0.1773  0.2891  0.3439
16543TIP3    H171044   1.743   0.479   6.390 -0.7161 -0.9381 -0.6448
16543TIP3    H271045   1.693   0.423   6.521 -0.5959 -0.4049 -0.3698
16544TIP3   OH271046   5.653   1.117  12.769  0.0962  0.4038 -0.5824
16544TIP3    H171047   5.585   1.165  12.722 -1.1374 -1.1024 -0.3974
16544TIP3    H271048   5.638   1.025  12.747  1.1765 -0.0924  0.6240
16545TIP3   OH271049   6.798   6.215  13.902 -0.5006  0.1804  0.2591
16545TIP3    H171050   6.705   6.209  13.882 -1.1993 -0.2966  3.1690
16545TIP3    H271051   6.815   6.139  13.958  1.0194  1.5745  1.8100
16546TIP3   OH271052   1.610   4.737  14.890 -0.5095 -0.1536  0.3616
16546TIP3    H171053   1.637   4.669  14.951 -1.2837  0.4515  1.4204
16546TIP3    H271054   1.600   4.692  14.806  1.1967 -0.8800  0.5092
16547TIP3   OH271055   6.797   3.268   0.229  0.3234  0.7996  0.6041
16547TIP3    H171056   6.792   3.217   0.148  0.5865  0.7947  0.5899
16547TIP3    H271057   6.757   3.212   0.295  0.3225  0.7048  0.5230
16548TIP3   OH271058   2.502   6.585   5.851 -0.2492 -0.0060  0.6255
16548TIP3    H171059   2.562   6.589   5.926  1.6848  2.0287 -0.8879
16548TIP3    H271060   2.422   6.628   5.881 -0.1168 -0.6308  1.9647
16549TIP3   OH271061   5.912   2.888  15.138  0.3595  0.0160 -0.1557
16549TIP3    H171062   5.857   2.966  15.129 -0.5106 -0.2196  2.3721
16549TIP3    H271063   6.001   2.922  15.139  0.0008  0.9858  0.7696
16550TIP3   OH271064   5.069   3.935   4.237  0.0951 -0.3351 -0.1520
16550TIP3    H171065   5.018   4.003   4.282  2.8657  1.6532  0.2537
16550TIP3    H271066   5.046   3.944   4.145 -3.6354 -2.6659  0.3229
16551TIP3   OH271067   0.594   4.803   3.701 -0.0612 -0.4007 -0.1070
16551TIP3    H171068   0.586   4.749   3.623  0.6258 -1.9737  0.8718
16551TIP3    H271069   0.614   4.742   3.771  0.9130  1.1467  1.0285
16552TIP3   OH271070   2.463   3.204  15.109  0.1956 -0.0014  0.1419
16552TIP3    H171071   2.428   3.158  15.032  2.8631  0.6687 -1.6144
16552TIP3    H271072   2.528   3.144  15.145 -0.1360  0.2266  1.1596
16553TIP3   OH271073   5.897   2.837   0.050 -0.2892 -0.0320  0.1618
16553TIP3    H171074   5.962   2.838   0.121 -0.2191 -0.3010  0.1014
16553TIP3    H271075   5.834   2.905   0.075 -0.0108  0.1991  0.2449
16554TIP3   OH271076   6.570   6.127   1.920  0.2723  0.0616 -0.3260
16554TIP3    H171077   6.602   6.041   1.893  2.2520  1.0973 -1.5381
16554TIP3    H271078   6.555   6.173   1.837 -0.3380  1.0240  0.3044
16555TIP3   OH271079   4.288   1.689   0.347 -0.0094 -0.8462  0.1337
16555TIP3    H171080   4.228   1.626   0.308 -2.3632 -0.0581  2.2235
16555TIP3    H271081   4.236   1.735   0.413  1.4794  3.3462 -1.2263
16556TIP3   OH271082   4.192   1.414  13.870  0.2115 -0.0954  0.5184
16556TIP3    H171083   4.197   1.500  13.829  1.2335  0.2185  1.2809
16556TIP3    H271084   4.278   1.400  13.908  0.4369 -1.9658 -0.5641
16557TIP3   OH271085   5.846   5.644  11.825  0.3923 -0.3434  0.0325
16557TIP3    H171086   5.782   5.674  11.889 -1.7222 -1.3882 -1.4776
16557TIP3    H271087   5.927   5.633  11.876 -1.0195 -0.5829  2.3965
16558TIP3   OH271088   1.692   6.697  11.723 -0.0836  0.6877  0.4321
16558TIP3    H171089   1.768   6.674  11.777 -0.6865  2.8128  2.3440
16558TIP3    H271090   1.690   6.793  11.723 -3.1573  0.7397  1.0921
16559TIP3   OH271091   0.364   0.416  14.972  0.0950 -0.1263  0.1884
16559TIP3    H171092   0.323   0.370  15.046 -0.4409  0.4312  0.2457
16559TIP3    H271093   0.312   0.495  14.961  0.2321 -0.1554 -0.7305
16560TIP3   OH271094   4.654   3.724   0.618 -0.1493 -0.8907  0.0002
16560TIP3    H171095   4.722   3.752   0.679  0.5009 -1.0192 -0.6501
16560TIP3    H271096   4.590   3.795   0.619  0.9066  0.1106 -0.7592
16561TIP3   OH271097   6.782   2.760  13.460  0.2220 -0.5714 -0.2220
16561TIP3    H171098   6.744   2.767  13.548  0.6713 -0.3425 -0.0449
16561TIP3    H271099   6.779   2.666  13.441 -1.0056 -0.5043 -0.4691
16562TIP3   OH271100   1.462   4.790  15.304 -0.4399 -0.0283  0.2911
16562TIP3    H171101   1.523   4.816  15.235 -1.1495  2.0588  0.3866
16562TIP3    H271102   1.514   4.796  15.385 -0.8586  2.4337  0.4567
16563TIP3   OH271103   1.143   6.326  11.556  0.2647  0.1331 -0.1291
16563TIP3    H171104   1.067   6.369  11.594  1.1969  1.6284  0.0980
16563TIP3    H271105   1.123   6.320  11.462 -0.6943 -0.7210  0.1169
16564TIP3   OH271106   1.003   3.180  12.768  0.4259 -0.2941  0.0553
16564TIP3    H171107   0.945   3.112  12.801 -0.8405  0.3909 -0.6546
16564TIP3    H271108   0.961   3.209  12.687 -0.6028  3.1590  1.6311
16565TIP3   OH271109   3.236   4.396   5.508 -0.4569  0.1443  0.0808
16565TIP3    H171110   3.241   4.491   5.494  0.1810 -0.1760 -2.2555
16565TIP3    H271111   3.324   4.371   5.537 -1.1599  0.4716  2.8144
16566TIP3   OH271112   6.284   2.498   0.763 -0.4019 -0.1558  0.2115
16566TIP3    H171113   6.290   2.518   0.669 -1.6904 -1.1085 -0.0907
16566TIP3    H271114   6.197   2.528   0.788  0.5708  1.7562  1.5584
16567TIP3   OH271115   5.340   3.081  11.578 -0.4010  0.3982 -0.2556
16567TIP3    H171116   5.278   3.031  11.526 -0.5558  0.3993 -0.0730
16567TIP3    H271117   5.422   3.031  11.573 -0.2668  0.6757 -0.9367
16568TIP3   OH271118   5.104   5.205  15.254 -0.4439  0.0655  0.5013
16568TIP3    H171119   5.171   5.218  15.187 -0.5417  0.3224  0.4517
16568TIP3    H271120   5.095   5.110  15.262 -0.3463  0.0345  0.2358
16569TIP3   OH271121   1.400   2.606   1.674  0.8502 -0.4790 -0.0526
16569TIP3    H171122   1.326   2.632   1.619  0.8317  0.6994  0.4861
16569TIP3    H271123   1.371   2.624   1.763  1.6915 -0.2218  0.1765
16570TIP3   OH271124   2.422   0.241  13.287 -0.0248  0.4918  0.5070
16570TIP3    H171125   2.462   0.187  13.220  0.6029  1.5304  0.0176
16570TIP3    H271126   2.346   0.191  13.316  0.6423 -0.7319  0.2295
16571TIP3   OH271127   0.293   5.463   5.668  0.3046 -0.9422  0.4444
16571TIP3    H171128   0.274   5.372   5.689  0.5192 -0.7914  1.3524
16571TIP3    H271129   0.237   5.513   5.728  0.7807 -0.4875  0.5187
16572TIP3   OH271130   5.823   6.093   0.116 -0.2307  0.2034 -0.2484
16572TIP3    H171131   5.911   6.076   0.083 -0.0872  1.7818 -0.7753
16572TIP3    H271132   5.809   6.186   0.099 -1.0383  0.5796  2.1147
16573TIP3   OH271133   3.070   2.616   4.277  0.7479 -0.0132  0.1052
16573TIP3    H171134   3.021   2.608   4.196  1.2102 -2.6034 -0.0258
16573TIP3    H271135   3.010   2.660   4.337  0.1957  1.4472 -1.4392
16574TIP3   OH271136   3.516   6.641   2.347 -0.1922  0.7331 -0.3770
16574TIP3    H171137   3.457   6.684   2.409  0.8137 -0.1610  1.2836
16574TIP3    H271138   3.593   6.619   2.399  1.0916  0.7200 -2.1746
16575TIP3   OH271139   3.518   1.800   0.064 -0.4421 -0.5012 -0.6609
16575TIP3    H171140   3.523   1.750  -0.017  0.0297 -1.9607  0.2278
16575TIP3    H271141   3.441   1.766   0.109 -1.2783  0.9814 -0.8953
16576TIP3   OH271142   4.265   2.399   5.406 -0.1559  0.1283 -0.3175
16576TIP3    H171143   4.186   2.453   5.408  0.2372  0.7107 -0.1149
16576TIP3    H271144   4.286   2.383   5.498  0.1821  0.3106 -0.3604
16577TIP3   OH271145   2.132   4.452  14.223 -0.0081  0.3662 -0.1961
16577TIP3    H171146   2.082   4.475  14.302  0.3937  2.9084 -0.5813
16577TIP3    H271147   2.097   4.368  14.196 -1.0236  0.0172  1.9972
16578TIP3   OH271148   5.022   5.342   6.224 -0.8374  0.1130  0.1488
16578TIP3    H171149   4.958   5.412   6.230 -2.3305 -1.0904 -0.9554
16578TIP3    H271150   4.979   5.266   6.263 -0.1818 -0.7630 -0.7688
16579TIP3   OH271151   4.819   4.375   4.622  0.3700 -0.2003  0.3210
16579TIP3    H171152   4.901   4.329   4.638  1.9606  2.1637 -0.6385
16579TIP3    H271153   4.783   4.389   4.710 -0.3116 -3.2740  0.6699
16580TIP3   OH271154   4.289   3.713   3.522 -0.0551  0.3895 -0.0637
16580TIP3    H171155   4.303   3.724   3.616  1.7519 -0.8261 -0.1441
16580TIP3    H271156   4.259   3.799   3.492  2.6837  1.8809  1.0996
16581TIP3   OH271157   6.563   4.891  12.362  0.1665  0.2415  0.5480
16581TIP3    H171158   6.494   4.917  12.301 -0.1916  0.4038  1.0231
16581TIP3    H271159   6.641   4.879  12.306 -0.1631  0.3602  0.0574
16582TIP3   OH271160   2.702   0.800   4.199  0.0384  0.2076 -0.0581
16582TIP3    H171161   2.720   0.706   4.193  0.3716  0.2874 -0.3490
16582TIP3    H271162   2.607   0.807   4.190  0.1561  0.0333 -2.0017
16583TIP3   OH271163   3.836   5.592   0.144 -0.2652 -0.0371  0.0844
16583TIP3    H171164   3.909   5.647   0.114 -0.0657 -0.1633  0.3317
16583TIP3    H271165   3.810   5.631   0.227  0.2845 -0.6732  0.5717
16584TIP3   OH271166   4.321   5.858   0.939 -0.8576 -0.5949 -0.0243
16584TIP3    H171167   4.272   5.780   0.966  0.2221 -0.7489  1.6107
16584TIP3    H271168   4.411   5.827   0.928 -0.6617  0.1699 -0.6138
16585TIP3   OH271169   0.349   4.960   4.821  0.1049  0.2318  0.2033
16585TIP3    H171170   0.256   4.968   4.838 -0.2410 -1.0190 -0.9394
16585TIP3    H271171   0.374   4.875   4.855  0.1386 -0.7765 -2.1380
16586TIP3   OH271172   2.875   1.639  16.195  0.5463  0.6073 -0.1368
16586TIP3    H171173   2.812   1.619  16.125 -0.1041  0.0388  0.5966
16586TIP3    H271174   2.855   1.575  16.264  0.9255  1.4008  0.7254
16587TIP3   OH271175   1.124   2.992   2.471  0.0155  0.0348 -0.1640
16587TIP3    H171176   1.039   3.036   2.474 -0.1214 -0.1740 -0.8336
16587TIP3    H271177   1.104   2.903   2.443  0.5452  0.2640 -1.3303
16588TIP3   OH271178   5.816   2.959  16.686 -0.0387  0.5062  0.3839
16588TIP3    H171179   5.830   2.915  16.601  0.8167  0.9610  0.2853
16588TIP3    H271180   5.867   2.907  16.748 -0.4539  0.3291  0.5785
16589TIP3   OH271181   2.453   2.763  14.571  0.5828  0.2021 -0.3998
16589TIP3    H171182   2.513   2.814  14.518 -0.3100  2.8420  0.9583
16589TIP3    H271183   2.501   2.747  14.653 -0.8343  3.4784  1.2303
16590TIP3   OH271184   4.701   4.761  12.801 -0.5058  0.3770  0.2995
16590TIP3    H171185   4.638   4.779  12.871  1.4146 -0.2395  2.3016
16590TIP3    H271186   4.736   4.847  12.777  0.6118  0.4310  1.9394
16591TIP3   OH271187   5.182   2.605  11.981 -0.2627 -0.6980  0.0262
16591TIP3    H171188   5.123   2.640  12.048 -3.3395 -0.6296 -2.5029
16591TIP3    H271189   5.200   2.679  11.923  0.9003 -1.1685 -0.2482
16592TIP3   OH271190   1.619   3.703   3.200  0.1753 -0.3976 -0.4420
16592TIP3    H171191   1.634   3.797   3.206 -0.3661 -0.2582 -1.1434
16592TIP3    H271192   1.705   3.665   3.188  0.6306 -0.1657  1.6728
16593TIP3   OH271193   3.874   1.693   3.966 -0.8177  0.3423 -0.7678
16593TIP3    H171194   3.873   1.642   4.046 -1.2588  0.5440 -0.6406
16593TIP3    H271195   3.955   1.667   3.921 -1.5050 -1.1924 -1.1877
16594TIP3   OH271196   6.329   1.790  11.119  0.1298 -0.2353 -0.4809
16594TIP3    H171197   6.235   1.806  11.126 -0.4913 -2.6608 -2.0439
16594TIP3    H271198   6.354   1.835  11.038  1.3591  3.9456  1.8897
16595TIP3   OH271199   4.488   1.607   0.051  0.0625  0.3317 -0.4335
16595TIP3    H171200   4.463   1.683   0.104 -1.4140 -0.7823  0.5487
16595TIP3    H271201   4.406   1.562   0.034  0.8881 -0.9409 -1.2011
16596TIP3   OH271202   1.515   2.388  11.089 -0.0670  0.0852  0.1609
16596TIP3    H171203   1.458   2.317  11.117  0.4686  0.2478  1.7796
16596TIP3    H271204   1.568   2.350  11.019 -0.3143 -0.8723  0.4833
16597TIP3   OH271205   5.494   6.218  15.181 -0.0135 -0.1237 -0.7580
16597TIP3    H171206   5.448   6.160  15.241 -0.3016  0.0931 -0.7690
16597TIP3    H271207   5.577   6.238  15.225 -0.6689  0.8863  0.0473
16598TIP3   OH271208   3.144   2.167   1.406  0.3089 -0.2628 -0.2726
16598TIP3    H171209   3.178   2.193   1.491  0.0915 -1.8966  0.3386
16598TIP3    H271210   3.221   2.161   1.350  0.7022 -1.1127  0.3417
16599TIP3   OH271211   4.780   5.293   4.031  0.1711 -0.2923 -0.4950
16599TIP3    H171212   4.700   5.265   3.985  0.1582  1.7849 -1.8635
16599TIP3    H271213   4.850   5.277   3.967  0.9543 -2.2403  0.7487
16600TIP3   OH271214   2.841   0.449  15.536 -0.2769 -0.1102 -0.3167
16600TIP3    H171215   2.893   0.482  15.610  1.4331 -0.5778 -1.2505
16600TIP3    H271216   2.817   0.360  15.562  1.5038 -0.7877 -0.8352
16601TIP3   OH271217   4.646   0.631   2.898 -0.1895  0.2021 -0.1606
16601TIP3    H171218   4.566   0.599   2.940  0.8905 -0.9727  1.0823
16601TIP3    H271219   4.639   0.600   2.808 -0.8510 -0.4271  0.0938
16602TIP3   OH271220   4.283   2.705  12.286  0.3715 -0.1876  0.2260
16602TIP3    H171221   4.340   2.763  12.336  0.9051  1.3157 -1.9908
16602TIP3    H271222   4.341   2.635  12.256  0.2467 -0.5933  0.9091
16603TIP3   OH271223   5.954   1.295   3.029 -0.1881  0.5354 -0.4764
16603TIP3    H171224   6.046   1.269   3.033 -0.7430 -1.5235  2.1402
16603TIP3    H271225   5.917   1.263   3.111 -2.7878  3.3127 -0.3960
16604TIP3   OH271226   2.594   4.233   0.940  0.1101 -0.2432  0.5856
16604TIP3    H171227   2.604   4.158   0.998  1.1085 -0.1297  0.5704
16604TIP3    H271228   2.662   4.294   0.968 -1.0679  0.9390  1.0114
16605TIP3   OH271229   1.996   2.649  15.614 -0.1444 -0.1656 -0.0534
16605TIP3    H171230   1.997   2.573  15.556 -0.0769 -0.9911  1.0192
16605TIP3    H271231   2.051   2.714  15.569 -0.1782 -0.7462 -0.9596
16606TIP3   OH271232   4.745   0.244   1.305 -0.8578  0.4183  0.2869
16606TIP3    H171233   4.770   0.151   1.310  0.7475  0.8513  1.3311
16606TIP3    H271234   4.707   0.263   1.391 -1.4156  0.6735 -0.0135
16607TIP3   OH271235   3.693   0.866   3.726 -0.4308  0.4706  0.4650
16607TIP3    H171236   3.607   0.862   3.684  0.5978  1.1250 -1.8908
16607TIP3    H271237   3.718   0.774   3.736 -1.4306  0.2707  1.3119
16608TIP3   OH271238   4.234   1.170   0.155  0.2382 -0.6854  0.4831
16608TIP3    H171239   4.177   1.128   0.091  0.3998  0.2054 -0.2632
16608TIP3    H271240   4.193   1.153   0.240  0.9444 -3.4295  0.3697
16609TIP3   OH271241   5.658   5.034   0.288  0.5863 -0.7387  0.1027
16609TIP3    H171242   5.639   5.102   0.222 -1.5897 -1.2078  0.1499
16609TIP3    H271243   5.583   4.975   0.283  0.4399 -0.9096  2.8717
16610TIP3   OH271244   0.465   2.941  15.699 -0.1459  0.0016 -0.2982
16610TIP3    H171245   0.458   3.032  15.728  1.8567 -0.0099  0.3325
16610TIP3    H271246   0.533   2.942  15.632 -0.0176 -1.0563 -0.2030
16611TIP3   OH271247   5.845   4.830  11.975  0.5405  0.1054 -0.6289
16611TIP3    H171248   5.791   4.815  11.897  0.4700  0.2098 -0.6011
16611TIP3    H271249   5.782   4.857  12.042  0.1855 -2.6955  0.2942
16612TIP3   OH271250   0.642   4.365   4.489 -0.5466  0.0867  0.1075
16612TIP3    H171251   0.602   4.397   4.570  0.1452  1.0951  0.0683
16612TIP3    H271252   0.605   4.421   4.420 -0.8443 -0.5157 -0.2235
16613TIP3   OH271253   4.462   5.744   3.644 -0.1415  0.6157 -0.8348
16613TIP3    H171254   4.514   5.699   3.711 -0.8414 -0.1611 -0.7955
16613TIP3    H271255   4.522   5.756   3.571  0.6810  1.6209 -0.0228
16614TIP3   OH271256   3.264   5.729   2.615  0.7658  0.2543  0.2243
16614TIP3    H171257   3.224   5.668   2.553 -3.0339  2.8110 -0.1843
16614TIP3    H271258   3.317   5.674   2.672 -1.6265 -3.2924 -0.6447
16615TIP3   OH271259   1.272   5.395   2.515 -0.1296 -0.9332  0.3091
16615TIP3    H171260   1.291   5.486   2.493 -2.6631  0.1276  2.0063
16615TIP3    H271261   1.336   5.344   2.466  0.3529  1.6607 -1.9830
16616TIP3   OH271262   2.374   0.990   6.199  0.2369 -0.8595  0.4325
16616TIP3    H171263   2.300   0.995   6.259 -0.6648  1.3876 -0.7667
16616TIP3    H271264   2.376   1.074   6.155  3.0710 -1.1172 -0.1546
16617TIP3   OH271265   1.238   6.180   5.228 -0.0523 -0.0414 -0.2703
16617TIP3    H171266   1.202   6.095   5.249  0.8877 -0.0876  1.3249
16617TIP3    H271267   1.273   6.171   5.139 -0.4540 -1.1415 -0.3190
16618TIP3   OH271268   1.037   4.359   2.734 -0.4200  0.3007  0.3830
16618TIP3    H171269   1.004   4.278   2.694 -0.9887 -0.2629  1.9353
16618TIP3    H271270   0.961   4.416   2.739 -0.6214 -0.0647  1.6897
16619TIP3   OH271271   4.029   5.779   3.561  0.4322 -0.0231 -0.7985
16619TIP3    H171272   4.122   5.797   3.553  0.1864  1.3092 -0.7764
16619TIP3    H271273   3.985   5.857   3.528 -0.6575  0.1507  0.9091
16620TIP3   OH271274   5.387   0.650   5.083 -0.1183  0.5809 -0.2960
16620TIP3    H171275   5.452   0.688   5.024 -1.1662  1.0587 -1.1801
16620TIP3    H271276   5.305   0.652   5.033 -0.5324 -1.4053  0.2124
16621TIP3   OH271277   0.884   0.595   3.089 -0.2032 -0.2849  0.1995
16621TIP3    H171278   0.797   0.561   3.109  0.9337 -2.3729  2.0415
16621TIP3    H271279   0.887   0.599   2.994 -2.7693  1.2619  0.0822
16622TIP3   OH271280   6.606   2.888  11.585  0.1823 -0.1825 -0.2721
16622TIP3    H171281   6.684   2.848  11.545  1.8159  1.1037  1.4035
16622TIP3    H271282   6.589   2.965  11.531  0.4096 -0.1762 -0.3358
16623TIP3   OH271283   5.184   3.735   2.898  0.0676 -0.1653 -0.1299
16623TIP3    H171284   5.247   3.748   2.969  1.6761  0.3445 -1.5670
16623TIP3    H271285   5.199   3.644   2.870 -1.6811 -0.9067  1.1489
16624TIP3   OH271286   0.937   2.312  12.029 -0.8348 -0.6023 -0.6265
16624TIP3    H171287   0.864   2.265  12.070  0.1683 -0.4510  1.4309
16624TIP3    H271288   1.009   2.249  12.029 -0.4689 -0.1888 -1.0844
16625TIP3   OH271289   1.589   0.738  14.006  0.2320  0.7096 -0.0280
16625TIP3    H171290   1.570   0.798  13.933  0.7872  1.4278  0.4094
16625TIP3    H271291   1.540   0.774  14.080  0.8455  0.8226  0.3235
16626TIP3   OH271292   3.722   3.182  11.396  0.3453 -0.3787 -0.0860
16626TIP3    H171293   3.713   3.095  11.435 -0.3792  0.1499  1.0037
16626TIP3    H271294   3.633   3.218  11.398  0.8959  0.9985  1.0141
16627TIP3   OH271295   6.734   0.772   4.820 -0.3326 -0.0795 -0.1973
16627TIP3    H171296   6.807   0.796   4.762 -0.8907  2.3700 -0.0249
16627TIP3    H271297   6.760   0.689   4.859  2.0093  0.3100 -0.7731
16628TIP3   OH271298   1.286   2.004  11.347 -0.1539  1.1658  0.3652
16628TIP3    H171299   1.354   1.952  11.304 -0.9217  0.2941  0.2040
16628TIP3    H271300   1.276   2.082  11.292 -0.3265  0.5952 -0.4083
16629TIP3   OH271301   5.847   5.370  10.389 -0.0649  0.4388 -0.1347
16629TIP3    H171302   5.812   5.295  10.341 -1.3176  0.6145  0.4515
16629TIP3    H271303   5.792   5.444  10.362 -0.2558  0.6963  0.9022
16630TIP3   OH271304   3.794   4.361  10.384  0.5459  0.5163 -0.3203
16630TIP3    H171305   3.853   4.296  10.422  0.7722  1.1452  0.4293
16630TIP3    H271306   3.818   4.365  10.292  1.2626  0.3250 -0.1449
16631TIP3   OH271307   1.564   0.482  15.713 -0.1561  1.0405 -0.1846
16631TIP3    H171308   1.630   0.530  15.762 -0.1819  0.6084  0.2885
16631TIP3    H271309   1.481   0.505  15.755 -0.2469  1.1524 -0.4243
16632TIP3   OH271310   3.224   2.736   4.746  0.0671 -0.3593  0.5443
16632TIP3    H171311   3.168   2.790   4.690  2.2028  0.0079 -1.4199
16632TIP3    H271312   3.207   2.646   4.718  0.8615 -0.2011 -0.5360
16633TIP3   OH271313   6.736   0.390  14.762 -0.0606 -0.1609  0.6334
16633TIP3    H171314   6.823   0.420  14.737  0.4676 -0.1616  2.3405
16633TIP3    H271315   6.697   0.359  14.680  1.0567  0.9939 -0.3846
16634TIP3   OH271316   5.542   0.480   1.763 -0.2846  0.1536  0.0448
16634TIP3    H171317   5.593   0.451   1.839 -1.4862 -0.5066  0.6277
16634TIP3    H271318   5.583   0.562   1.737 -0.0950  0.6070  1.6548
16635TIP3   OH271319   1.330   1.135   2.398 -0.0080  0.0052  0.0261
16635TIP3    H171320   1.335   1.198   2.469 -1.7812  1.0461 -0.6810
16635TIP3    H271321   1.325   1.050   2.441 -0.7764  0.5960  1.1617
16636TIP3   OH271322   5.194   5.483  14.805  0.1874  0.1658  0.2385
16636TIP3    H171323   5.101   5.481  14.828  0.1162  1.3778  0.0887
16636TIP3    H271324   5.223   5.570  14.830  1.3774 -0.3100  0.5893
16637TIP3   OH271325   4.094   2.629   3.837 -0.2156 -0.5540 -0.0518
16637TIP3    H171326   4.162   2.657   3.775 -1.2882 -0.1515 -1.1042
16637TIP3    H271327   4.142   2.594   3.912  1.2219  2.2244  0.4540
16638TIP3   OH271328   1.541   3.872   4.187 -0.1787  0.5763  0.1375
16638TIP3    H171329   1.600   3.926   4.240 -0.6714 -0.1433  1.4442
16638TIP3    H271330   1.457   3.875   4.233 -0.0607 -1.7851  0.6045
16639TIP3   OH271331   5.813   6.380   0.807  0.4807 -0.0047  0.3008
16639TIP3    H171332   5.767   6.297   0.797 -1.3208  0.9417  0.4352
16639TIP3    H271333   5.848   6.399   0.720 -0.6827 -0.0248 -0.1837
16640TIP3   OH271334   3.883   5.762  13.295 -0.0198 -0.0979  0.5846
16640TIP3    H171335   3.793   5.779  13.320  0.2001  0.8271  0.7939
16640TIP3    H271336   3.880   5.754  13.199 -0.1072  1.5663  0.4120
16641TIP3   OH271337   5.329   4.088  12.158 -0.1421 -0.7945 -0.1293
16641TIP3    H171338   5.288   4.047  12.234 -1.8661 -1.2090 -1.2343
16641TIP3    H271339   5.413   4.121  12.191 -0.4127 -1.8169  1.6975
16642TIP3   OH271340   5.720   3.205   3.584 -0.5646  0.2245 -0.2090
16642TIP3    H171341   5.690   3.291   3.612 -2.5070 -0.0128 -1.3765
16642TIP3    H271342   5.702   3.147   3.658 -1.3538  0.4278 -0.2362
16643TIP3   OH271343   3.066   1.635  10.488  0.0141 -0.6379  0.3581
16643TIP3    H171344   3.083   1.582  10.410 -2.0067  0.5051 -0.9616
16643TIP3    H271345   3.056   1.572  10.559  0.4788 -1.8098 -0.5896
16644TIP3   OH271346   4.535   5.166  12.160  0.2863 -0.0411 -0.0527
16644TIP3    H171347   4.586   5.096  12.119 -0.4622  0.6515 -2.3168
16644TIP3    H271348   4.547   5.242  12.102 -3.0795  0.2067 -0.6444
16645TIP3   OH271349   4.243   3.406  15.652 -0.5413 -0.0846 -0.0949
16645TIP3    H171350   4.247   3.446  15.565 -0.6151 -1.7081 -0.8956
16645TIP3    H271351   4.235   3.480  15.712  0.2978  1.1263 -1.4001
16646TIP3   OH271352   4.212   0.448   0.958 -0.4506  0.2440 -0.1591
16646TIP3    H171353   4.266   0.524   0.936 -2.2084  1.9298  1.0403
16646TIP3    H271354   4.253   0.412   1.036  0.0734  0.2958 -0.4038
16647TIP3   OH271355   1.511   1.907  12.210  0.1873 -0.1002 -0.0912
16647TIP3    H171356   1.528   1.813  12.219 -0.4692 -0.0922  1.4727
16647TIP3    H271357   1.437   1.912  12.149  1.1085 -0.5032 -1.2802
16648TIP3   OH271358   2.576   4.830  16.378 -0.2240 -0.4580 -0.4749
16648TIP3    H171359   2.518   4.756  16.396 -0.3919 -0.0836  0.5711
16648TIP3    H271360   2.517   4.902  16.358 -0.1601  0.0681  1.1332
16649TIP3   OH271361   4.118   3.162   2.143  0.0339  0.3803 -0.6579
16649TIP3    H171362   4.105   3.181   2.050 -1.7366  1.6208 -0.2118
16649TIP3    H271363   4.115   3.248   2.185  0.4446 -0.2016  0.5972
16650TIP3   OH271364   5.962   3.300   5.472  0.0926 -0.2939 -0.1928
16650TIP3    H171365   5.915   3.317   5.553  0.3723  1.6518 -0.3923
16650TIP3    H271366   5.894   3.277   5.408 -0.0831 -2.3542  0.6645
16651TIP3   OH271367   3.928   0.010   4.674 -0.1074  0.2137 -0.7263
16651TIP3    H171368   3.947  -0.079   4.703  0.1306  0.3779 -0.3833
16651TIP3    H271369   3.837   0.024   4.700  0.1814  0.4534  0.1787
16652TIP3   OH271370   0.824   1.466  16.981  0.0580  0.5522 -0.2242
16652TIP3    H171371   0.910   1.431  16.958 -0.3520 -1.1476  0.6865
16652TIP3    H271372   0.842   1.529  17.051  0.4331 -1.3849  1.5298
16653TIP3   OH271373   2.717   5.466  13.044  0.4801  0.3813  0.4447
16653TIP3    H171374   2.791   5.427  12.999 -0.2298  0.9393 -1.2643
16653TIP3    H271375   2.646   5.402  13.035  0.7281 -0.2263  2.2139
16654TIP3   OH271376   1.198   6.640  12.022 -0.5855  0.1292 -0.1286
16654TIP3    H171377   1.286   6.672  12.003  0.7966 -1.7052  2.4927
16654TIP3    H271378   1.184   6.569  11.960  0.1794 -0.1316 -0.0155
16655TIP3   OH271379   1.264   1.471  13.780 -0.1429 -0.2777  0.5884
16655TIP3    H171380   1.345   1.434  13.744  0.6382  0.9585  0.9925
16655TIP3    H271381   1.201   1.400  13.776  0.0419 -0.4093 -2.6338
16656TIP3   OH271382   3.850   6.717  14.910 -0.5704  0.1049  0.1676
16656TIP3    H171383   3.928   6.757  14.872 -0.7616 -0.7059 -1.1286
16656TIP3    H271384   3.868   6.714  15.004  1.1912 -0.5682 -0.1626
16657TIP3   OH271385   6.046   1.350  14.986 -0.5845 -0.4440 -0.2963
16657TIP3    H171386   6.113   1.310  15.043 -0.8662  0.4213  0.6654
16657TIP3    H271387   6.096   1.410  14.930 -0.2205 -1.7531 -1.4408
16658TIP3   OH271388   5.094   5.799   2.066  0.1240  0.1067 -0.0161
16658TIP3    H171389   5.071   5.793   1.973  1.2427  1.7891 -0.4450
16658TIP3    H271390   5.190   5.808   2.066  0.3861 -1.8903  1.4360
16659TIP3   OH271391   5.581   1.145   0.056  0.3213 -0.6782 -0.2316
16659TIP3    H171392   5.552   1.169   0.144  3.0910  1.3451  0.2465
16659TIP3    H271393   5.615   1.056   0.066  0.8251 -0.3903  0.8426
16660TIP3   OH271394   2.408   2.497  16.822  0.1482  0.1987  0.2375
16660TIP3    H171395   2.473   2.567  16.814  1.7676 -1.1223  1.1664
16660TIP3    H271396   2.395   2.466  16.733 -1.1963  2.1298 -0.3089
16661TIP3   OH271397   4.692   5.006   3.800 -0.1775  0.5978  0.0395
16661TIP3    H171398   4.761   5.002   3.866  0.3531 -1.3965 -0.5493
16661TIP3    H271399   4.739   5.020   3.718 -0.8633  3.6104  0.0312
16662TIP3   OH271400   2.810   3.778  16.594 -0.0341 -0.8360 -0.0996
16662TIP3    H171401   2.827   3.872  16.590  0.4990 -0.8778  0.9044
16662TIP3    H271402   2.814   3.757  16.687  1.7024 -2.1818 -0.4176
16663TIP3   OH271403   0.144   4.637  12.294  0.0591 -0.1107  0.4466
16663TIP3    H171404   0.093   4.711  12.264  0.8958 -0.2332 -1.4053
16663TIP3    H271405   0.090   4.560  12.275  0.3913 -0.1549 -0.3529
16664TIP3   OH271406   5.929   1.627  12.861  0.5072  0.5005  0.7589
16664TIP3    H171407   5.860   1.689  12.885  0.8180  0.6098  1.4010
16664TIP3    H271408   5.886   1.542  12.863  0.7208  0.3793  2.7391
16665TIP3   OH271409   1.201   3.068   4.909 -0.2276  0.2680  0.6055
16665TIP3    H171410   1.255   3.088   4.986  0.8359  0.0733 -0.0770
16665TIP3    H271411   1.246   3.112   4.837 -2.1655  1.9450  0.3410
16666TIP3   OH271412   2.352   3.891  10.552  0.5021  0.1927 -0.0246
16666TIP3    H171413   2.270   3.928  10.583 -1.0964 -2.0549 -1.2866
16666TIP3    H271414   2.413   3.965  10.552 -0.7640  1.4335  3.2780
16667TIP3   OH271415   2.797   0.609  16.599  0.3475 -0.0052  0.0914
16667TIP3    H171416   2.756   0.694  16.581 -0.6451 -0.6254 -0.6978
16667TIP3    H271417   2.754   0.549  16.538  0.8017 -1.1401  0.8670
16668TIP3   OH271418   2.048   6.604   0.153 -0.1868 -0.0243 -0.1387
16668TIP3    H171419   2.029   6.551   0.076  2.4751  0.7361 -1.4331
16668TIP3    H271420   2.036   6.544   0.227  0.1451 -1.6710 -1.3606
16669TIP3   OH271421   3.422   2.700  15.133  0.1632  0.0198 -0.3444
16669TIP3    H171422   3.461   2.665  15.213 -0.4205  0.8397  0.3090
16669TIP3    H271423   3.342   2.649  15.121  1.1573 -1.3611 -1.4431
16670TIP3   OH271424   0.902   1.144   6.542 -0.3368  0.0400 -0.1253
16670TIP3    H171425   0.852   1.102   6.472  1.8657 -1.4974 -0.8862
16670TIP3    H271426   0.883   1.091   6.620 -0.5036 -0.0595 -0.2330
16671TIP3   OH271427   5.490   6.446  14.534  0.7800 -0.6842 -0.2887
16671TIP3    H171428   5.501   6.536  14.567  2.2047 -0.4180 -1.4076
16671TIP3    H271429   5.395   6.434  14.529  0.5340  0.2127  1.2827
16672TIP3   OH271430   4.023   2.258  12.784 -0.1671  0.8990  0.4337
16672TIP3    H171431   4.072   2.255  12.702 -0.8237  0.2895  0.0573
16672TIP3    H271432   4.009   2.167  12.807  2.4118  0.9444  2.7192
16673TIP3   OH271433   4.278   5.548   4.263  0.3000 -0.7117 -0.3898
16673TIP3    H171434   4.303   5.458   4.283  0.6553 -0.5782 -0.2234
16673TIP3    H271435   4.345   5.601   4.305 -0.7232 -0.3180  0.8096
16674TIP3   OH271436   2.778   4.239  12.814 -0.3157  0.2092  0.1931
16674TIP3    H171437   2.860   4.193  12.797  1.6318  3.0271  1.2667
16674TIP3    H271438   2.719   4.208  12.745  2.5162  0.0982 -2.3884
16675TIP3   OH271439   4.255   6.347   0.238  0.2052  0.7012  0.6642
16675TIP3    H171440   4.190   6.387   0.296 -0.7705 -0.7391  0.6032
16675TIP3    H271441   4.335   6.345   0.291 -0.2227  0.9662  1.3383
16676TIP3   OH271442   5.769   0.413   4.465  0.4714 -0.1288  0.4723
16676TIP3    H171443   5.859   0.426   4.495  0.5522 -0.6131  0.4465
16676TIP3    H271444   5.715   0.453   4.534  0.7393  1.7772 -0.3830
16677TIP3   OH271445   4.451   6.705  16.582 -0.1792 -0.5136 -0.1364
16677TIP3    H171446   4.446   6.713  16.677 -0.5711 -0.9006 -0.1227
16677TIP3    H271447   4.507   6.779  16.555  0.9003 -1.0791  0.4842
16678TIP3   OH271448   4.132   5.822  13.704 -0.3661 -0.0761  0.7889
16678TIP3    H171449   4.163   5.732  13.690 -1.2806 -0.1682 -0.9168
16678TIP3    H271450   4.206   5.876  13.676 -0.4976 -0.3046 -0.0303
16679TIP3   OH271451   3.583   0.539  15.971 -0.4622  0.1737 -0.0105
16679TIP3    H171452   3.512   0.534  15.908 -1.1559  0.0752  0.7546
16679TIP3    H271453   3.654   0.583  15.925 -0.0576 -2.0331 -1.6431
16680TIP3   OH271454   6.091   1.023  15.353 -0.3791  0.0179 -0.1318
16680TIP3    H171455   6.052   0.998  15.269 -1.5637  0.3703  0.2975
16680TIP3    H271456   6.127   0.941  15.388 -2.0718 -0.6345  0.1483
16681TIP3   OH271457   0.815   6.656   4.163  0.5424 -0.2859  0.2086
16681TIP3    H171458   0.881   6.722   4.186  1.3482 -0.2774 -1.9216
16681TIP3    H271459   0.736   6.685   4.209  1.4633  0.8802  1.1467
16682TIP3   OH271460   5.979   0.351   5.529 -0.7687  0.0753  0.9679
16682TIP3    H171461   6.043   0.288   5.496 -0.4769 -0.1191  1.8744
16682TIP3    H271462   5.954   0.317   5.615 -1.4622  0.5993  0.9860
16683TIP3   OH271463   3.835   5.259  12.123  0.2493  0.1958 -0.0913
16683TIP3    H171464   3.791   5.288  12.043 -1.2281 -0.1143  0.5739
16683TIP3    H271465   3.862   5.169  12.103 -0.5128 -0.0364 -0.0966
16684TIP3   OH271466   0.178   5.214  13.114  0.6106 -0.2068 -0.0448
16684TIP3    H171467   0.249   5.192  13.054 -0.3339 -0.3737 -1.1229
16684TIP3    H271468   0.201   5.301  13.147  1.5204 -0.4327 -0.0415
16685TIP3   OH271469   2.429   4.613  16.422  0.5026  0.3247  0.1418
16685TIP3    H171470   2.361   4.632  16.486  1.3338  0.9487  0.8510
16685TIP3    H271471   2.394   4.540  16.371 -2.1377  2.6843 -1.6907
16686TIP3   OH271472   0.512   0.423   1.610 -0.0128 -0.2893  0.0684
16686TIP3    H171473   0.586   0.462   1.657 -0.9689 -0.2004  1.5589
16686TIP3    H271474   0.525   0.328   1.619  0.8703 -0.3315 -1.2644
16687TIP3   OH271475   1.913   2.472  15.890 -0.5734  0.4490 -0.4067
16687TIP3    H171476   2.004   2.480  15.862 -0.5842  0.5836 -0.4018
16687TIP3    H271477   1.862   2.513  15.820 -0.6279  0.4042 -0.3941
16688TIP3   OH271478   4.118   4.313  11.526 -0.0800 -0.3246 -0.2717
16688TIP3    H171479   4.151   4.362  11.601  0.8051  0.6660 -1.2825
16688TIP3    H271480   4.088   4.379  11.465 -1.9739 -1.1554 -0.2978
16689TIP3   OH271481   4.545   6.363   0.970  0.5218 -0.1128 -0.1641
16689TIP3    H171482   4.542   6.422   1.044 -1.0073 -1.3145  0.8051
16689TIP3    H271483   4.518   6.278   1.005 -2.1842 -0.3292 -2.3911
16690TIP3   OH271484   4.240   3.559   4.524  0.4303  0.1263  0.2040
16690TIP3    H171485   4.183   3.486   4.546 -0.7679  1.0892  0.4431
16690TIP3    H271486   4.198   3.602   4.450 -0.0337  1.7347  1.3192
16691TIP3   OH271487   2.016   2.352   6.005 -0.1031 -0.2331 -0.2751
16691TIP3    H171488   2.100   2.386   5.972 -1.0349  1.9644 -0.5488
16691TIP3    H271489   1.992   2.413   6.075  0.3971 -3.1177  2.6021
16692TIP3   OH271490   3.678   1.323  14.252 -0.1872  0.0949 -0.3899
16692TIP3    H171491   3.701   1.403  14.205 -0.3194  0.6095  0.4058
16692TIP3    H271492   3.763   1.282  14.271 -0.1634 -0.5864 -1.8450
16693TIP3   OH271493   2.501   6.271  10.550 -0.1916  0.3146 -0.0118
16693TIP3    H171494   2.501   6.175  10.557  0.7806  0.3207  0.3152
16693TIP3    H271495   2.428   6.299  10.605  0.4493 -0.1863  1.1428
16694TIP3   OH271496   2.025   0.716  13.968 -0.0624  0.0343 -0.8184
16694TIP3    H171497   2.028   0.694  13.875  0.5126 -0.0632 -0.7806
16694TIP3    H271498   2.110   0.688  14.002 -1.0717 -2.0497  0.2069
16695TIP3   OH271499   3.563   1.345   4.821 -0.1234  0.8966  0.2227
16695TIP3    H171500   3.592   1.408   4.755  1.2945  1.2586  1.1347
16695TIP3    H271501   3.540   1.266   4.771 -0.6898  1.6987 -0.8214
16696TIP3   OH271502   2.245   5.973   0.897  0.1156  0.4910 -0.5886
16696TIP3    H171503   2.255   5.999   0.988  0.4322 -0.4914 -0.3305
16696TIP3    H271504   2.333   5.979   0.860  0.1053  0.2588 -0.6539
16697TIP3   OH271505   6.621   5.436  12.797  0.0226  0.1958 -0.3324
16697TIP3    H171506   6.672   5.360  12.826  0.2929  0.9224  1.1857
16697TIP3    H271507   6.534   5.422  12.836  0.4793  1.3382  1.2080
16698TIP3   OH271508   3.093   0.166  13.600 -0.0283 -0.1623  0.4652
16698TIP3    H171509   3.121   0.080  13.632  0.1156 -0.3810 -0.2365
16698TIP3    H271510   3.005   0.178  13.637  0.4785 -0.0050  1.6804
16699TIP3   OH271511   3.102   1.391   0.952 -0.0548  0.4365  0.3920
16699TIP3    H171512   3.026   1.338   0.927  0.5429 -0.1931 -0.0900
16699TIP3    H271513   3.075   1.432   1.035 -0.9401  0.2681  0.2028
16700TIP3   OH271514   6.630   3.822  16.644  0.0240 -0.0051  0.1644
16700TIP3    H171515   6.654   3.904  16.687 -0.0388  0.1280 -0.0481
16700TIP3    H271516   6.701   3.805  16.583 -0.7281  0.7678 -0.9823
16701TIP3   OH271517   1.020   5.638   4.696  0.3864  0.0211 -0.1488
16701TIP3    H171518   0.994   5.555   4.656 -1.4037  0.3647  0.2323
16701TIP3    H271519   1.067   5.685   4.627 -0.2198 -0.5410 -0.9588
16702TIP3   OH271520   5.664   0.657  11.607 -0.7598 -0.3590 -0.0706
16702TIP3    H171521   5.668   0.730  11.669 -0.9165 -0.6722  0.3048
16702TIP3    H271522   5.755   0.645  11.578 -0.2266 -1.8790  2.0175
16703TIP3   OH271523   3.556   0.738   1.539  0.0148 -0.4186 -0.2101
16703TIP3    H171524   3.540   0.827   1.506  2.6744  0.3421  0.2670
16703TIP3    H271525   3.492   0.727   1.610 -0.3428  1.1598 -0.2510
16704TIP3   OH271526   5.004   1.851  15.986  0.2670 -0.5327  0.5230
16704TIP3    H171527   5.056   1.877  15.910 -0.8042  1.1221  0.3042
16704TIP3    H271528   5.055   1.782  16.027  2.3678  0.6264  0.0197
16705TIP3   OH271529   1.648   3.734   2.826 -0.2191  0.1558  0.8969
16705TIP3    H171530   1.740   3.737   2.852  1.1239 -1.2179 -2.9996
16705TIP3    H271531   1.622   3.642   2.839 -1.1342  0.5581  2.0814
16706TIP3   OH271532   1.525   3.180   2.747 -0.1770 -0.0030  0.1234
16706TIP3    H171533   1.560   3.140   2.667  2.6614  0.5561  0.9745
16706TIP3    H271534   1.538   3.114   2.815  0.5358  0.7027  0.7059
16707TIP3   OH271535   3.010   6.776   0.655 -0.7982  0.6204  0.5028
16707TIP3    H171536   3.023   6.753   0.747  0.0898  0.6718  0.3994
16707TIP3    H271537   2.951   6.709   0.621  0.2615 -0.4315  0.6768
16708TIP3   OH271538   3.982   3.912  14.619  0.7090 -0.1105 -0.1077
16708TIP3    H171539   3.916   3.867  14.567  0.8515 -1.8421  1.1112
16708TIP3    H271540   4.019   3.977  14.560 -2.0625  0.9455 -0.8452
16709TIP3   OH271541   6.571   0.361  16.381 -0.7317  0.0381 -0.1419
16709TIP3    H171542   6.580   0.277  16.336 -0.1956 -0.0237  0.0786
16709TIP3    H271543   6.582   0.340  16.473 -0.0522  0.4232 -0.1266
16710TIP3   OH271544   2.638   1.310  15.817 -0.2047  0.5065 -0.4154
16710TIP3    H171545   2.610   1.269  15.898 -0.3789  1.2618 -0.0873
16710TIP3    H271546   2.559   1.312  15.762 -0.2242  0.5182 -0.3870
16711TIP3   OH271547   3.806   0.020  16.771  0.1979  0.7554 -0.4628
16711TIP3    H171548   3.715   0.052  16.773  0.3075  1.1398 -1.0582
16711TIP3    H271549   3.856   0.094  16.735  0.5475  0.1164 -1.3457
16712TIP3   OH271550   4.862   6.280  12.847 -0.3187 -0.1021  0.3079
16712TIP3    H171551   4.941   6.311  12.893 -1.6204  2.0451  1.2396
16712TIP3    H271552   4.894   6.249  12.763  1.7461 -1.0821  1.3664
16713TIP3   OH271553   2.435   1.971   2.118  0.0908 -0.1380  0.4316
16713TIP3    H171554   2.454   1.939   2.207  1.0490  0.2471  0.3825
16713TIP3    H271555   2.453   2.065   2.122  1.0191 -0.2573 -0.3783
16714TIP3   OH271556   6.551   6.521   0.825 -0.5661  0.3619 -0.2025
16714TIP3    H171557   6.537   6.588   0.893 -1.1512 -0.0565  0.0941
16714TIP3    H271558   6.630   6.475   0.853 -0.5630  0.4670 -0.0355
16715TIP3   OH271559   4.193   3.902  11.662 -0.1322 -0.1175 -0.6877
16715TIP3    H171560   4.214   3.809  11.662  1.8363  0.2432  1.2369
16715TIP3    H271561   4.143   3.916  11.743  0.3845  0.6218 -0.4797
16716TIP3   OH271562   1.533   5.681  12.674 -0.1738  0.2194  0.8138
16716TIP3    H171563   1.595   5.629  12.623 -0.9956 -1.4079  1.3949
16716TIP3    H271564   1.513   5.756  12.618  1.0609 -0.0669 -0.0602
16717TIP3   OH271565   4.191   4.844  16.916  0.0698  0.3605 -0.1500
16717TIP3    H171566   4.179   4.751  16.935  2.8616 -0.0689  0.0004
16717TIP3    H271567   4.215   4.846  16.824  1.1808  0.7758  0.1356
16718TIP3   OH271568   3.977   2.574   4.489 -0.3193 -0.1670 -0.2099
16718TIP3    H171569   3.906   2.572   4.425  0.6255  1.7842 -1.4037
16718TIP3    H271570   4.029   2.650   4.466  2.2238 -1.5258  0.5764
16719TIP3   OH271571   6.702   0.483   1.160 -0.0791 -0.7387 -0.0255
16719TIP3    H171572   6.716   0.405   1.107  1.0865 -0.9812  0.6075
16719TIP3    H271573   6.790   0.507   1.191 -0.4014  0.8619 -0.2602
16720TIP3   OH271574   3.467   4.684   2.721 -0.1366  0.5594 -0.2474
16720TIP3    H171575   3.466   4.715   2.812  0.5393  1.1633 -0.4339
16720TIP3    H271576   3.381   4.708   2.687  0.0042  1.3432 -0.0816
16721TIP3   OH271577   2.254   6.153  14.884  0.1598 -0.8192 -0.0638
16721TIP3    H171578   2.349   6.155  14.900  0.2818 -2.3792 -0.4339
16721TIP3    H271579   2.218   6.109  14.960 -0.4769  1.0435  0.7690
16722TIP3   OH271580   2.101   0.905  11.713 -0.1454  0.1885  0.1542
16722TIP3    H171581   2.169   0.911  11.780 -1.3623  1.4655  1.3442
16722TIP3    H271582   2.105   0.990  11.669 -0.0856 -0.2401 -0.6902
16723TIP3   OH271583   0.133   0.638   3.484  0.2516  0.2425 -0.0463
16723TIP3    H171584   0.154   0.575   3.415 -0.1251 -0.6257  0.6150
16723TIP3    H271585   0.056   0.602   3.527  0.5201  0.7347  0.8664
16724TIP3   OH271586   2.794   5.584  13.638 -0.2750 -0.5680  0.0379
16724TIP3    H171587   2.813   5.661  13.584  0.3950 -0.3389  0.5840
16724TIP3    H271588   2.736   5.617  13.707  0.7874 -0.3110  0.8422
16725TIP3   OH271589   2.334   6.130  11.179  0.0099 -0.1681 -0.4888
16725TIP3    H171590   2.341   6.108  11.272  1.2333 -0.0263 -0.5281
16725TIP3    H271591   2.409   6.086  11.139  0.3520  0.9972 -1.1676
16726TIP3   OH271592   4.588   3.607  11.551  0.2358  0.0061 -0.5091
16726TIP3    H171593   4.654   3.573  11.611  0.3212  0.3649 -0.3959
16726TIP3    H271594   4.583   3.542  11.482 -0.1821 -0.6310  0.1068
16727TIP3   OH271595   6.192   5.127  16.566 -0.8311  0.0862 -0.0107
16727TIP3    H171596   6.136   5.187  16.615  0.3396  1.2290 -0.0262
16727TIP3    H271597   6.281   5.148  16.594 -0.2703 -0.5386 -1.2213
16728TIP3   OH271598   4.409   3.250  15.063 -0.4555  0.5334 -0.0693
16728TIP3    H171599   4.392   3.193  14.988 -1.7316  1.6740 -0.7025
16728TIP3    H271600   4.362   3.208  15.136  1.7734 -1.2243  0.4621
16729TIP3   OH271601   4.033   2.800  12.633 -0.2339  0.9362 -0.3389
16729TIP3    H171602   4.019   2.848  12.715  2.0187  0.5012  0.3642
16729TIP3    H271603   4.080   2.721  12.659 -2.8794 -1.2277 -1.6122
16730TIP3   OH271604   5.147   0.869   1.226 -0.4434 -0.0188  0.3653
16730TIP3    H171605   5.215   0.828   1.172 -1.3077 -0.5505 -0.3454
16730TIP3    H271606   5.192   0.943   1.267  0.7352 -0.7354  0.4347
16731TIP3   OH271607   0.255   3.746  13.592 -0.2289 -0.5776  0.1771
16731TIP3    H171608   0.312   3.702  13.654 -1.3259 -0.0290  1.6305
16731TIP3    H271609   0.309   3.815  13.554  0.2589 -0.4697  1.0484
16732TIP3   OH271610   4.853   2.636  14.208 -0.3572 -0.0470  0.1344
16732TIP3    H171611   4.929   2.611  14.261  0.0648 -0.3277 -0.5963
16732TIP3    H271612   4.790   2.672  14.272  0.5612  0.6139  0.6916
16733TIP3   OH271613   0.992   0.447  12.402 -0.6051 -0.0138 -1.2156
16733TIP3    H171614   1.033   0.487  12.325 -1.7095 -2.4594 -3.2279
16733TIP3    H271615   0.908   0.491  12.410 -0.2953  0.5696 -1.0767
16734TIP3   OH271616   5.367   4.843  10.839  0.4144 -0.2351  0.4961
16734TIP3    H171617   5.274   4.855  10.824  0.4854  0.0936  0.3236
16734TIP3    H271618   5.393   4.916  10.894  0.7419  0.1517 -0.1558
16735TIP3   OH271619   6.739   4.375   5.561  0.3333  0.0314  0.2125
16735TIP3    H171620   6.723   4.286   5.590  1.2716 -0.1367  0.2539
16735TIP3    H271621   6.756   4.425   5.641 -0.2942  0.2716  0.1987
16736TIP3   OH271622   3.607   5.402  12.185 -0.1406 -0.0108 -0.6230
16736TIP3    H171623   3.690   5.353  12.186  0.1247  0.4349  0.1478
16736TIP3    H271624   3.630   5.488  12.220 -1.0237 -0.0343  0.0517
16737TIP3   OH271625   5.498   0.169   3.531 -0.0291 -0.1821  0.9258
16737TIP3    H171626   5.501   0.166   3.626  0.1349 -1.5746  0.9024
16737TIP3    H271627   5.572   0.115   3.502  1.7933  2.6359 -0.0484
16738TIP3   OH271628   5.052   4.485  11.865  0.0965  0.0555 -0.0500
16738TIP3    H171629   5.085   4.424  11.799  3.2140  0.4959  0.9155
16738TIP3    H271630   5.057   4.435  11.947  1.0318  1.0219  0.5049
16739TIP3   OH271631   3.141   5.307   3.729  0.0983 -0.1446  0.6787
16739TIP3    H171632   3.091   5.389   3.736  0.0735 -0.0981  0.0398
16739TIP3    H271633   3.112   5.255   3.804  0.6398  0.7049  1.4975
16740TIP3   OH271634   6.777   2.746   2.749 -0.6164 -0.3006 -0.0025
16740TIP3    H171635   6.846   2.697   2.793  0.6209 -0.2121 -1.7407
16740TIP3    H271636   6.741   2.803   2.817  0.9208 -0.4677  1.0087
16741TIP3   OH271637   5.243   2.010  13.523 -0.1238 -0.1481 -0.3246
16741TIP3    H171638   5.266   2.101  13.543 -1.7804  0.0775  0.6866
16741TIP3    H271639   5.183   2.016  13.449 -0.7841 -0.3587  0.1876
16742TIP3   OH271640   6.148   6.214  10.746  0.5055 -0.1339 -0.3410
16742TIP3    H171641   6.072   6.239  10.693  0.1398  1.3776  0.8098
16742TIP3    H271642   6.223   6.226  10.688 -0.0546 -1.0576 -1.3022
16743TIP3   OH271643   2.260   6.270   0.258  0.3260 -0.2007 -1.0017
16743TIP3    H171644   2.297   6.339   0.204  1.3611  1.1898  1.3287
16743TIP3    H271645   2.269   6.191   0.206  2.0721  0.9063 -2.4821
16744TIP3   OH271646   5.838   1.088  13.438 -0.0461  0.1100  0.0600
16744TIP3    H171647   5.795   1.158  13.389  0.3853  0.3691  0.0549
16744TIP3    H271648   5.892   1.043  13.373 -0.8000 -0.6206 -0.0762
16745TIP3   OH271649   0.786   2.322  10.493  0.5777 -0.2515  0.4371
16745TIP3    H171650   0.801   2.267  10.571  0.4717 -0.4192  0.3394
16745TIP3    H271651   0.870   2.324  10.448  0.3689 -1.0060  0.0096
16746TIP3   OH271652   5.914   1.422   4.504 -0.2124  0.7872 -0.3853
16746TIP3    H171653   5.932   1.370   4.582  0.9722  1.4750 -0.1632
16746TIP3    H271654   5.869   1.363   4.444 -0.0156 -0.1076  0.3382
16747TIP3   OH271655   3.213   4.780   2.607  0.3798 -0.1927  0.0739
16747TIP3    H171656   3.183   4.763   2.518  0.0103 -0.3394  0.2258
16747TIP3    H271657   3.151   4.734   2.663 -0.6689  1.6131  0.4934
16748TIP3   OH271658   4.158   2.653   0.528 -0.4916 -0.4658 -0.1367
16748TIP3    H171659   4.221   2.704   0.580  0.0022 -0.0076 -1.1574
16748TIP3    H271660   4.190   2.563   0.533 -0.5426 -0.4572  0.4729
16749TIP3   OH271661   2.304   3.757   0.651  0.3018 -0.2459 -0.2968
16749TIP3    H171662   2.218   3.784   0.682  0.5421  1.0552 -0.7155
16749TIP3    H271663   2.364   3.782   0.721  0.5577  0.5675 -0.7941
16750TIP3   OH271664   6.144   2.427  13.195 -0.6310  0.3810  0.6659
16750TIP3    H171665   6.114   2.397  13.281  0.5896  1.7146  1.6089
16750TIP3    H271666   6.071   2.481  13.162 -0.1869  1.8712  1.9933
16751TIP3   OH271667   5.029   1.492   1.333 -0.1839 -0.1490  0.1420
16751TIP3    H171668   4.987   1.410   1.306  2.8119 -0.9767 -2.7023
16751TIP3    H271669   5.034   1.543   1.252  0.1231  1.8894  1.3848
16752TIP3   OH271670   6.310   4.462   5.843 -0.0101  0.6599 -0.2023
16752TIP3    H171671   6.351   4.377   5.830 -0.0533  0.6892 -0.5229
16752TIP3    H271672   6.292   4.466   5.937  0.5387  0.5640 -0.0930
16753TIP3   OH271673   1.754   3.827  15.687  0.5716 -0.1417  0.4585
16753TIP3    H171674   1.742   3.880  15.765  1.2181 -0.5086  0.8137
16753TIP3    H271675   1.763   3.738  15.719 -0.5998 -0.4927 -0.1382
16754TIP3   OH271676   0.248   0.155  16.792  0.4054 -0.0528  0.0473
16754TIP3    H171677   0.203   0.212  16.855  1.1413 -0.2804  0.8063
16754TIP3    H271678   0.333   0.138  16.833  0.8412 -0.3323 -0.9561
16755TIP3   OH271679   5.366   2.889   1.152  0.0864 -0.6465  0.8768
16755TIP3    H171680   5.364   2.826   1.080 -0.0710  0.1249  0.1896
16755TIP3    H271681   5.374   2.835   1.231  4.5854 -1.4628  0.1556
16756TIP3   OH271682   6.516   6.110   0.181 -0.1374 -0.4204 -0.2842
16756TIP3    H171683   6.575   6.047   0.221 -0.4491  0.7436  2.1933
16756TIP3    H271684   6.430   6.089   0.217 -0.3820  0.9066 -0.0303
16757TIP3   OH271685   0.263   1.958   0.933  0.0863  0.2035  0.0707
16757TIP3    H171686   0.283   1.999   1.017 -2.4010  1.3731  0.1802
16757TIP3    H271687   0.348   1.934   0.897  1.3525  1.5359  1.9928
16758TIP3   OH271688   3.278   5.882  15.889 -0.4268 -0.2359 -0.6796
16758TIP3    H171689   3.236   5.837  15.816 -3.9905  0.3913  0.7917
16758TIP3    H271690   3.216   5.950  15.915  1.9842  1.4455  1.1732
16759TIP3   OH271691   4.443   3.078  14.364 -0.0268 -0.2096  0.4246
16759TIP3    H171692   4.362   3.037  14.334 -0.7368  0.8849  0.8017
16759TIP3    H271693   4.439   3.073  14.459 -0.6877  1.7127  0.5408
16760TIP3   OH271694   2.988   5.743   5.254 -0.0560  0.5514 -0.5705
16760TIP3    H171695   3.045   5.719   5.327  1.8623  0.6843 -1.9491
16760TIP3    H271696   2.922   5.800   5.294 -1.6351 -2.6380  1.7905
16761TIP3   OH271697   4.329   5.429  10.547  0.8095  0.0351  0.1037
16761TIP3    H171698   4.410   5.478  10.535  0.7832 -0.1437 -0.9421
16761TIP3    H271699   4.300   5.409  10.458  1.0502 -2.2476  0.4661
16762TIP3   OH271700   2.380   3.152   4.738 -1.2209  0.4135 -0.4870
16762TIP3    H171701   2.303   3.095   4.737 -0.5995 -0.4922  0.6500
16762TIP3    H271702   2.442   3.108   4.680 -1.4291  0.9629 -1.1327
16763TIP3   OH271703   6.538   3.504   1.156  0.5905  0.3753  0.5608
16763TIP3    H171704   6.619   3.519   1.204  0.4187  0.4201  0.8374
16763TIP3    H271705   6.507   3.420   1.187  1.2481 -0.3036 -0.5610
16764TIP3   OH271706   3.615   6.393  14.627 -0.1784  0.5599 -0.2269
16764TIP3    H171707   3.571   6.321  14.672  0.4159  1.0627  1.2267
16764TIP3    H271708   3.683   6.421  14.688  1.3642  0.6023 -1.8834
16765TIP3   OH271709   0.780   4.777   4.429  0.1259  0.1677 -0.0496
16765TIP3    H171710   0.817   4.863   4.446  0.4003 -0.0176  0.3253
16765TIP3    H271711   0.691   4.794   4.398 -0.5478  0.5320  1.9490
16766TIP3   OH271712   3.377   6.458  15.544  0.0219 -0.8789 -0.1865
16766TIP3    H171713   3.384   6.484  15.452 -1.5600  2.4773  0.4945
16766TIP3    H271714   3.442   6.511  15.589  0.5358 -2.2347  0.7275
16767TIP3   OH271715   5.100   4.272   3.953 -0.1961  0.0408 -0.7500
16767TIP3    H171716   5.052   4.334   4.008  0.8455  0.4278 -0.2500
16767TIP3    H271717   5.070   4.186   3.983  1.2081  0.1998  1.2826
16768TIP3   OH271718   2.816   2.719   5.611 -0.0114  0.0220 -0.1004
16768TIP3    H171719   2.847   2.635   5.645  1.4087  0.9237  0.9539
16768TIP3    H271720   2.887   2.780   5.630 -0.9586  1.4520 -0.9480
16769TIP3   OH271721   3.850   2.505  14.802 -0.0462  0.3108 -0.0397
16769TIP3    H171722   3.793   2.500  14.878  1.0774  1.2913  0.9100
16769TIP3    H271723   3.820   2.435  14.744 -1.1926 -0.1818  1.1155
16770TIP3   OH271724   0.588   5.134  16.725  0.3500 -0.1234  0.4306
16770TIP3    H171725   0.567   5.218  16.766 -1.5481 -0.5631  0.4678
16770TIP3    H271726   0.627   5.082  16.795 -0.9699 -0.1663  1.1671
16771TIP3   OH271727   4.432   0.671  11.547 -0.8301 -0.1264  0.0953
16771TIP3    H171728   4.411   0.698  11.458  0.5691  3.5649  0.7071
16771TIP3    H271729   4.527   0.654  11.545 -0.8868 -0.5639  0.7836
16772TIP3   OH271730   1.929   2.142  10.996  0.3534 -0.4563  0.1334
16772TIP3    H171731   1.926   2.088  11.075 -0.1432 -0.0490  0.4038
16772TIP3    H271732   2.018   2.177  10.994  0.4794 -0.7600  0.3144
16773TIP3   OH271733   6.105   5.757  16.512 -0.1458  0.5381  0.0881
16773TIP3    H171734   6.044   5.780  16.582 -1.3505  0.2685 -0.8430
16773TIP3    H271735   6.106   5.661  16.512 -1.5986  0.4841 -1.4287
16774TIP3   OH271736   2.045   4.632   5.140  0.4204 -0.0111 -0.3840
16774TIP3    H171737   2.092   4.617   5.058  2.5965  0.4072  0.7086
16774TIP3    H271738   2.104   4.600   5.208 -1.7317 -1.2311  1.0189
16775TIP3   OH271739   4.575   4.942  13.409  0.0250 -0.1012  0.1214
16775TIP3    H171740   4.500   4.946  13.350  0.8984  1.9988 -0.9377
16775TIP3    H271741   4.618   5.027  13.400  2.4747 -1.1686  0.7785
16776TIP3   OH271742   4.911   5.292  13.227  0.1436 -0.6417 -0.5480
16776TIP3    H171743   4.941   5.380  13.249  1.1780 -0.9592 -0.6504
16776TIP3    H271744   4.816   5.297  13.234 -0.0727  1.2310 -3.1662
16777TIP3   OH271745   0.863   1.201   1.399  0.4927 -0.3312  0.0525
16777TIP3    H171746   0.881   1.177   1.490 -1.2387 -0.8284  0.2947
16777TIP3    H271747   0.921   1.275   1.382  0.0513  0.5073  1.9373
16778TIP3   OH271748   3.764   2.919   3.025  0.2555  0.9131  0.4298
16778TIP3    H171749   3.821   2.870   2.966  0.9712  0.0476  1.7868
16778TIP3    H271750   3.786   3.011   3.009  1.4946  0.6245  0.3940
16779TIP3   OH271751   3.823   1.657  14.510  0.5478 -0.2427 -0.7813
16779TIP3    H171752   3.869   1.660  14.426  1.5700  1.3293 -0.2233
16779TIP3    H271753   3.816   1.749  14.537 -2.4267 -0.4406 -0.5213
16780TIP3   OH271754   3.578   4.629  13.714  0.0166  1.2468 -0.2127
16780TIP3    H171755   3.535   4.615  13.629  0.5879 -2.0435 -0.0853
16780TIP3    H271756   3.508   4.616  13.779  0.4234 -0.7337 -0.1120
16781TIP3   OH271757   3.900   3.210   5.494  0.0674 -0.0149 -0.2394
16781TIP3    H171758   3.966   3.279   5.488  1.4171 -1.1105  1.2119
16781TIP3    H271759   3.869   3.214   5.584 -0.9711 -0.3357 -0.5628
16782TIP3   OH271760   2.030   0.373   5.847  0.2855 -0.2922 -0.5032
16782TIP3    H171761   2.084   0.379   5.925 -0.7807 -1.9626  0.4186
16782TIP3    H271762   1.949   0.420   5.869 -0.1534 -1.0473 -0.4451
16783TIP3   OH271763   2.112   3.518   0.685 -0.3411  0.0054  0.0786
16783TIP3    H171764   2.188   3.576   0.686 -0.1224 -0.2490 -1.0620
16783TIP3    H271765   2.039   3.574   0.710  0.1849  0.2866  1.0433
16784TIP3   OH271766   5.031   2.465  14.926 -0.1658 -0.3574 -0.1890
16784TIP3    H171767   4.975   2.388  14.941 -0.5287  0.1522  1.2463
16784TIP3    H271768   5.119   2.436  14.949 -0.2127 -0.5002 -0.1884
16785TIP3   OH271769   2.018   5.606   4.949 -0.2155  0.4505  0.0571
16785TIP3    H171770   2.094   5.660   4.969 -0.4147  1.4552 -1.7684
16785TIP3    H271771   1.950   5.638   5.008 -0.5229  2.7203 -1.4249
16786TIP3   OH271772   4.490   0.237  12.956 -0.0766  0.3223  0.2044
16786TIP3    H171773   4.474   0.315  13.009 -1.6797  0.6803 -0.7158
16786TIP3    H271774   4.478   0.267  12.866 -0.2785 -0.8952 -0.1952
16787TIP3   OH271775   3.580   0.299   1.979 -0.0570  0.5441  0.5165
16787TIP3    H171776   3.506   0.265   1.928  0.4075  1.7405 -1.0193
16787TIP3    H271777   3.539   0.346   2.052 -0.7996  0.8742 -0.0997
16788TIP3   OH271778   6.180   3.492  16.859  0.1198 -0.0829  0.1586
16788TIP3    H171779   6.217   3.404  16.863  1.1137  0.3066 -0.1269
16788TIP3    H271780   6.237   3.545  16.914 -0.0520  0.5245 -0.2332
16789TIP3   OH271781   2.618   3.377   4.752  0.3292  0.5076  0.0748
16789TIP3    H171782   2.632   3.433   4.676 -0.1724  3.3771  1.9471
16789TIP3    H271783   2.540   3.326   4.732  1.0372  0.0935 -1.8485
16790TIP3   OH271784   2.785   4.263  16.463 -0.2782  0.0089  0.5164
16790TIP3    H171785   2.778   4.346  16.415  0.5441  0.5931  1.3546
16790TIP3    H271786   2.717   4.270  16.531 -0.2812 -0.0458  0.5193
16791TIP3   OH271787   3.899   4.370   0.266 -0.2840 -0.6015 -0.1595
16791TIP3    H171788   3.841   4.435   0.227 -0.2078 -0.7954 -0.6053
16791TIP3    H271789   3.880   4.374   0.359 -1.4490 -1.0969 -0.3604
16792TIP3   OH271790   4.974   5.850   4.511  0.4125  0.8502  0.2193
16792TIP3    H171791   5.044   5.785   4.523  0.9667  1.7345  2.0975
16792TIP3    H271792   4.909   5.804   4.458  2.0894 -0.2203 -1.0573
16793TIP3   OH271793   2.422   5.571  15.643 -0.1396  0.4472 -0.3370
16793TIP3    H171794   2.341   5.558  15.595  0.6389 -1.4631 -1.2159
16793TIP3    H271795   2.456   5.656  15.613 -0.9622  0.4720 -1.2032
16794TIP3   OH271796   3.356   2.581   1.656 -0.5415  0.1247  0.2643
16794TIP3    H171797   3.355   2.643   1.584 -2.6440  0.1912  0.2957
16794TIP3    H271798   3.434   2.604   1.707  0.0895  1.0853 -1.1034
16795TIP3   OH271799   0.122   3.836   0.156  0.0129  0.1296  0.2986
16795TIP3    H171800   0.029   3.818   0.170 -0.4094  2.3343  0.7253
16795TIP3    H271801   0.143   3.906   0.218  1.5011  0.9088 -0.9941
16796TIP3   OH271802   5.812   2.881   5.991 -0.0731  0.5306  0.0747
16796TIP3    H171803   5.768   2.829   6.058 -2.2230  0.5107 -1.2609
16796TIP3    H271804   5.753   2.954   5.973  0.1924  0.2996 -2.0891
16797TIP3   OH271805   5.931   1.300  12.711 -0.6773  0.3027  0.0309
16797TIP3    H171806   5.985   1.377  12.693 -0.8419  0.7935  1.5055
16797TIP3    H271807   5.877   1.325  12.786 -1.2412 -1.0106  0.0949
16798TIP3   OH271808   4.884   4.893   5.548  0.2306 -0.0007 -0.7685
16798TIP3    H171809   4.807   4.885   5.492 -0.3618  0.5279 -0.0455
16798TIP3    H271810   4.933   4.812   5.533 -1.4584 -1.2633  0.2361
16799TIP3   OH271811   4.065   3.550   5.140 -0.1094  0.0817 -0.1827
16799TIP3    H171812   4.115   3.555   5.059  0.5112 -0.5585  0.1524
16799TIP3    H271813   3.985   3.503   5.117 -0.1773  0.3662 -0.5344
16800TIP3   OH271814   1.600   3.887   3.778  0.2335 -0.2028 -0.5467
16800TIP3    H171815   1.506   3.875   3.761  0.0137  0.1672  0.3524
16800TIP3    H271816   1.604   3.927   3.865  1.2470 -0.6053 -0.3936
16801TIP3   OH271817   6.171   3.947   1.005 -0.6659 -0.9309 -0.1597
16801TIP3    H171818   6.161   3.857   1.038 -2.8734 -0.5282  0.3810
16801TIP3    H271819   6.107   3.955   0.935  0.2796 -0.0902 -0.9631
16802TIP3   OH271820   2.918   3.887  13.423 -0.2245 -0.2010  0.0944
16802TIP3    H171821   2.846   3.938  13.460  0.3343  0.1313  0.7415
16802TIP3    H271822   2.996   3.939  13.440  0.2823 -0.9746  0.2212
16803TIP3   OH271823   6.019   0.762   0.959  0.2202  0.1857 -0.4569
16803TIP3    H171824   5.997   0.773   0.866  1.3913 -0.6576 -0.8584
16803TIP3    H271825   6.074   0.684   0.961 -0.5707 -0.3479  1.0914
16804TIP3   OH271826   5.775   5.014   3.782 -0.2099  0.0937  0.9426
16804TIP3    H171827   5.848   4.981   3.730 -0.2431  3.2619 -1.4574
16804TIP3    H271828   5.696   4.984   3.736 -0.2949  0.3385  0.9219
16805TIP3   OH271829   2.636   3.620  12.986 -0.6174  0.3876 -0.5653
16805TIP3    H171830   2.563   3.578  12.940 -0.1360 -0.8630 -0.2376
16805TIP3    H271831   2.609   3.623  13.077  0.0180 -0.7975 -0.3105
16806TIP3   OH271832   3.547   1.509   0.616 -0.0935 -0.0278 -0.0251
16806TIP3    H171833   3.588   1.442   0.670  1.1255 -0.5747 -1.5659
16806TIP3    H271834   3.594   1.590   0.639  2.1629 -0.6976 -1.9798
16807TIP3   OH271835   0.955   0.121   4.318 -0.2959 -0.1235 -0.4033
16807TIP3    H171836   0.923   0.183   4.253 -0.1856  0.3813  0.0169
16807TIP3    H271837   0.888   0.122   4.387 -0.3042 -0.4892 -0.4043
16808TIP3   OH271838   0.552   0.401   0.066 -0.0874 -0.2215  0.4939
16808TIP3    H171839   0.571   0.476   0.123 -0.7430  0.0748  0.3210
16808TIP3    H271840   0.636   0.382   0.023 -0.1864  1.1875 -0.3877
16809TIP3   OH271841   5.987   2.200   6.005  0.5626 -0.7741 -0.3527
16809TIP3    H171842   5.975   2.198   5.910  2.2031  2.4285 -0.7667
16809TIP3    H271843   5.930   2.271   6.035  1.8751 -0.0972  0.6545
16810TIP3   OH271844   2.877   5.285  12.570  0.2096 -0.1747 -0.4242
16810TIP3    H171845   2.922   5.201  12.571  0.1252 -0.2526  1.6892
16810TIP3    H271846   2.784   5.264  12.578  0.1523  0.1034 -0.3285
16811TIP3   OH271847   5.322   4.872  15.055 -0.0529 -0.4410  0.5017
16811TIP3    H171848   5.351   4.936  15.121 -0.5828  0.3126  0.0255
16811TIP3    H271849   5.255   4.919  15.005  0.3920 -0.9847 -0.6194
16812TIP3   OH271850   6.701   4.048  17.052  0.3518  0.3226 -0.4109
16812TIP3    H171851   6.771   4.095  17.098  0.1026 -0.6545  1.0345
16812TIP3    H271852   6.638   4.025  17.121  0.5764 -2.3201 -0.9687
16813TIP3   OH271853   5.583   3.837  11.920  0.2371 -0.4471 -0.1600
16813TIP3    H171854   5.514   3.901  11.905  0.3432 -0.2796  0.0620
16813TIP3    H271855   5.646   3.882  11.976  0.9718 -0.2797 -1.0811
16814TIP3   OH271856   3.297   1.950   0.990  0.0587  1.0608  0.0599
16814TIP3    H171857   3.392   1.952   0.981  0.1714  0.9503  1.0605
16814TIP3    H271858   3.265   1.912   0.909  1.1295 -2.8903  1.2921
16815TIP3   OH271859   0.940   0.695   1.533  0.0218 -0.3058 -0.1538
16815TIP3    H171860   1.029   0.681   1.500  0.4056  1.1980  0.1693
16815TIP3    H271861   0.894   0.739   1.461 -0.2386 -0.3744 -0.0321
16816TIP3   OH271862   4.728   3.125  12.727 -0.6150 -0.2159  0.5283
16816TIP3    H171863   4.658   3.155  12.785  0.9060 -1.3743  3.1321
16816TIP3    H271864   4.781   3.067  12.781  1.9049 -0.0543 -1.5591
16817TIP3   OH271865   2.763   5.417  14.513 -0.1570  0.6585  0.5427
16817TIP3    H171866   2.737   5.443  14.425 -0.9818  0.8078  0.8174
16817TIP3    H271867   2.707   5.343  14.533 -0.4346  1.0328  1.1826
16818TIP3   OH271868   3.677   0.236  11.525  0.3917 -0.5605 -0.0834
16818TIP3    H171869   3.587   0.203  11.527 -0.0830  0.6684 -0.3282
16818TIP3    H271870   3.710   0.222  11.614 -1.2332  2.1102  1.0416
16819TIP3   OH271871   2.736   1.934   3.668  0.7413  0.2321  0.2860
16819TIP3    H171872   2.703   1.854   3.627 -0.2905 -0.1158  1.7366
16819TIP3    H271873   2.831   1.922   3.672  0.5147 -1.3721  1.4006
16820TIP3   OH271874   6.691   6.687  15.208 -0.0469  0.1425  0.2763
16820TIP3    H171875   6.683   6.604  15.161  0.8351 -0.4153  1.0935
16820TIP3    H271876   6.714   6.751  15.140  0.3412 -0.4809 -0.1826
16821TIP3   OH271877   3.917   6.549   3.196 -0.1021  0.1675  0.2819
16821TIP3    H171878   3.835   6.530   3.151  0.1507 -1.2337  0.3812
16821TIP3    H271879   3.896   6.540   3.289  0.0813  0.1537  0.3233
16822TIP3   OH271880   0.037   2.434  11.218 -0.0695  0.3852 -0.1880
16822TIP3    H171881   0.116   2.380  11.209 -0.0870  0.4229 -0.6038
16822TIP3    H271882   0.018   2.464  11.129 -1.8167 -1.4087 -0.5016
16823TIP3   OH271883   5.337   0.590  11.413 -0.1623  0.1742  0.6851
16823TIP3    H171884   5.246   0.609  11.433 -0.6633 -1.4440  0.0327
16823TIP3    H271885   5.336   0.557  11.323  0.9933 -0.3342  0.8413
16824TIP3   OH271886   5.150   2.588   0.017  0.0032 -0.3787  0.1288
16824TIP3    H171887   5.226   2.543   0.052  0.3356 -1.5910 -1.9616
16824TIP3    H271888   5.185   2.645  -0.052 -0.8638 -0.0069 -0.0234
16825TIP3   OH271889   2.552   2.085  11.106  0.1412 -0.0135 -0.0840
16825TIP3    H171890   2.525   1.996  11.085 -0.0178  0.1040 -0.3844
16825TIP3    H271891   2.534   2.135  11.026 -0.9357  0.5469  0.4854
16826TIP3   OH271892   0.108   6.430   2.490  0.5510 -0.1267 -0.2389
16826TIP3    H171893   0.075   6.501   2.436 -1.1309  0.1988  1.1205
16826TIP3    H271894   0.058   6.353   2.462  0.1448 -0.0935  0.3602
16827TIP3   OH271895   4.172   4.075   2.063  0.0343  0.2048 -0.0493
16827TIP3    H171896   4.266   4.094   2.063  0.0835  0.0333 -1.2494
16827TIP3    H271897   4.134   4.146   2.115  0.9285 -0.3789  1.4537
16828TIP3   OH271898   5.790   4.731   3.124 -0.2517  0.2560  0.5226
16828TIP3    H171899   5.778   4.757   3.032  0.5653 -1.1982 -0.0391
16828TIP3    H271900   5.710   4.682   3.145 -1.0708  1.7844  1.0646
16829TIP3   OH271901   2.429   1.003   5.860 -0.2496 -0.1584  0.1149
16829TIP3    H171902   2.343   0.970   5.835 -0.0175 -1.0887  0.4840
16829TIP3    H271903   2.412   1.064   5.931 -0.5702 -0.7553  0.5574
16830TIP3   OH271904   5.554   4.974   3.986 -0.5385  0.0213  0.6241
16830TIP3    H171905   5.580   4.883   4.005  3.5161  0.7365 -0.5313
16830TIP3    H271906   5.529   4.972   3.893  2.7618  0.4787 -0.3994
16831TIP3   OH271907   3.800   1.201  14.811  0.1821  0.0547  0.0395
16831TIP3    H171908   3.797   1.249  14.729  0.7253 -1.4899 -0.9213
16831TIP3    H271909   3.803   1.269  14.878  1.4828  1.3924 -1.2849
16832TIP3   OH271910   5.506   2.962   2.136  0.7273  0.3719  0.6376
16832TIP3    H171911   5.563   2.920   2.072 -0.2745  0.0589 -0.0771
16832TIP3    H271912   5.537   3.053   2.140  0.2900  0.6160 -0.9389
16833TIP3   OH271913   4.757   6.302  13.541 -0.0664 -0.0550 -0.2125
16833TIP3    H171914   4.758   6.398  13.547 -1.6539 -0.0570  0.4914
16833TIP3    H271915   4.837   6.281  13.492  0.9290  1.5406  0.6220
16834TIP3   OH271916   2.723   4.691  14.965 -0.4541  0.1346 -0.3051
16834TIP3    H171917   2.682   4.606  14.981 -0.7594  0.7662  2.9810
16834TIP3    H271918   2.816   4.671  14.954 -0.6971 -0.6981 -0.9721
16835TIP3   OH271919   5.414   5.314  14.764  0.4052  0.6056  0.3938
16835TIP3    H171920   5.329   5.356  14.776 -0.9705 -1.5985 -0.8143
16835TIP3    H271921   5.431   5.269  14.847  0.0502  0.5095  0.4159
16836TIP3   OH271922   4.326   2.589  16.630  0.1346  0.3448 -0.2778
16836TIP3    H171923   4.292   2.674  16.605  1.8706  1.0825 -0.2894
16836TIP3    H271924   4.387   2.607  16.702 -0.1279 -0.9977  0.3218
16837TIP3   OH271925   1.271   0.667   2.251 -0.2448  0.8141  0.3836
16837TIP3    H171926   1.182   0.682   2.220  0.2537  0.8071 -1.1451
16837TIP3    H271927   1.312   0.615   2.182  0.7645  0.2656  1.3523
16838TIP3   OH271928   4.619   0.243   3.267  0.1083  0.1981  0.4188
16838TIP3    H171929   4.597   0.164   3.216  0.6163 -0.1971  0.8018
16838TIP3    H271930   4.547   0.303   3.250 -0.0129 -0.1438 -0.3174
16839TIP3   OH271931   3.822   4.129  12.464  0.1362 -0.1850  0.2645
16839TIP3    H171932   3.731   4.110  12.439 -0.1826  2.6818 -1.1877
16839TIP3    H271933   3.875   4.095  12.392  0.1591 -1.1144  0.7115
16840TIP3   OH271934   0.450   6.532  14.888  0.3396  0.6206  0.5679
16840TIP3    H171935   0.535   6.503  14.854 -0.1160 -1.6212  1.1554
16840TIP3    H271936   0.466   6.550  14.981  0.5438  2.0107  0.2789
16841TIP3   OH271937   1.655   5.004  16.361 -0.6178  0.0372 -0.4330
16841TIP3    H171938   1.732   5.060  16.373 -2.2878  2.3893 -0.0382
16841TIP3    H271939   1.683   4.918  16.393  1.2581  1.2772  1.5393
16842TIP3   OH271940   6.030   3.261   1.958 -0.1816 -0.9241  0.0323
16842TIP3    H171941   5.968   3.190   1.976 -1.9586  0.5446 -0.0617
16842TIP3    H271942   6.102   3.246   2.021 -1.2052 -1.9610  1.0041
16843TIP3   OH271943   5.990   0.721  10.800  0.6898  0.5881 -0.4921
16843TIP3    H171944   6.057   0.653  10.812  0.4140  0.4878  0.6478
16843TIP3    H271945   5.943   0.695  10.721  0.6440 -0.5158 -0.1288
16844TIP3   OH271946   5.279   6.450   0.669  0.2245  0.2588  0.1096
16844TIP3    H171947   5.367   6.419   0.692  0.5820  0.6366 -0.6878
16844TIP3    H271948   5.238   6.376   0.626 -0.3719 -0.3803  1.7025
16845TIP3   OH271949   4.147   0.467   3.174  0.8498 -0.3298  0.5189
16845TIP3    H171950   4.124   0.476   3.081  1.4129 -2.3249  0.1277
16845TIP3    H271951   4.068   0.494   3.221 -1.7663 -4.7580 -0.6990
16846TIP3   OH271952   0.081   0.842   5.688  0.0919 -0.2846  0.2756
16846TIP3    H171953   0.116   0.775   5.746 -0.3637 -0.6967  0.0833
16846TIP3    H271954  -0.007   0.860   5.722  0.0114 -0.1665  0.0086
16847TIP3   OH271955   6.368   2.967   1.691  0.1361 -0.0137  0.3289
16847TIP3    H171956   6.302   2.899   1.707  0.0521  0.1434  0.6853
16847TIP3    H271957   6.317   3.048   1.685  0.2350  0.0181 -0.0984
16848TIP3   OH271958   0.161   6.205  15.110 -0.3182 -0.5299 -0.5760
16848TIP3    H171959   0.219   6.176  15.180 -1.4553 -4.2459 -0.9723
16848TIP3    H271960   0.220   6.224  15.036  0.5869 -1.2982 -0.0750
16849TIP3   OH271961   5.984   5.139  13.805  0.0258 -0.1427  0.3347
16849TIP3    H171962   6.061   5.095  13.770 -1.0994 -2.3338  0.4231
16849TIP3    H271963   5.996   5.139  13.900  0.7431  1.2430  0.2739
16850TIP3   OH271964   6.737   4.010   3.410  0.5294  0.6463 -1.1280
16850TIP3    H171965   6.794   3.934   3.424  0.6667  0.7701 -1.0087
16850TIP3    H271966   6.666   3.998   3.473  1.0237  1.0806 -0.4699
16851TIP3   OH271967   3.542   6.787   3.078  0.1123 -0.0062  0.6416
16851TIP3    H171968   3.521   6.825   2.992 -0.3129 -0.4966  0.5233
16851TIP3    H271969   3.638   6.790   3.082  0.3935 -2.8017 -1.2094
16852TIP3   OH271970   2.707   0.581  13.292 -0.5211  0.5026 -0.3633
16852TIP3    H171971   2.631   0.570  13.234  0.2021 -1.4612 -1.0265
16852TIP3    H271972   2.764   0.642  13.246 -1.5025  1.6857 -0.0414
16853TIP3   OH271973   2.684   3.777  13.690 -0.4981 -0.6222 -0.0792
16853TIP3    H171974   2.656   3.708  13.749 -0.6241 -1.6198 -1.2544
16853TIP3    H271975   2.618   3.778  13.621 -1.1921  1.5350  0.5132
16854TIP3   OH271976   5.668   2.682   2.301  0.0790 -0.2059  0.3019
16854TIP3    H171977   5.666   2.648   2.211  1.4698  1.0064 -0.2346
16854TIP3    H271978   5.580   2.666   2.335 -1.5406  2.1712 -2.3714
16855TIP3   OH271979   1.944   1.463  15.844  0.1734 -0.8142 -0.3771
16855TIP3    H171980   2.022   1.505  15.806  2.8831 -2.7535  2.4821
16855TIP3    H271981   1.969   1.371  15.853 -1.6004 -1.1260  2.5471
16856TIP3   OH271982   6.190   3.521   4.678  0.4355  0.0743 -0.5949
16856TIP3    H171983   6.202   3.533   4.584 -1.2716  0.9667 -0.7416
16856TIP3    H271984   6.245   3.589   4.718  0.3421  0.3937 -0.9977
16857TIP3   OH271985   3.309   5.618   5.155  0.0488  0.0483  0.2003
16857TIP3    H171986   3.327   5.696   5.102 -0.9269  0.1174 -0.0501
16857TIP3    H271987   3.391   5.570   5.157  0.9349  1.5283  1.1008
16858TIP3   OH271988   1.820   4.486  16.513  0.1836 -0.3567  0.1673
16858TIP3    H171989   1.916   4.487  16.510  0.3033  2.9073  0.9355
16858TIP3    H271990   1.798   4.510  16.603 -1.3214  0.2933 -0.3357
16859TIP3   OH271991   2.373   1.765   1.208 -0.2398  0.7369 -0.3893
16859TIP3    H171992   2.393   1.709   1.284 -2.4008 -0.2295 -0.4802
16859TIP3    H271993   2.280   1.754   1.193 -0.3873  2.9714 -1.5964
16860TIP3   OH271994   5.529   6.648  12.946 -0.2795  1.2782 -0.5206
16860TIP3    H171995   5.557   6.588  13.015 -0.0836  1.4504 -0.4497
16860TIP3    H271996   5.496   6.724  12.992 -3.7180 -0.0711 -0.4820
16861TIP3   OH271997   2.741   6.242   0.194  0.3709  0.0422  0.1884
16861TIP3    H171998   2.810   6.198   0.244 -0.5783 -0.1914  1.3227
16861TIP3    H271999   2.672   6.260   0.258  0.1049  1.8861 -0.5378
16862TIP3   OH272000   4.080   6.010  13.172 -0.7773 -0.0951 -0.1436
16862TIP3    H172001   4.007   5.982  13.227  0.1860 -1.5493  0.4703
16862TIP3    H272002   4.040   6.036  13.089 -2.0490 -0.0843  0.4493
16863TIP3   OH272003   1.511   4.238  15.522  0.9289  0.0762 -0.2795
16863TIP3    H172004   1.522   4.197  15.608 -1.5815 -1.6561 -0.6804
16863TIP3    H272005   1.563   4.184  15.463  0.5884 -0.2941 -0.2414
16864TIP3   OH272006   5.108   5.718  12.751 -0.3173 -0.0957 -0.0308
16864TIP3    H172007   5.117   5.797  12.697 -0.5107  0.4166  0.6683
16864TIP3    H272008   5.107   5.751  12.841 -0.4099 -0.8997  0.2680
16865TIP3   OH272009   0.073   5.428  16.146  0.3743  0.1195 -0.0383
16865TIP3    H172010   0.039   5.405  16.060 -1.6285 -0.3698  0.8213
16865TIP3    H272011   0.068   5.347  16.196 -1.7279  1.0935  1.4818
16866TIP3   OH272012   0.632   5.068  12.761  0.0240  0.3194 -0.7343
16866TIP3    H172013   0.589   5.140  12.716 -0.5687  0.1546 -0.4418
16866TIP3    H272014   0.660   5.009  12.691 -1.0271 -0.0163 -0.8911
16867TIP3   OH272015   6.414   0.046   1.496  0.4431 -0.0053 -0.0845
16867TIP3    H172016   6.361   0.105   1.442 -2.5334 -1.9133  0.5705
16867TIP3    H272017   6.411  -0.038   1.450  2.3869 -0.3695  0.3563
16868TIP3   OH272018   5.511   4.471  15.767 -0.3018 -0.8538  0.2855
16868TIP3    H172019   5.450   4.535  15.804 -0.4489 -0.5293 -0.4928
16868TIP3    H272020   5.561   4.520  15.701  0.3249 -1.2827  0.4307
16869TIP3   OH272021   2.529   1.538  14.775 -0.0540 -0.1914 -0.3380
16869TIP3    H172022   2.617   1.512  14.748  0.2851 -1.5786  1.8124
16869TIP3    H272023   2.471   1.483  14.722  0.4609 -0.8350 -0.2468
16870TIP3   OH272024   4.825   2.430  14.465  0.2930 -0.3026  0.1719
16870TIP3    H172025   4.906   2.417  14.514  0.6839 -1.3215 -0.7097
16870TIP3    H272026   4.846   2.402  14.376 -0.6587  0.6693 -0.3825
16871TIP3   OH272027   4.167   1.233   5.214  0.2060 -0.2440  0.2354
16871TIP3    H172028   4.178   1.248   5.308 -0.3327  0.1820  0.2340
16871TIP3    H272029   4.073   1.239   5.199  0.3335  0.2697 -0.4287
16872TIP3   OH272030   4.237   2.607  14.145 -0.5372 -0.6566  0.0013
16872TIP3    H172031   4.162   2.660  14.117  0.0848  1.0630  1.4367
16872TIP3    H272032   4.306   2.630  14.083 -0.0281  0.9212  1.0868
16873TIP3   OH272033   6.161   4.293  12.788  0.0339 -0.2441 -0.6939
16873TIP3    H172034   6.099   4.224  12.811 -0.7182  0.0306 -1.8484
16873TIP3    H272035   6.112   4.374  12.803 -0.5940 -0.0417 -3.4006
16874TIP3   OH272036   0.983   2.502   1.280  0.1128 -0.0144 -0.1822
16874TIP3    H172037   1.039   2.429   1.254  0.7460  0.3761  0.0540
16874TIP3    H272038   1.033   2.580   1.257 -1.1124  0.3806 -1.6299
16875TIP3   OH272039   1.379   5.318   1.337  0.2414  0.0356  0.0782
16875TIP3    H172040   1.377   5.407   1.374  2.0556 -0.2509  0.9692
16875TIP3    H272041   1.420   5.265   1.405  1.2424 -1.0510 -1.3165
16876TIP3   OH272042   2.043   3.595  14.216  0.1067 -0.2587 -0.2488
16876TIP3    H172043   2.124   3.576  14.169  0.7065  1.6187 -0.0417
16876TIP3    H272044   2.000   3.509  14.225  2.3779 -1.4219  0.2607
16877TIP3   OH272045   4.553   5.202  13.789 -0.0310 -0.3335  0.0001
16877TIP3    H172046   4.613   5.246  13.849 -0.1202 -0.6283  0.3101
16877TIP3    H272047   4.609   5.171  13.718  0.0699  0.0446 -0.0891
16878TIP3   OH272048   4.455   3.058   0.717  0.0833 -0.0065  0.0435
16878TIP3    H172049   4.498   3.093   0.795  0.7418 -1.6457  0.4617
16878TIP3    H272050   4.436   3.135   0.663  0.2051  1.0937  1.5211
16879TIP3   OH272051   0.512   1.270   0.990  0.0551 -0.1179  1.0106
16879TIP3    H172052   0.536   1.260   1.082  0.0400  0.7010  1.1096
16879TIP3    H272053   0.475   1.358   0.984 -1.5506 -0.7867  0.5663
16880TIP3   OH272054   1.874   2.248  11.768 -0.1565  0.3802 -0.0527
16880TIP3    H172055   1.791   2.200  11.774 -0.4105  0.9280  1.1539
16880TIP3    H272056   1.848   2.339  11.760  0.2749  0.8000  2.4916
16881TIP3   OH272057   5.166   5.812   0.172  0.7855 -0.4085 -0.4412
16881TIP3    H172058   5.152   5.859   0.254 -0.7438  0.0390 -0.9272
16881TIP3    H272059   5.196   5.725   0.199 -0.5034 -0.5392  0.6449
16882TIP3   OH272060   2.090   3.313  14.231 -0.3303 -0.4155 -0.0775
16882TIP3    H172061   2.154   3.306  14.301 -0.0087  1.9934 -0.0343
16882TIP3    H272062   2.013   3.267  14.263  0.6915 -1.6092  0.7197
16883TIP3   OH272063   3.800   2.953   0.825 -0.4450  0.1767 -0.2634
16883TIP3    H172064   3.878   2.912   0.786 -0.9905 -1.5443  0.3660
16883TIP3    H272065   3.819   3.046   0.823  1.3813 -0.1587 -0.6966
16884TIP3   OH272066   4.425   4.905  11.611  0.1198  0.1580  0.2384
16884TIP3    H172067   4.462   4.925  11.525  2.2886 -0.3262  0.9998
16884TIP3    H272068   4.354   4.844  11.593 -1.1224  1.9439 -1.3763
16885TIP3   OH272069   3.096   0.303   3.924  0.4649  0.4144 -0.0197
16885TIP3    H172070   3.044   0.376   3.891 -1.7427 -0.4398  1.3215
16885TIP3    H272071   3.072   0.296   4.016  1.6831 -1.1148  0.2254
16886TIP3   OH272072   4.647   1.298   5.537  0.8814  0.5994  0.0172
16886TIP3    H172073   4.659   1.393   5.530 -1.2841  1.1676  2.2906
16886TIP3    H272074   4.565   1.289   5.585  1.6961 -2.4336  1.0106
16887TIP3   OH272075   4.736   5.957  13.771 -0.6168 -0.5099 -0.3467
16887TIP3    H172076   4.830   5.945  13.764 -0.9608 -2.9644 -1.5642
16887TIP3    H272077   4.719   5.963  13.865  0.5761 -2.0465 -0.0000
16888TIP3   OH272078   2.336   3.427   2.013 -0.5562 -0.0696  0.4635
16888TIP3    H172079   2.298   3.346   1.981 -0.5275 -0.6887  1.9016
16888TIP3    H272080   2.291   3.444   2.096 -0.2920  1.1740  0.3739
16889TIP3   OH272081   0.924   2.958   1.603 -0.0492  0.3708 -0.1536
16889TIP3    H172082   0.989   3.027   1.596  1.8946 -1.3763 -0.5551
16889TIP3    H272083   0.933   2.908   1.521 -1.8006 -0.0428 -0.1451
16890TIP3   OH272084   0.001   5.946  14.046  0.2880  0.1275 -0.1206
16890TIP3    H172085  -0.037   5.951  14.134  1.1928  0.2527  0.2790
16890TIP3    H272086  -0.067   5.905  13.993 -1.2676  2.2875  0.0577
16891TIP3   OH272087   5.633   5.310   4.175  0.2504  0.6650 -0.2001
16891TIP3    H172088   5.696   5.347   4.237 -0.9477  1.5554  0.5226
16891TIP3    H272089   5.556   5.291   4.228 -0.0913 -0.4561 -1.0672
16892TIP3   OH272090   5.471   6.519  15.007 -0.4214 -0.1177 -0.1458
16892TIP3    H172091   5.380   6.533  14.981 -0.5359 -1.9587 -0.8927
16892TIP3    H272092   5.494   6.597  15.057 -1.4133  1.8550 -2.5725
16893TIP3   OH272093   4.327   5.266  14.868 -0.1209 -0.2348  0.6808
16893TIP3    H172094   4.358   5.243  14.780 -0.4089  1.6799  0.0360
16893TIP3    H272095   4.407   5.267  14.921  0.2407 -0.2060  0.1560
16894TIP3   OH272096   1.696   1.014   1.957  0.0990 -0.4457  0.4152
16894TIP3    H172097   1.697   1.099   2.001  0.5779  1.0382 -2.2667
16894TIP3    H272098   1.788   0.998   1.935 -0.1551 -0.9810 -0.2817
16895TIP3   OH272099   6.026   1.483   4.825  0.2234  0.4311 -0.2190
16895TIP3    H172100   6.043   1.513   4.736 -3.2604 -0.4107 -1.3401
16895TIP3    H272101   6.009   1.563   4.874  0.5008  0.8179 -0.7450
16896TIP3   OH272102   1.749   2.658  16.740  0.1560 -0.2363  0.0531
16896TIP3    H172103   1.711   2.728  16.793  2.2714  1.0592 -0.0569
16896TIP3    H272104   1.790   2.704  16.666 -0.2709 -1.7829 -1.1991
16897TIP3   OH272105   5.427   4.644  13.445 -0.0271  0.3111 -0.0447
16897TIP3    H172106   5.477   4.677  13.371 -1.2001 -0.2599 -1.1322
16897TIP3    H272107   5.413   4.551  13.426  0.1452  0.0049  1.1856
16898TIP3   OH272108   0.154   5.880  12.701 -0.5125 -0.1424 -0.1796
16898TIP3    H172109   0.239   5.842  12.679 -1.0405 -0.1459 -2.5030
16898TIP3    H272110   0.166   5.916  12.789  1.7352 -0.5670 -0.2437
16899TIP3   OH272111   2.805   4.791   4.278 -0.1856 -0.1463  0.2154
16899TIP3    H172112   2.875   4.850   4.248  0.6623 -1.4331 -0.4614
16899TIP3    H272113   2.725   4.827   4.240  0.5893 -0.5406 -1.9377
16900TIP3   OH272114   2.619   5.355  12.303 -0.0676 -0.2496 -0.4019
16900TIP3    H172115   2.597   5.313  12.386 -0.0201 -1.3568 -0.9251
16900TIP3    H272116   2.538   5.398  12.276 -0.2894 -0.4894 -0.1305
16901TIP3   OH272117   5.661   6.596   3.151 -0.3328 -0.3041  0.1012
16901TIP3    H172118   5.573   6.629   3.170 -0.6274 -1.8078  1.5839
16901TIP3    H272119   5.653   6.555   3.064 -0.2608  2.2399 -1.1997
16902TIP3   OH272120   0.700   0.302   1.802 -0.0039  0.1785  0.2596
16902TIP3    H172121   0.668   0.255   1.879  0.9941 -2.9197 -1.0536
16902TIP3    H272122   0.784   0.339   1.829  0.2253 -0.6780  0.7295
16903TIP3   OH272123   4.961   1.460   3.509 -0.1101  0.0304  0.1882
16903TIP3    H172124   5.044   1.463   3.461  1.6573 -0.6599  2.9500
16903TIP3    H272125   4.903   1.520   3.462  2.2969  1.3745 -1.2436
16904TIP3   OH272126   4.845   1.822  11.425 -0.0487  0.4520 -0.2377
16904TIP3    H172127   4.854   1.850  11.334  1.0468  0.2562 -0.1977
16904TIP3    H272128   4.757   1.783  11.429  0.1852 -0.2591 -1.4083
16905TIP3   OH272129   3.061   4.293  16.436 -0.0234 -0.0494  0.0154
16905TIP3    H172130   2.968   4.267  16.440  0.0671 -0.2779  1.0075
16905TIP3    H272131   3.060   4.388  16.439 -0.2220 -0.0535  0.0968
16906TIP3   OH272132   1.688   2.743  12.887 -0.2471 -0.0813  0.1779
16906TIP3    H172133   1.625   2.809  12.858  0.5052  1.1237  1.1622
16906TIP3    H272134   1.691   2.753  12.982  1.0271 -0.4860  0.1966
16907TIP3   OH272135   0.588   0.712  10.360 -0.3521  0.6008 -0.5485
16907TIP3    H172136   0.606   0.681  10.271  1.1044 -1.1442  0.2969
16907TIP3    H272137   0.633   0.650  10.417 -0.7787  1.9957  1.4148
16908TIP3   OH272138   3.407   0.108   2.542  0.7660 -0.3040 -0.4820
16908TIP3    H172139   3.344   0.040   2.518 -1.1948  1.4423 -0.5404
16908TIP3    H272140   3.356   0.190   2.541  2.8823  1.1037  0.1599
16909TIP3   OH272141   1.144   2.146  12.644 -0.0499  0.4397 -0.3736
16909TIP3    H172142   1.067   2.198  12.667  0.3445  0.5948  0.6414
16909TIP3    H272143   1.218   2.196  12.678  0.4438 -0.1153 -0.6078
16910TIP3   OH272144   2.608   4.572  12.164 -0.0862 -0.4407  0.0265
16910TIP3    H172145   2.699   4.594  12.144 -0.3166 -0.1050 -0.6946
16910TIP3    H272146   2.607   4.558  12.259  0.6660 -0.2003  0.0767
16911TIP3   OH272147   0.901   2.690   2.809 -0.2390  0.4760 -0.1141
16911TIP3    H172148   0.864   2.771   2.844  1.5422  1.5717 -0.6342
16911TIP3    H272149   0.959   2.658   2.879  0.1288  0.4131 -0.4436
16912TIP3   OH272150   0.823   6.773  16.215 -0.0622  0.6155 -0.0888
16912TIP3    H172151   0.871   6.736  16.140 -2.1105  1.1614 -1.7452
16912TIP3    H272152   0.805   6.697  16.271  0.6413  0.0285 -0.6271
16913TIP3   OH272153   6.034   6.457  13.809 -0.1203  0.7904 -0.3532
16913TIP3    H172154   6.120   6.461  13.850  0.7604 -0.4242 -1.9518
16913TIP3    H272155   6.011   6.364  13.812 -2.2722  1.2965  1.7044
16914TIP3   OH272156   6.095   0.933  10.917  0.2811 -0.3429 -0.0272
16914TIP3    H172157   6.019   0.876  10.907  0.8123 -0.9838 -0.4743
16914TIP3    H272158   6.102   0.978  10.833  0.9307 -0.9605 -0.3090
16915TIP3   OH272159   3.961   4.161  17.076 -0.4041 -0.4349  0.3176
16915TIP3    H172160   4.022   4.130  17.009  0.3388  0.0904  0.7342
16915TIP3    H272161   4.015   4.173  17.154 -1.1666 -0.5646  0.8815
16916TIP3   OH272162   2.372   2.542  10.784 -0.4213  0.2774 -0.1054
16916TIP3    H172163   2.288   2.499  10.797 -0.5447  0.2619 -0.9212
16916TIP3    H272164   2.392   2.582  10.869 -0.5827 -0.8719  0.4904
16917TIP3   OH272165   4.202   3.620   6.193  0.8332 -0.2281  0.4769
16917TIP3    H172166   4.260   3.673   6.248 -0.2267  0.1215  1.2870
16917TIP3    H272167   4.259   3.587   6.123  1.6507  1.4789  0.2925
16918TIP3   OH272168   0.271   6.746  14.019  0.6888  0.6904 -0.4556
16918TIP3    H172169   0.296   6.732  14.111  0.8523  0.3347 -0.5533
16918TIP3    H272170   0.183   6.782  14.023  0.1429 -0.6242 -0.2049
16919TIP3   OH272171   0.494   5.140  11.359  0.1069  0.8355 -0.4036
16919TIP3    H172172   0.450   5.183  11.285  0.1654 -0.3041 -1.1267
16919TIP3    H272173   0.459   5.185  11.437 -0.0083  2.0090 -1.1073
16920TIP3   OH272174   3.178   1.496  11.566  0.1449  0.2952 -0.4614
16920TIP3    H172175   3.164   1.408  11.600 -1.1889  0.4222 -0.6364
16920TIP3    H272176   3.190   1.484  11.472 -1.3840  0.3893 -0.6966
16921TIP3   OH272177   3.575   6.552   5.516 -0.2192  0.4615 -0.3054
16921TIP3    H172178   3.601   6.463   5.540  0.9140  0.2353 -2.1483
16921TIP3    H272179   3.649   6.606   5.542 -0.5568  0.7397  0.0704
16922TIP3   OH272180   2.553   0.487   0.929  0.0258  0.2828  0.5904
16922TIP3    H172181   2.472   0.539   0.928  0.6692  1.3940  2.2939
16922TIP3    H272182   2.616   0.540   0.881  0.0079 -0.1635  0.0596
16923TIP3   OH272183   4.783   5.449   2.906 -0.1519  0.0841 -0.7949
16923TIP3    H172184   4.845   5.519   2.927 -0.4169 -0.1871  1.0368
16923TIP3    H272185   4.706   5.468   2.959 -0.4859 -1.2233 -0.7754
16924TIP3   OH272186   3.983   0.983  14.108  0.1835  0.6541 -0.1732
16924TIP3    H172187   4.040   1.058  14.126  0.2201  0.6580 -0.3016
16924TIP3    H272188   3.943   0.962  14.192  0.3040  0.7106 -0.1011
16925TIP3   OH272189   0.509   0.256   6.096  0.5574 -0.2970 -0.1026
16925TIP3    H172190   0.536   0.167   6.075  0.4384 -0.1799 -0.7742
16925TIP3    H272191   0.467   0.249   6.182 -2.1536 -1.4317 -1.4045
16926TIP3   OH272192   5.536   6.274  15.803 -0.1070  0.5421  0.1684
16926TIP3    H172193   5.483   6.339  15.850  0.1461  2.0148 -1.4872
16926TIP3    H272194   5.625   6.293  15.830 -0.1065  0.3352  0.3119
16927TIP3   OH272195   3.331   2.986   5.616 -0.0573  0.2841 -0.2205
16927TIP3    H172196   3.325   2.890   5.608  1.9381  0.2198 -1.5023
16927TIP3    H272197   3.424   3.005   5.605 -0.4696  2.4103 -0.3343
16928TIP3   OH272198   1.070   6.469   1.801  0.5886  0.7291 -0.3555
16928TIP3    H172199   1.008   6.510   1.863 -0.4894 -3.0292  1.3788
16928TIP3    H272200   1.155   6.479   1.843  0.2392  0.5995  0.4197
16929TIP3   OH272201   2.617   2.843  14.107 -0.3527  0.6865 -0.2807
16929TIP3    H172202   2.556   2.907  14.070  0.2475  1.5011  0.1124
16929TIP3    H272203   2.684   2.832  14.040  0.3416  1.6096  0.2400
16930TIP3   OH272204   0.791   0.652   6.326  0.0120  0.6552  0.1598
16930TIP3    H172205   0.728   0.722   6.343  1.1435  1.2886  2.0975
16930TIP3    H272206   0.850   0.689   6.260 -0.4315  0.8273 -0.1507
16931TIP3   OH272207   3.056   4.599  16.999 -0.0660 -0.2428  0.0750
16931TIP3    H172208   2.973   4.620  16.956  0.2806  2.0509  0.3867
16931TIP3    H272209   3.122   4.613  16.931  0.1246 -2.2286 -0.2267
16932TIP3   OH272210   6.447   4.576  14.107  0.3855 -0.2329  0.1842
16932TIP3    H172211   6.461   4.660  14.063  0.6129  0.3499  1.3296
16932TIP3    H272212   6.474   4.592  14.197 -0.4668 -1.2757  0.6392
16933TIP3   OH272213   2.119   2.044   3.883  0.5227  0.4852  0.0838
16933TIP3    H172214   2.053   2.062   3.949  1.5588 -1.0302  1.6266
16933TIP3    H272215   2.078   1.981   3.824  1.0005 -1.6462  1.9115
16934TIP3   OH272216   2.577   4.372  15.575  0.1451 -0.2221  0.3382
16934TIP3    H172217   2.511   4.437  15.599 -0.4294 -0.1796 -1.2276
16934TIP3    H272218   2.647   4.384  15.639 -1.4171 -0.3943  2.1573
16935TIP3   OH272219   2.700   4.231   1.730 -0.2748 -0.4702  0.8772
16935TIP3    H172220   2.637   4.298   1.703  0.3767  0.4064  1.4890
16935TIP3    H272221   2.678   4.213   1.821  0.1304 -0.4222  0.9862
16936TIP3   OH272222   3.036   2.782   0.988 -0.0081 -0.4897 -0.6104
16936TIP3    H172223   2.968   2.838   1.025 -1.9409 -3.5070  0.8588
16936TIP3    H272224   3.110   2.840   0.973 -1.4342  2.1978  1.8358
16937TIP3   OH272225   3.262   1.863  16.573  0.7315  0.2899  0.3685
16937TIP3    H172226   3.184   1.897  16.617 -0.1474 -0.7140 -0.3481
16937TIP3    H272227   3.227   1.818  16.496  1.8347 -1.9010  1.0716
16938TIP3   OH272228   5.776   4.147  16.834  0.1686 -0.6078 -0.3457
16938TIP3    H172229   5.819   4.227  16.866  0.3164 -1.2004  0.9900
16938TIP3    H272230   5.758   4.166  16.742 -1.5991  1.7781  0.3686
16939TIP3   OH272231   6.669   5.362  15.533  0.0175 -0.1943  0.6332
16939TIP3    H172232   6.635   5.450  15.543 -1.0627 -0.6475  1.0811
16939TIP3    H272233   6.761   5.368  15.561  0.0938  0.8798  0.1665
16940TIP3   OH272234   4.924   4.999   4.007 -0.1454  0.0989  0.5483
16940TIP3    H172235   4.960   4.920   4.046  1.4845  0.4194 -0.2314
16940TIP3    H272236   4.957   5.070   4.062  0.4473  0.3993 -0.1834
16941TIP3   OH272237   4.312   3.045  11.687  0.1637  0.3643  0.4779
16941TIP3    H172238   4.303   3.120  11.746  2.7281  1.5084 -0.4374
16941TIP3    H272239   4.341   2.973  11.742  0.9742  0.9873  0.8821
16942TIP3   OH272240   0.511   1.869  16.979 -0.4311  0.3018 -0.0547
16942TIP3    H172241   0.578   1.804  16.955 -1.0212 -0.8597  1.3177
16942TIP3    H272242   0.560   1.939  17.023  0.0413  0.1216 -0.2866
16943TIP3   OH272243   3.459   2.163  14.937  0.0836 -0.8889  0.9563
16943TIP3    H172244   3.423   2.182  15.024 -0.1575 -1.9468  1.1025
16943TIP3    H272245   3.542   2.119  14.955 -0.0239 -1.2164  0.6611
16944TIP3   OH272246   5.582   4.244   3.156 -0.5353 -0.1217  0.2412
16944TIP3    H172247   5.646   4.303   3.195 -0.5961 -0.4234  0.7959
16944TIP3    H272248   5.498   4.273   3.191 -0.7649  0.5248 -0.7850
16945TIP3   OH272249   2.452   2.835   4.950 -0.3221  0.2145 -0.2049
16945TIP3    H172250   2.545   2.851   4.967 -0.0342 -2.2811  1.1298
16945TIP3    H272251   2.423   2.784   5.026 -2.1572 -1.1094 -1.7094
16946TIP3   OH272252   3.848   6.703   0.537  0.1231 -0.3169 -0.0632
16946TIP3    H172253   3.756   6.687   0.560  0.6940 -3.7114  0.4189
16946TIP3    H272254   3.855   6.672   0.446  0.3745  2.0811 -0.9200
16947TIP3   OH272255   5.180   6.102   1.248  0.3947 -0.1467  0.1544
16947TIP3    H172256   5.149   6.094   1.338 -0.8132  2.7726  0.0834
16947TIP3    H272257   5.267   6.140   1.256  0.6914 -0.7907  0.0828
16948TIP3   OH272258   6.644   4.079   2.161 -0.1701  0.1987  0.2430
16948TIP3    H172259   6.671   4.166   2.190  0.5719 -0.0917  0.4271
16948TIP3    H272260   6.585   4.096   2.087 -0.1030  0.8572  0.3349
16949TIP3   OH272261   3.466   1.124  15.149 -0.0570 -0.4714  0.0407
16949TIP3    H172262   3.450   1.168  15.066  2.4340  0.8977  0.2105
16949TIP3    H272263   3.548   1.077  15.136 -0.1135 -1.0078  1.4410
16950TIP3   OH272264   2.444   2.032  15.568 -0.3278  0.6013 -0.5608
16950TIP3    H172265   2.496   1.994  15.497  1.1826 -1.8918  1.6653
16950TIP3    H272266   2.367   1.975  15.574 -0.3708  0.7008 -0.1187
16951TIP3   OH272267   5.200   4.630   3.191 -0.2202  0.3567  0.3566
16951TIP3    H172268   5.127   4.653   3.133  0.1750  2.0935  0.4900
16951TIP3    H272269   5.254   4.570   3.140 -1.8683 -1.2161  0.3663
16952TIP3   OH272270   6.647   0.416   3.466  0.2289  0.0407 -0.8258
16952TIP3    H172271   6.559   0.384   3.487  0.4882 -0.0129  0.2504
16952TIP3    H272272   6.632   0.494   3.412 -0.5118  0.6401  0.2078
16953TIP3   OH272273   5.322   0.114  16.733 -0.7124  0.5029  0.3753
16953TIP3    H172274   5.273   0.042  16.770 -0.1956 -0.1996 -0.2784
16953TIP3    H272275   5.284   0.128  16.646  0.1512  0.0118 -0.0998
16954TIP3   OH272276   2.439   0.064   5.201 -0.0073 -0.4409 -0.3196
16954TIP3    H172277   2.519   0.099   5.163 -0.4834 -1.2397 -2.1767
16954TIP3    H272278   2.391   0.141   5.231  1.2876  0.0671  0.5087
16955TIP3   OH272279   6.645   6.671   5.971 -0.0023 -0.2097 -0.3824
16955TIP3    H172280   6.573   6.612   5.994  1.1502 -0.8793  1.8024
16955TIP3    H272281   6.679   6.635   5.889 -1.6245 -0.3476 -1.0320
16956TIP3   OH272282   4.466   1.988   5.598  0.7082  0.1552  0.3086
16956TIP3    H172283   4.480   2.017   5.508  0.2370  0.3639  0.3005
16956TIP3    H272284   4.524   2.044   5.650  0.3053  0.6641  0.2220
16957TIP3   OH272285   2.835   6.217   1.456 -0.4038  0.1500  0.5303
16957TIP3    H172286   2.856   6.306   1.485  2.4456 -0.4418  0.5856
16957TIP3    H272287   2.830   6.166   1.536 -1.9862  0.2094  0.4951
16958TIP3   OH272288   4.421   0.150   4.511  0.3279 -0.0509  0.4566
16958TIP3    H172289   4.405   0.244   4.522  0.5821  0.2174 -1.1823
16958TIP3    H272290   4.421   0.137   4.416  2.3697 -1.3406  0.5818
16959TIP3   OH272291   0.651   5.523  13.576 -0.5022  0.4822  0.9981
16959TIP3    H172292   0.666   5.551  13.667 -1.9903 -1.0729  1.7729
16959TIP3    H272293   0.559   5.542  13.560 -1.3291 -2.7134  1.2090
16960TIP3   OH272294   1.814   3.848   2.603  0.0478  0.5110 -0.2338
16960TIP3    H172295   1.852   3.877   2.686 -0.7216 -0.9673  0.6836
16960TIP3    H272296   1.729   3.811   2.627  1.4575 -3.7949 -0.9771
16961TIP3   OH272297   6.502   4.933  14.946  0.0126 -0.2422  0.4566
16961TIP3    H172298   6.502   4.871  15.019  1.1879 -0.2905  0.4307
16961TIP3    H272299   6.554   4.889  14.878 -0.1064  0.2890  0.0150
16962TIP3   OH272300   2.417   1.461   1.038  0.3288  0.0355  0.1504
16962TIP3    H172301   2.508   1.490   1.047  0.2845  0.2741 -0.1337
16962TIP3    H272302   2.371   1.538   1.004  0.3923 -0.6348 -1.5352
16963TIP3   OH272303   2.388   0.678   4.857  0.0851  0.1197  0.6338
16963TIP3    H172304   2.310   0.730   4.876 -0.0746  0.1750 -0.1300
16963TIP3    H272305   2.364   0.588   4.879  0.3555  0.3443  1.9445
16964TIP3   OH272306   4.077   0.192   2.884  0.4417 -0.2398  0.8541
16964TIP3    H172307   4.096   0.102   2.855  1.6567 -0.0564  1.0131
16964TIP3    H272308   3.983   0.202   2.872  0.7957 -0.1465 -3.2363
16965TIP3   OH272309   1.538   1.610   1.257  0.5376  0.7216 -0.0938
16965TIP3    H172310   1.492   1.544   1.309  0.5629  1.3736  0.7724
16965TIP3    H272311   1.468   1.654   1.207  0.5597 -0.1730 -0.9323
16966TIP3   OH272312   4.151   3.118   0.555 -0.0455  0.2988  0.2723
16966TIP3    H172313   4.097   3.164   0.619 -0.0025  1.1525 -0.2935
16966TIP3    H272314   4.227   3.174   0.542 -0.0513  0.1355 -0.5202
16967TIP3   OH272315   3.502   2.751  11.622 -0.6619  0.2217  0.1625
16967TIP3    H172316   3.440   2.711  11.561 -2.3439  2.9164 -0.0871
16967TIP3    H272317   3.496   2.697  11.701 -2.8832  0.0034 -0.0875
16968TIP3   OH272318   3.538   1.330   0.175 -0.1275 -0.5992 -0.1532
16968TIP3    H172319   3.484   1.385   0.117  0.0303 -0.2594  0.0234
16968TIP3    H272320   3.619   1.379   0.187  0.4240 -1.3325 -0.8060
16969TIP3   OH272321   5.275   4.301  14.722 -0.2615 -0.5312  0.0364
16969TIP3    H172322   5.325   4.382  14.725  0.5252 -0.8874 -1.7893
16969TIP3    H272323   5.338   4.232  14.742 -0.0517 -0.9444 -1.8304
16970TIP3   OH272324   0.227   1.392  12.747  0.1403  0.3212  0.1612
16970TIP3    H172325   0.141   1.430  12.732 -0.1604 -0.9844 -1.8878
16970TIP3    H272326   0.213   1.325  12.814  0.0616  1.6390  1.5003
16971TIP3   OH272327   2.228   4.249  15.519  0.7914 -0.3238  0.0933
16971TIP3    H172328   2.309   4.198  15.516  0.7900 -0.8694  4.2404
16971TIP3    H272329   2.182   4.216  15.596 -1.8452  2.2204 -0.2475
16972TIP3   OH272330   5.742   1.587  15.324  0.4150  0.3449 -0.2792
16972TIP3    H172331   5.663   1.632  15.293  0.1113  1.2937  1.7098
16972TIP3    H272332   5.802   1.588  15.250 -2.1183 -2.2763 -2.6168
16973TIP3   OH272333   3.014   1.104  16.746 -0.3988  1.0874  0.8899
16973TIP3    H172334   2.999   1.162  16.820 -1.4579 -0.1122  1.6628
16973TIP3    H272335   2.956   1.029  16.762  0.6941 -0.0542 -0.1994
16974TIP3   OH272336   3.042   4.591   3.711  0.4335  0.3620 -0.4146
16974TIP3    H172337   3.004   4.619   3.628 -1.7935 -0.5850  0.2266
16974TIP3    H272338   3.094   4.666   3.740  0.4294  1.0763 -2.1489
16975TIP3   OH272339   5.223   1.262  12.475  0.1571 -0.6746 -0.0551
16975TIP3    H172340   5.206   1.354  12.457 -1.1910 -0.8285  0.2669
16975TIP3    H272341   5.197   1.217  12.394 -0.9525 -0.9141  0.4168
16976TIP3   OH272342   3.023   6.133  15.129  0.6209  0.5665 -0.0090
16976TIP3    H172343   3.099   6.077  15.143  0.4885  0.2362 -0.5837
16976TIP3    H272344   3.057   6.209  15.081  0.6377  0.5476 -0.0265
16977TIP3   OH272345   5.981   3.948   2.642  0.4564 -0.8069 -0.0744
16977TIP3    H172346   5.970   4.035   2.681 -0.7649 -1.0272  0.1305
16977TIP3    H272347   6.066   3.951   2.600  1.4226 -0.2327  1.8048
16978TIP3   OH272348   4.616   4.934  14.206 -0.1214  0.4428 -0.1024
16978TIP3    H172349   4.623   5.009  14.265 -2.5278  1.0179 -0.4291
16978TIP3    H272350   4.531   4.945  14.163 -0.1655 -2.0085 -0.8162
16979TIP3   OH272351   0.487   1.677  11.758  0.1850  0.2531  0.2711
16979TIP3    H172352   0.558   1.731  11.725  1.7325 -1.7083  0.2445
16979TIP3    H272353   0.511   1.660  11.849 -1.3281  1.2031  0.8981
16980TIP3   OH272354   4.010   4.913  12.809  0.2888 -0.3217 -0.1428
16980TIP3    H172355   4.044   4.997  12.780  2.0107 -1.5519 -1.9201
16980TIP3    H272356   3.978   4.930  12.898  2.8225  1.6539  0.5128
16981TIP3   OH272357   1.961   0.239  16.128 -0.2835  0.0343 -0.5207
16981TIP3    H172358   1.929   0.185  16.200  0.1112  0.8170  0.2674
16981TIP3    H272359   2.042   0.197  16.100 -0.3677 -0.1990 -0.4093
16982TIP3   OH272360   4.435   1.371  13.981  0.0522 -0.3212 -0.2626
16982TIP3    H172361   4.492   1.427  13.928  0.1108  0.7649  0.9018
16982TIP3    H272362   4.448   1.283  13.945  1.0321  0.1913 -1.2301
16983TIP3   OH272363   4.310   2.522   2.419  0.1622  0.2246  0.1026
16983TIP3    H172364   4.228   2.473   2.417  0.0553  0.4017  0.1405
16983TIP3    H272365   4.372   2.467   2.372  0.0919 -0.0370  0.3102
16984TIP3   OH272366   3.771   4.797   2.743  0.2232 -0.4196 -0.1743
16984TIP3    H172367   3.803   4.706   2.738  0.1437 -0.4277 -0.5903
16984TIP3    H272368   3.726   4.811   2.659 -3.1180 -1.2392  1.3232
16985TIP3   OH272369   1.806   6.587  11.232  0.4410 -0.3865 -0.5184
16985TIP3    H172370   1.737   6.523  11.252 -1.2588  1.6392  0.5212
16985TIP3    H272371   1.758   6.666  11.206  2.2075  1.8848  2.5284
16986TIP3   OH272372   3.913   3.808  12.609  0.4470 -0.3440  0.4761
16986TIP3    H172373   3.919   3.714  12.592  0.2985 -0.3606  0.5146
16986TIP3    H272374   3.819   3.826  12.612  0.4697 -0.0755 -0.1853
16987TIP3   OH272375   4.371   4.574  11.147 -0.3447 -0.9150 -0.5897
16987TIP3    H172376   4.467   4.573  11.149 -0.3486 -1.2664 -0.5192
16987TIP3    H272377   4.347   4.645  11.206 -0.1473 -1.6156  0.3715
16988TIP3   OH272378   2.547   5.648   6.268 -0.0769  0.8528  0.4686
16988TIP3    H172379   2.453   5.649   6.282 -0.0631  0.0613  0.6562
16988TIP3    H272380   2.558   5.613   6.179  0.1035 -1.1013  1.2234
16989TIP3   OH272381   4.349   2.710   0.029 -0.1702  0.1783  0.3624
16989TIP3    H172382   4.412   2.704  -0.043 -1.1062  0.6515 -0.5275
16989TIP3    H272383   4.380   2.784   0.082 -0.9567  1.6354 -1.1072
16990TIP3   OH272384   2.321   1.072   5.109  0.6947 -0.6917 -1.0826
16990TIP3    H172385   2.331   1.021   5.189 -1.3511  0.3361 -0.0906
16990TIP3    H272386   2.389   1.139   5.115 -1.0201  1.0158  1.2328
16991TIP3   OH272387   4.378   5.709  15.750 -0.2704 -0.4403  0.4652
16991TIP3    H172388   4.380   5.751  15.664  4.1335 -0.3001  0.4069
16991TIP3    H272389   4.400   5.617  15.732 -1.9049 -1.0191  1.2672
16992TIP3   OH272390   4.521   4.100  13.137  0.2718  0.1132 -0.0517
16992TIP3    H172391   4.453   4.053  13.184  0.2822  0.6364  0.4997
16992TIP3    H272392   4.566   4.033  13.086 -0.5580 -0.2582 -0.3075
16993TIP3   OH272393   1.965   3.386  12.067  0.4525 -0.2941 -0.0136
16993TIP3    H172394   1.921   3.409  11.985 -1.3357 -1.3825  0.5815
16993TIP3    H272395   1.900   3.335  12.116  2.0492 -1.1117  1.3744
16994TIP3   OH272396   4.597   1.570   4.161 -0.1275  0.0820 -0.1415
16994TIP3    H172397   4.510   1.538   4.134 -0.3760 -0.1196  0.8690
16994TIP3    H272398   4.639   1.595   4.079 -0.8600 -0.5297 -0.7269
16995TIP3   OH272399   3.939   1.443   4.822 -0.3196  0.4912 -0.0935
16995TIP3    H172400   3.862   1.434   4.878  0.0478 -0.2441  0.3144
16995TIP3    H272401   4.013   1.434   4.883  0.1179 -1.9051 -0.8740
16996TIP3   OH272402   2.368   2.440  15.349  0.2098 -0.1658 -0.4044
16996TIP3    H172403   2.358   2.353  15.313 -0.0800 -0.1262 -0.4183
16996TIP3    H272404   2.345   2.500  15.278 -1.6655 -0.0969  0.2053
16997TIP3   OH272405   6.472   0.404  14.995  0.9130  0.9867 -0.1591
16997TIP3    H172406   6.469   0.327  14.939  1.3039  0.5439  0.4250
16997TIP3    H272407   6.442   0.374  15.080  0.2825  1.6654 -0.1265
16998TIP3   OH272408   4.007   4.611  14.075  0.1555  0.1023 -0.5448
16998TIP3    H172409   3.962   4.675  14.020  0.0499  0.4957 -0.0073
16998TIP3    H272410   4.051   4.663  14.143  1.9494 -0.2137 -1.4022
16999TIP3   OH272411   3.076   5.399  11.341  0.0588  0.2456  0.2356
16999TIP3    H172412   3.128   5.456  11.398  0.9536 -1.6890  1.4451
16999TIP3    H272413   3.138   5.367  11.276 -0.5554  1.0136 -0.7523
17000TIP3   OH272414   3.357   6.684   4.012 -0.6035 -0.6264  0.3142
17000TIP3    H172415   3.274   6.714   4.050 -0.2169  1.6773 -0.5211
17000TIP3    H272416   3.333   6.656   3.923 -0.4559  0.3153 -0.0282
17001TIP3   OH272417   4.945   5.341   1.031 -0.5827 -0.1425  0.1443
17001TIP3    H172418   4.960   5.424   0.986 -1.8553  0.2086  0.3089
17001TIP3    H272419   4.851   5.324   1.018 -0.1726 -2.0018 -0.6346
17002TIP3   OH272420   4.340   3.576  14.273  0.0076 -0.1155  0.0075
17002TIP3    H172421   4.312   3.663  14.302  0.0617 -0.7430  2.1455
17002TIP3    H272422   4.259   3.534  14.244 -0.4107 -0.0980  1.1016
17003TIP3   OH272423   0.228   2.409   2.805  0.0438  0.7080  0.3781
17003TIP3    H172424   0.314   2.449   2.795 -0.4490  1.6016 -0.5384
17003TIP3    H272425   0.194   2.402   2.716 -1.8776  2.8505  0.8392
17004TIP3   OH272426   5.743   3.955  12.519 -0.0533  0.4634  0.0287
17004TIP3    H172427   5.651   3.941  12.544  0.4455  0.0808  1.8369
17004TIP3    H272428   5.746   4.045  12.489 -1.0021  0.5249  0.0676
17005TIP3   OH272429   6.485   1.041   1.633 -0.0434 -0.3122 -0.7800
17005TIP3    H172430   6.518   1.034   1.723 -0.4440 -0.3483 -0.6368
17005TIP3    H272431   6.521   0.964   1.589  1.6692  0.6378 -1.1429
17006TIP3   OH272432   4.007   0.977  15.248  0.6811  0.0079 -0.0619
17006TIP3    H172433   4.034   1.051  15.193  2.2669  0.0792  0.7711
17006TIP3    H272434   3.930   0.941  15.203 -0.1569  2.1487 -0.4797
17007TIP3   OH272435   4.801   1.777  12.149 -0.2547  0.1092 -0.8087
17007TIP3    H172436   4.856   1.792  12.073  0.7556 -0.2956 -0.1690
17007TIP3    H272437   4.714   1.760  12.112 -0.2453  1.8610 -1.7851
17008TIP3   OH272438   3.476   1.010  13.756  0.3973 -0.0391  0.1677
17008TIP3    H172439   3.540   1.055  13.810  1.2977 -0.7773 -0.2593
17008TIP3    H272440   3.526   0.945  13.708 -0.5626 -0.1398 -0.7362
17009TIP3   OH272441   1.804   1.087  16.752  0.2751  0.3603  0.1171
17009TIP3    H172442   1.804   1.083  16.656 -1.7272 -3.3894  0.0455
17009TIP3    H272443   1.815   0.995  16.779 -0.9012  1.0662  3.4107
17010TIP3   OH272444   3.311   3.400   6.507  0.2633  0.3996  0.8899
17010TIP3    H172445   3.221   3.370   6.517  0.2182 -0.1162 -0.8133
17010TIP3    H272446   3.308   3.460   6.433  1.4554 -0.2508  0.2899
17011TIP3   OH272447   6.066   5.937  10.728 -0.0593  0.3984 -0.4137
17011TIP3    H172448   5.976   5.913  10.708  0.1187 -0.1581 -0.5688
17011TIP3    H272449   6.107   5.950  10.643 -0.0580  0.9123 -0.3398
17012TIP3   OH272450   6.541   5.023  16.422  0.8540 -0.2924 -0.8762
17012TIP3    H172451   6.481   4.955  16.454  0.9716 -0.4069 -0.9009
17012TIP3    H272452   6.600   4.977  16.363 -1.7687  0.5376 -4.4939
17013TIP3   OH272453   1.671   3.923  17.082 -0.1474 -0.0144 -0.0101
17013TIP3    H172454   1.688   3.832  17.061  1.3112  0.6713 -2.0752
17013TIP3    H272455   1.576   3.927  17.094 -0.0893 -2.0621  1.8064
17014TIP3   OH272456   5.202   3.820   2.258  0.0615 -0.1114  0.0105
17014TIP3    H172457   5.258   3.765   2.204  1.1437  0.2125  0.7828
17014TIP3    H272458   5.245   3.823   2.343 -0.0252  1.8060  0.0370
17015TIP3   OH272459   5.666   3.558   3.997  0.5178  0.0879 -0.0159
17015TIP3    H172460   5.686   3.552   3.904 -0.0019 -0.4509 -0.0979
17015TIP3    H272461   5.626   3.645   4.008  0.2900  0.0265 -0.3501
17016TIP3   OH272462   1.739   4.796   2.858 -0.3165 -0.8057  0.3355
17016TIP3    H172463   1.792   4.841   2.924  0.0081 -0.1930 -0.3315
17016TIP3    H272464   1.769   4.832   2.775 -1.0697 -1.2043 -0.1165
17017TIP3   OH272465   1.622   1.292   3.474 -0.1240 -0.6915 -0.5190
17017TIP3    H172466   1.589   1.333   3.393  0.0384  2.3783  0.8118
17017TIP3    H272467   1.711   1.326   3.483 -0.2428 -0.7218  1.0833
17018TIP3   OH272468   5.122   4.944  13.541 -0.3490 -0.1720  0.7101
17018TIP3    H172469   5.053   5.004  13.568 -1.7244  0.2904 -3.2251
17018TIP3    H272470   5.178   4.996  13.483  1.2437 -1.4975  0.9797
17019TIP3   OH272471   6.030   4.694   4.597 -0.9289 -0.2553 -0.5457
17019TIP3    H172472   6.055   4.775   4.643 -0.4512 -1.1043  0.7317
17019TIP3    H272473   5.934   4.697   4.595 -0.9300  0.1459 -0.1283
17020TIP3   OH272474   4.435   4.586  13.061  0.1038 -0.4436 -0.5013
17020TIP3    H172475   4.399   4.647  12.997  0.9860 -0.3169 -0.9042
17020TIP3    H272476   4.379   4.595  13.137  1.0400  2.0202  0.0151
17021TIP3   OH272477   6.137   1.350  16.008  1.1242 -0.2729  0.2982
17021TIP3    H172478   6.182   1.423  16.051  0.2122  1.6703 -1.8274
17021TIP3    H272479   6.067   1.327  16.068  1.6017  0.3952  1.1471
17022TIP3   OH272480   3.944   6.248   3.828 -0.1073  0.7203 -0.2678
17022TIP3    H172481   3.993   6.311   3.776 -0.2518  0.6098 -0.5403
17022TIP3    H272482   3.982   6.163   3.806 -1.0542  0.5230 -1.2270
17023TIP3   OH272483   6.313   3.006  11.953  0.0140  0.5548  0.1354
17023TIP3    H172484   6.333   2.963  11.870 -1.0907  0.6907 -0.2271
17023TIP3    H272485   6.356   3.091  11.947  1.0072  0.0794  0.2531
17024TIP3   OH272486   4.544   2.808  11.667 -0.1994  0.0754 -0.4188
17024TIP3    H172487   4.493   2.793  11.587 -0.1646  0.7895 -0.5750
17024TIP3    H272488   4.605   2.878  11.644 -1.3387  1.5054  0.7382
17025TIP3   OH272489   4.013   3.609   5.632 -0.8475  0.4889  0.2201
17025TIP3    H172490   4.098   3.567   5.619  0.0170  1.8714  1.0986
17025TIP3    H272491   3.975   3.614   5.544  0.8513  1.5607 -0.5140
17026TIP3   OH272492   5.327   2.601   0.567  0.1099  0.2932 -0.7801
17026TIP3    H172493   5.371   2.566   0.644  1.3350  2.0384 -0.6265
17026TIP3    H272494   5.333   2.531   0.502 -0.2090 -0.8861  0.4386
17027TIP3   OH272495   0.676   3.363   6.690  0.1314  0.0797 -0.2925
17027TIP3    H172496   0.705   3.333   6.776 -0.6158 -1.6799 -0.6290
17027TIP3    H272497   0.690   3.288   6.632 -4.4019 -0.7401 -0.6235
17028TIP3   OH272498   5.471   1.234  12.616  0.0640  0.0063  0.3607
17028TIP3    H172499   5.473   1.320  12.656  1.9039  0.8334 -1.3428
17028TIP3    H272500   5.395   1.237  12.558  0.0451  0.4408  0.4037
17029TIP3   OH272501   3.855   3.438   0.409  0.4479 -0.1163 -0.2992
17029TIP3    H172502   3.823   3.463   0.495  1.6413  0.6988 -0.0643
17029TIP3    H272503   3.856   3.520   0.359  3.0642  0.1792  0.0456
17030TIP3   OH272504   2.092   1.171   5.002  0.3482  0.6049  0.0673
17030TIP3    H172505   2.179   1.142   5.028  0.9521  2.5247  0.4000
17030TIP3    H272506   2.107   1.229   4.927 -0.9506 -1.1934 -1.6676
17031TIP3   OH272507   6.125   6.541  15.377  0.0099 -0.6291  0.5130
17031TIP3    H172508   6.153   6.513  15.464 -1.5196  1.7312  1.8469
17031TIP3    H272509   6.157   6.631  15.369  0.6750 -0.9799 -1.6895
17032TIP3   OH272510   4.332   3.908  12.265 -0.5323 -0.3281 -0.5836
17032TIP3    H172511   4.278   3.942  12.194 -0.6627 -2.0177 -1.3468
17032TIP3    H272512   4.282   3.926  12.345 -0.6060  1.1657 -0.9540
17033TIP3   OH272513   0.285   2.298   3.509 -0.1272 -0.2186 -0.5957
17033TIP3    H172514   0.208   2.311   3.564 -0.6005  3.6937 -1.8251
17033TIP3    H272515   0.250   2.272   3.424 -0.2038  1.3869 -1.1041
17034TIP3   OH272516   4.741   0.812  14.153  0.2745 -0.4544  0.6496
17034TIP3    H172517   4.817   0.846  14.199  0.1110  0.3949  0.3185
17034TIP3    H272518   4.686   0.774  14.221 -0.0249  0.8911  1.1928
17035TIP3   OH272519   4.976   5.356   2.305  0.1198  0.2349 -0.2081
17035TIP3    H172520   4.949   5.448   2.303 -0.2758  0.2331  2.0803
17035TIP3    H272521   4.980   5.334   2.398  1.1649 -1.8076 -0.6699
17036TIP3   OH272522   2.839   6.757   1.114  0.2238  0.3644 -0.4660
17036TIP3    H172523   2.824   6.828   1.177 -0.6801  0.0496 -0.3110
17036TIP3    H272524   2.751   6.734   1.084  0.6327  0.4242 -1.7569
17037TIP3   OH272525   2.965   1.121  13.166 -0.4379  0.3924  0.4242
17037TIP3    H172526   2.997   1.035  13.194 -0.3670  0.6163  1.0303
17037TIP3    H272527   3.037   1.157  13.113 -0.2818  0.2705  0.5508
17038TIP3   OH272528   4.160   3.465   3.083 -0.2111 -0.1393 -0.7534
17038TIP3    H172529   4.252   3.443   3.066  0.3132  1.0785  0.3766
17038TIP3    H272530   4.134   3.408   3.155  0.1337  0.5429 -0.0718
17039TIP3   OH272531   4.784   0.035  12.784  0.4668  0.0165  0.5958
17039TIP3    H172532   4.809   0.084  12.706  3.0733 -0.4493  1.0408
17039TIP3    H272533   4.762   0.101  12.849 -0.8413  0.4273 -0.2360
17040TIP3   OH272534   6.680   4.771  14.208  0.7578  0.0540  0.2758
17040TIP3    H172535   6.720   4.772  14.296  2.7379 -0.8811 -0.5526
17040TIP3    H272536   6.653   4.861  14.193  0.7343  0.3066  1.6987
17041TIP3   OH272537   2.635   0.177  11.434 -0.0208 -0.4727 -0.3971
17041TIP3    H172538   2.592   0.256  11.466 -2.2899 -2.0296  0.7403
17041TIP3    H272539   2.728   0.191  11.452 -0.3054  2.0072 -0.5113
17042TIP3   OH272540   6.301   0.778   4.442 -0.4969 -0.0394  0.2284
17042TIP3    H172541   6.259   0.764   4.357 -0.3248 -2.7433  0.5186
17042TIP3    H272542   6.393   0.759   4.426 -0.3945 -0.1438  0.9415
17043TIP3   OH272543   4.088   3.402  16.712 -0.3251  0.0309  0.0579
17043TIP3    H172544   4.079   3.490  16.751  0.6963  0.5073 -0.7356
17043TIP3    H272545   4.006   3.358  16.735  0.5575 -0.0577  3.5437
17044TIP3   OH272546   6.319   1.534   2.046  0.4980  0.0337  0.2701
17044TIP3    H172547   6.223   1.533   2.040  0.5236  0.2534 -0.1922
17044TIP3    H272548   6.347   1.467   1.984  0.6150 -0.6822  1.0808
17045TIP3   OH272549   4.567   2.244  15.933  0.2253  0.0634  0.0832
17045TIP3    H172550   4.556   2.230  16.028  0.2757  1.7324  0.3712
17045TIP3    H272551   4.657   2.273  15.924  0.1380  0.1719 -0.4450
17046TIP3   OH272552   4.212   6.179   4.182 -0.0197  0.1973 -0.1439
17046TIP3    H172553   4.142   6.135   4.134 -1.7908 -0.0457  2.4430
17046TIP3    H272554   4.269   6.107   4.213 -1.1923 -0.0906  1.4830
17047TIP3   OH272555   0.578   3.054  11.993  0.4702  0.2682  0.0475
17047TIP3    H172556   0.492   3.024  11.966 -0.5487  2.5967  0.4285
17047TIP3    H272557   0.631   3.052  11.913 -0.4448  0.4266 -0.5716
17048TIP3   OH272558   4.994   5.336  16.741 -0.2594 -0.3067  0.6824
17048TIP3    H172559   4.926   5.326  16.675 -0.7039  0.5035  0.9927
17048TIP3    H272560   4.946   5.337  16.824  0.2617 -1.0249  0.9987
17049TIP3   OH272561   2.606   4.640  16.641  0.1419 -0.8055 -0.4021
17049TIP3    H172562   2.600   4.729  16.674 -0.6047 -1.1023  0.3064
17049TIP3    H272563   2.569   4.644  16.552  2.9000  0.1587 -1.6170
17050TIP3   OH272564   4.081   6.753   2.552 -0.7187  0.0196  0.4224
17050TIP3    H172565   4.074   6.692   2.625  2.1066 -0.5929  0.2918
17050TIP3    H272566   4.161   6.802   2.569 -1.0399  1.2291 -1.2819
17051TIP3   OH272567   6.073   0.994  15.880  0.3862  0.2666  0.1978
17051TIP3    H172568   6.114   1.057  15.820  0.5752  0.9287  1.0022
17051TIP3    H272569   6.114   0.910  15.859 -0.2287  0.2941 -1.2278
17052TIP3   OH272570   5.510   3.249  13.822 -0.4583 -0.1777 -0.3094
17052TIP3    H172571   5.547   3.218  13.904  1.1399 -0.8425 -1.2288
17052TIP3    H272572   5.526   3.178  13.760 -1.4551  0.3893 -1.2502
17053TIP3   OH272573   2.330   6.566  11.224  0.5024  0.1888 -0.1949
17053TIP3    H172574   2.287   6.598  11.144  0.4304  0.5007 -0.0331
17053TIP3    H272575   2.262   6.515  11.268  0.4620  0.2367 -0.2017
17054TIP3   OH272576   1.048   4.634  14.553 -0.1509 -0.5539 -0.3341
17054TIP3    H172577   1.104   4.577  14.605 -1.0075  0.3858  1.7108
17054TIP3    H272578   0.959   4.615  14.583 -0.6150  0.4601 -1.0057
17055TIP3   OH272579   1.673   3.185   2.200  0.4719  0.5396 -0.0940
17055TIP3    H172580   1.690   3.097   2.233  1.1426  0.0110 -1.7320
17055TIP3    H272581   1.580   3.185   2.176  0.0454  0.8490  1.4770
17056TIP3   OH272582   2.958   5.435   2.834 -0.3858  0.1555 -0.2512
17056TIP3    H172583   2.980   5.460   2.924 -0.9291 -0.9538  0.1997
17056TIP3    H272584   3.016   5.361   2.815 -1.8099 -1.0523 -0.0057
17057TIP3   OH272585   4.839   0.869   0.737 -0.5355 -0.0562 -0.4326
17057TIP3    H172586   4.767   0.892   0.796 -0.8914  2.0836 -1.6018
17057TIP3    H272587   4.914   0.854   0.795 -1.5318 -0.7742  0.7074
17058TIP3   OH272588   2.378   6.267   0.724  0.2558  0.3914 -0.0790
17058TIP3    H172589   2.382   6.195   0.661 -0.3009 -1.1486  1.5572
17058TIP3    H272590   2.286   6.294   0.725  0.4951  1.3318 -0.8335
17059TIP3   OH272591   3.622   2.604   1.098 -0.0422 -0.2450  0.2297
17059TIP3    H172592   3.624   2.649   1.013  2.3254 -0.8063 -0.0784
17059TIP3    H272593   3.529   2.584   1.112 -0.6407  0.9204 -1.6367
17060TIP3   OH272594   4.150   2.774   1.005  0.1558 -0.6091 -0.7577
17060TIP3    H172595   4.187   2.707   0.946  2.2002  0.5391 -0.8996
17060TIP3    H272596   4.187   2.856   0.973 -3.0306  0.7843 -1.1734
17061TIP3   OH272597   2.101   2.830  15.466 -0.0066  0.0597 -0.5864
17061TIP3    H172598   2.029   2.819  15.404 -0.7550  1.4565 -0.0106
17061TIP3    H272599   2.159   2.894  15.424  0.0544  0.1589 -0.3543
17062TIP3   OH272600   1.523   1.565  12.999  0.2136 -0.6816  0.0671
17062TIP3    H172601   1.465   1.613  12.940  2.8136  1.9826 -0.5572
17062TIP3    H272602   1.542   1.627  13.069  3.0077 -0.9949 -0.2872
17063TIP3   OH272603   6.301   3.269  12.266  0.1753  0.2700  0.1457
17063TIP3    H172604   6.329   3.252  12.356 -0.4461 -0.3658  0.2314
17063TIP3    H272605   6.313   3.363  12.254 -0.5684  0.5121  1.1926
17064TIP3   OH272606   0.077   3.717  13.931 -0.2409 -0.0620  0.6635
17064TIP3    H172607   0.031   3.771  13.867  0.4116 -0.6607 -0.3487
17064TIP3    H272608   0.169   3.729  13.911 -0.0763 -1.4103  0.5126
17065TIP3   OH272609   5.667   1.109   3.384  0.3583  0.1253  0.9901
17065TIP3    H172610   5.610   1.186   3.391 -0.1470  0.1723 -2.0238
17065TIP3    H272611   5.755   1.145   3.389  0.1326  1.0314 -0.5706
17066TIP3   OH272612   3.480   2.296   3.931 -0.2249  0.0124 -0.9424
17066TIP3    H172613   3.570   2.289   3.898  0.0984 -0.2040 -0.0475
17066TIP3    H272614   3.478   2.380   3.976  0.0817 -0.7877  0.6197
17067TIP3   OH272615   3.511   0.753   3.096  0.4651  0.6234 -0.0443
17067TIP3    H172616   3.543   0.784   3.012  1.6298  0.8744  0.4717
17067TIP3    H272617   3.529   0.825   3.157 -0.2659  0.4067  0.4527
17068TIP3   OH272618   3.782   4.957  11.885  0.2894  0.1653  0.7601
17068TIP3    H172619   3.797   5.012  11.808 -0.6522 -0.3753  0.1712
17068TIP3    H272620   3.687   4.954  11.894  0.3262 -1.2593  0.8473
17069TIP3   OH272621   5.312   6.667   0.496 -0.2640  0.1424 -0.0510
17069TIP3    H172622   5.321   6.590   0.553 -1.1132  0.2673  0.2636
17069TIP3    H272623   5.231   6.650   0.446 -1.6470  1.7637  1.5194
17070TIP3   OH272624   4.227   3.663   1.551  0.0213  0.0586  0.2254
17070TIP3    H172625   4.261   3.582   1.586 -2.5675 -1.9980 -1.5860
17070TIP3    H272626   4.151   3.637   1.499 -0.6088  3.5880 -0.9379
17071TIP3   OH272627   0.698   4.111   0.365 -0.0403  0.2266  0.0431
17071TIP3    H172628   0.785   4.102   0.326  0.3503  2.3360  0.3074
17071TIP3    H272629   0.669   4.021   0.380  0.8427 -0.6227 -2.7202
17072TIP3   OH272630   4.390   0.815   3.116  0.3365 -0.4713  0.0843
17072TIP3    H172631   4.484   0.830   3.132  0.3108  0.2010 -0.3560
17072TIP3    H272632   4.346   0.868   3.183  0.2623 -1.1728  0.6092
17073TIP3   OH272633   0.416   1.749   2.835  0.2445 -0.1391 -0.2724
17073TIP3    H172634   0.461   1.732   2.753  1.0047  1.2570 -0.1815
17073TIP3    H272635   0.426   1.844   2.849 -2.0778  0.0904  0.1432
17074TIP3   OH272636   1.339   3.195  15.747 -0.2263  0.4195 -0.5898
17074TIP3    H172637   1.308   3.189  15.838 -0.3601  0.9518 -0.6020
17074TIP3    H272638   1.416   3.139  15.745  0.4683  1.3231  0.1446
17075TIP3   OH272639   4.038   1.566  14.310  0.7535 -0.1292  0.7843
17075TIP3    H172640   4.031   1.503  14.239  1.3204 -0.2070  0.7927
17075TIP3    H272641   4.027   1.651  14.268 -0.8333 -0.2566  0.8923
17076TIP3   OH272642   5.777   2.883   1.694 -0.1150  0.2101  0.3357
17076TIP3    H172643   5.770   2.794   1.659  1.3506  0.6768 -1.2437
17076TIP3    H272644   5.704   2.930   1.653  0.1969  0.1779 -0.2607
17077TIP3   OH272645   2.429   3.775   6.446 -0.2476 -0.2993 -0.0806
17077TIP3    H172646   2.372   3.772   6.523 -0.0592  0.1618  0.0779
17077TIP3    H272647   2.511   3.736   6.476  0.0496  0.4775  0.1503
17078TIP3   OH272648   5.770   2.154   4.568 -0.0777 -0.1716 -0.2380
17078TIP3    H172649   5.847   2.211   4.571 -0.5939  0.5201  2.0150
17078TIP3    H272650   5.696   2.215   4.563 -0.5482 -0.7623 -0.5908
17079TIP3   OH272651   5.498   4.976  13.589  0.1930 -0.1909 -0.1392
17079TIP3    H172652   5.507   4.881  13.583 -0.1162 -0.2371  0.1065
17079TIP3    H272653   5.528   5.009  13.504  0.2515 -0.5113 -0.2423
17080TIP3   OH272654   0.741   6.533  16.814 -0.3403 -0.0651  0.3770
17080TIP3    H172655   0.652   6.549  16.782 -0.3593 -0.7651  0.0791
17080TIP3    H272656   0.760   6.443  16.790  1.4100  0.8038 -1.8690
17081TIP3   OH272657   3.017   4.637  15.001 -0.4637  0.5592  0.1616
17081TIP3    H172658   2.986   4.675  15.084 -3.7899  0.3552 -0.8368
17081TIP3    H272659   3.019   4.543  15.017 -0.8467  0.5392  0.1015
17082TIP3   OH272660   6.790   6.160  12.792 -0.2715 -0.1237  0.0752
17082TIP3    H172661   6.829   6.111  12.864 -0.8564  0.0969  0.5512
17082TIP3    H272662   6.853   6.230  12.773  0.4078 -0.8472 -0.3828
17083TIP3   OH272663   0.112   4.992  15.492  0.1522 -0.0740  0.7436
17083TIP3    H172664   0.204   4.968  15.494  0.1730 -0.1900 -0.5280
17083TIP3    H272665   0.110   5.081  15.526  0.8696  0.2581 -0.0260
17084TIP3   OH272666   5.098   0.439   6.650 -0.2830 -0.1575  0.2607
17084TIP3    H172667   5.039   0.458   6.578  0.7116 -0.0660 -0.5493
17084TIP3    H272668   5.163   0.509   6.649 -0.8258  0.4125  1.8973
17085TIP3   OH272669   4.623   5.549   4.005 -0.0355 -0.1626  0.1825
17085TIP3    H172670   4.702   5.574   4.052 -0.3628 -0.6181  0.9935
17085TIP3    H272671   4.615   5.454   4.019  0.3493 -0.4929 -1.5530
17086TIP3   OH272672   5.902   3.242  11.489  0.1535 -0.3415  0.1150
17086TIP3    H172673   5.809   3.264  11.501  0.5633  1.3004  0.5552
17086TIP3    H272674   5.945   3.278  11.567  1.3681  0.3473 -0.8487
17087TIP3   OH272675   1.696   1.356   4.370 -0.4067  0.0824 -0.1176
17087TIP3    H172676   1.764   1.317   4.425 -0.2145  0.7031  0.0873
17087TIP3    H272677   1.652   1.419   4.427 -0.7230  0.1623 -0.4440
17088TIP3   OH272678   2.741   1.383  15.154  0.1646 -0.0275  0.2189
17088TIP3    H172679   2.822   1.349  15.194 -0.0058  1.1285  1.6305
17088TIP3    H272680   2.761   1.474  15.133 -0.5156  0.0370 -0.1644
17089TIP3   OH272681   2.909   0.133   0.365 -0.1882  0.1378 -0.4393
17089TIP3    H172682   2.816   0.146   0.382 -0.9480 -0.5982 -3.4068
17089TIP3    H272683   2.922   0.038   0.371  0.8989  0.3698  1.9233
17090TIP3   OH272684   3.084   1.278  15.578  0.1326  0.4245  0.2582
17090TIP3    H172685   3.132   1.268  15.496 -1.2845  0.1668 -0.5769
17090TIP3    H272686   2.996   1.248  15.558 -0.5983  1.5958  1.5217
17091TIP3   OH272687   5.583   0.989  13.919 -0.1420  0.3781 -0.1836
17091TIP3    H172688   5.574   0.907  13.968  2.3775 -0.1740 -0.4942
17091TIP3    H272689   5.559   0.965  13.829 -0.2531  0.1746 -0.1010
17092TIP3   OH272690   4.354   1.159  13.585  0.3591  0.1642 -0.3711
17092TIP3    H172691   4.447   1.165  13.564  0.7915  2.3134  1.7274
17092TIP3    H272692   4.351   1.113  13.669 -0.5785 -0.6123 -0.8018
17093TIP3   OH272693   2.056   6.005   3.798  0.1295 -0.1196  0.4022
17093TIP3    H172694   2.040   6.094   3.766 -2.0488 -0.4428  0.4030
17093TIP3    H272695   2.005   5.950   3.738  2.9716 -1.6257 -0.8177
17094TIP3   OH272696   0.532   4.507  16.401  0.1308  0.2662 -0.0970
17094TIP3    H172697   0.561   4.593  16.370 -0.0271  0.2201 -0.3780
17094TIP3    H272698   0.557   4.447  16.331 -0.1967  0.1552 -0.1195
17095TIP3   OH272699   1.544   5.626  15.638 -0.5079 -0.1155  0.7445
17095TIP3    H172700   1.474   5.573  15.600  0.6072 -1.3980  0.4090
17095TIP3    H272701   1.509   5.716  15.638 -2.1352 -0.7154  0.5933
17096TIP3   OH272702   0.408   6.579  13.826  0.2899 -0.6218  0.3098
17096TIP3    H172703   0.421   6.657  13.880  2.0427 -0.4013 -0.3710
17096TIP3    H272704   0.327   6.540  13.860  0.3906  0.4571  1.9197
17097TIP3   OH272705   0.286   0.099  11.565 -0.0160  0.5130 -0.1715
17097TIP3    H172706   0.338   0.176  11.586 -0.2212  0.6190 -0.0485
17097TIP3    H272707   0.225   0.091  11.638 -0.5724  0.7366 -0.6038
17098TIP3   OH272708   6.615   0.608  17.051 -0.0519  0.3757 -0.3880
17098TIP3    H172709   6.580   0.640  16.968  0.2474  0.6258 -0.4212
17098TIP3    H272710   6.689   0.551  17.026 -0.3027  0.0150 -0.3134
17099TIP3   OH272711   5.597   0.573  14.682  0.2018  0.4919 -0.7029
17099TIP3    H172712   5.509   0.557  14.648 -0.0956  0.3833  0.1129
17099TIP3    H272713   5.654   0.553  14.607 -0.5000  1.5120 -1.5372
17100TIP3   OH272714   5.825   6.790   0.655 -0.0415 -0.4148  0.1664
17100TIP3    H172715   5.732   6.808   0.643  0.3943  0.9203 -1.6554
17100TIP3    H272716   5.838   6.704   0.616 -0.6107 -0.9089  1.0361
17101TIP3   OH272717   4.892   6.085   4.064  0.1286 -0.0017  0.6765
17101TIP3    H172718   4.915   6.115   4.152  0.8616  2.1402 -0.1873
17101TIP3    H272719   4.973   6.095   4.014 -0.4549 -0.5631 -0.3911
17102TIP3   OH272720   1.318   3.970   2.190  0.6677 -0.1211  0.1757
17102TIP3    H172721   1.330   3.967   2.096 -0.8219  1.8841 -0.1444
17102TIP3    H272722   1.244   3.911   2.206  0.6084 -0.0904  0.0170
17103TIP3   OH272723   2.320   1.488   4.180  0.0329 -0.0370  0.2336
17103TIP3    H172724   2.280   1.467   4.096  1.9638  0.3902 -0.8597
17103TIP3    H272725   2.266   1.442   4.245 -2.0647  0.3692 -1.1121
17104TIP3   OH272726   5.866   3.831   1.494 -0.0420 -0.2297  0.1385
17104TIP3    H172727   5.776   3.864   1.502 -0.7742 -1.0878 -3.0725
17104TIP3    H272728   5.866   3.748   1.541 -0.7996  0.0226  0.5889
17105TIP3   OH272729   3.277   0.485  11.950 -0.1239 -0.9615 -0.0238
17105TIP3    H172730   3.360   0.510  11.910 -0.8792  0.3392 -0.8475
17105TIP3    H272731   3.260   0.397  11.916 -0.8702  0.1809 -2.9400
17106TIP3   OH272732   2.809   0.177  15.360 -0.0928 -0.2107 -0.2863
17106TIP3    H172733   2.855   0.162  15.443 -0.1747 -0.1313 -0.2265
17106TIP3    H272734   2.731   0.226  15.385  0.6851  1.2447 -0.5940
17107TIP3   OH272735   3.539   5.252  12.624 -0.0678  0.1804  0.1595
17107TIP3    H172736   3.579   5.279  12.542 -0.5206 -2.9752 -1.2679
17107TIP3    H272737   3.579   5.308  12.691  2.5482  0.8596 -1.8359
17108TIP3   OH272738   4.578   6.647  12.503  0.0426  0.1611  0.1051
17108TIP3    H172739   4.484   6.646  12.520  0.1843 -0.3769  0.9058
17108TIP3    H272740   4.591   6.583  12.433  0.3202 -3.2862  3.0438
17109TIP3   OH272741   2.541   4.030   2.811 -0.5009  0.0520  0.0345
17109TIP3    H172742   2.580   3.981   2.739  0.7761  1.3838 -0.2302
17109TIP3    H272743   2.548   3.972   2.887  1.1289 -0.1331 -0.2255
17110TIP3   OH272744   0.451   4.105  15.973 -0.2290 -0.5241  0.6847
17110TIP3    H172745   0.380   4.170  15.970 -0.4452 -0.7864  0.0439
17110TIP3    H272746   0.435   4.056  16.054 -0.0217  0.2515  1.2197
17111TIP3   OH272747   6.243   5.292   2.684  0.2388 -0.1472  0.1635
17111TIP3    H172748   6.303   5.353   2.728  2.3738 -2.0290  0.0316
17111TIP3    H272749   6.296   5.250   2.617 -1.8931 -0.2850 -1.5301
17112TIP3   OH272750   3.234   4.562  16.797 -0.1620  0.4319 -0.0687
17112TIP3    H172751   3.299   4.492  16.806  0.9133  1.5423  1.3902
17112TIP3    H272752   3.243   4.592  16.707  1.8049  0.9106  0.2301
17113TIP3   OH272753   6.186   3.074  14.804  0.0312  0.3080 -0.5455
17113TIP3    H172754   6.143   3.100  14.722  0.9475  1.8007 -0.5990
17113TIP3    H272755   6.263   3.131  14.809  0.3903 -0.2750  0.9937
17114TIP3   OH272756   1.985   0.272   5.435  0.1307 -0.4274 -0.0072
17114TIP3    H172757   2.032   0.288   5.517  1.6650 -1.5281 -0.6148
17114TIP3    H272758   1.932   0.194   5.453 -3.2627  1.9334  1.3216
17115TIP3   OH272759   3.526   1.433   2.112  0.7571 -0.5549 -0.2687
17115TIP3    H172760   3.607   1.414   2.160  0.4162  0.0872  0.5795
17115TIP3    H272761   3.539   1.520   2.076 -0.0468  0.0949  0.9617
17116TIP3   OH272762   2.026   1.659   2.946 -0.1127 -0.6265  0.6035
17116TIP3    H172763   1.974   1.595   2.897 -0.2624  0.2731 -0.4506
17116TIP3    H272764   2.109   1.663   2.898 -0.5570  0.8689 -0.1002
17117TIP3   OH272765   3.897   2.807   2.844 -0.1299  0.9090  0.1250
17117TIP3    H172766   3.886   2.832   2.752  0.3462 -1.7502 -0.7384
17117TIP3    H272767   3.989   2.828   2.864  0.3621 -0.4082 -0.6798
17118TIP3   OH272768   2.586   6.373   1.191  0.1409  0.4179 -0.5737
17118TIP3    H172769   2.570   6.465   1.213 -0.2940  0.1236  0.3276
17118TIP3    H272770   2.547   6.362   1.104  2.1378  1.6543 -1.7244
17119TIP3   OH272771   1.846   1.530  16.441 -0.3475 -0.1087  0.0785
17119TIP3    H172772   1.878   1.484  16.518  1.1977  0.2784 -0.3094
17119TIP3    H272773   1.855   1.467  16.369  0.9509  0.4646 -0.2921
17120TIP3   OH272774   1.592   5.000  11.467 -0.1204 -0.2033 -0.3931
17120TIP3    H172775   1.674   5.021  11.512  0.8662  0.3859 -2.3634
17120TIP3    H272776   1.571   4.911  11.494  0.9997 -0.2520  0.3596
17121TIP3   OH272777   0.302   3.853   4.876 -0.0434  0.1519 -0.1191
17121TIP3    H172778   0.247   3.805   4.937 -2.2772  1.2969 -1.0970
17121TIP3    H272779   0.310   3.795   4.800  1.8415 -0.8292  0.7686
17122TIP3   OH272780   0.172   4.450   4.224 -0.0780 -0.3250  0.4095
17122TIP3    H172781   0.201   4.532   4.265 -0.0868  0.3189 -0.8334
17122TIP3    H272782   0.117   4.478   4.151 -1.1819 -1.4769  0.7679
17123TIP3   OH272783   0.962   2.669  15.345 -0.2217  0.5896  0.0880
17123TIP3    H172784   1.057   2.671  15.332  0.1744 -0.1752  2.3510
17123TIP3    H272785   0.951   2.636  15.434 -2.6524  0.0762 -0.3303
17124TIP3   OH272786   5.715   4.890  11.412 -0.0487  0.1269 -0.6351
17124TIP3    H172787   5.693   4.849  11.328  1.8943  0.5252 -1.3903
17124TIP3    H272788   5.805   4.922  11.400  0.3303  0.0735  1.6479
17125TIP3   OH272789   6.718   2.893   2.955 -0.0069 -0.0570  0.1283
17125TIP3    H172790   6.647   2.860   3.010 -1.2118  0.4557 -1.0596
17125TIP3    H272791   6.773   2.944   3.014  0.6597 -2.2540  1.5418
17126TIP3   OH272792   6.556   3.548  12.180 -0.0403  0.0829  0.2935
17126TIP3    H172793   6.471   3.582  12.206  0.8596  2.3705  0.4235
17126TIP3    H272794   6.611   3.557  12.258  0.5797 -0.5247 -0.0546
17127TIP3   OH272795   1.657   0.981   5.160  0.4690 -0.1578  0.8755
17127TIP3    H172796   1.627   1.067   5.133 -0.0548 -0.6477 -0.1711
17127TIP3    H272797   1.704   0.996   5.242  2.0811  1.4154 -0.2483
17128TIP3   OH272798   6.046   2.279  15.271  0.3359  0.2504  0.0560
17128TIP3    H172799   6.108   2.206  15.273 -0.4817 -0.5153 -0.8989
17128TIP3    H272800   5.960   2.236  15.266 -0.4601  1.2326  3.3174
17129TIP3   OH272801   5.793   5.809  16.780 -0.3010 -0.6522 -0.1608
17129TIP3    H172802   5.769   5.870  16.710 -2.9463 -0.5655  0.7229
17129TIP3    H272803   5.815   5.866  16.854  1.7206 -0.7603 -0.6282
17130TIP3   OH272804   2.186   3.198  15.461  0.4391  0.5182 -0.3733
17130TIP3    H172805   2.255   3.133  15.449 -0.7443 -0.9296  0.3058
17130TIP3    H272806   2.108   3.159  15.421 -0.1834  1.7686 -0.4524
17131TIP3   OH272807   0.445   4.710  14.827 -0.5702  0.5941 -0.4485
17131TIP3    H172808   0.441   4.641  14.761 -1.6726  1.9446 -1.8585
17131TIP3    H272809   0.530   4.753  14.812  0.2897 -0.6426  0.6821
17132TIP3   OH272810   6.598   0.487   0.744 -0.0602 -0.0044  0.2312
17132TIP3    H172811   6.552   0.502   0.661  0.8224 -0.4343 -0.3574
17132TIP3    H272812   6.560   0.551   0.804 -1.1521 -0.0893 -0.3287
17133TIP3   OH272813   2.297   3.329  10.417 -0.0971  0.1275  0.2093
17133TIP3    H172814   2.379   3.304  10.461  0.5225 -1.8672 -1.8453
17133TIP3    H272815   2.231   3.273  10.457  0.1842 -0.6092 -0.3337
17134TIP3   OH272816   3.479   0.368   0.494 -0.3240  0.1713 -0.3244
17134TIP3    H172817   3.407   0.404   0.545  0.7735 -0.8149  2.0661
17134TIP3    H272818   3.536   0.443   0.477 -0.8527  0.5674 -0.3797
17135TIP3   OH272819   4.200   5.913   1.912  0.4828 -0.1243  0.5981
17135TIP3    H172820   4.109   5.930   1.888  0.0493 -1.6829  1.0174
17135TIP3    H272821   4.221   5.830   1.868  1.8033  0.3731  0.2548
17136TIP3   OH272822   0.229   1.203  15.153 -0.2672 -0.5064  0.2881
17136TIP3    H172823   0.181   1.258  15.215 -0.4136  1.9218 -1.7888
17136TIP3    H272824   0.317   1.242  15.150  0.7288 -2.5370  1.2134
17137TIP3   OH272825   0.239   2.459   4.219  0.0672  0.3995  0.0763
17137TIP3    H172826   0.223   2.375   4.261  0.6364  0.2407 -0.0124
17137TIP3    H272827   0.194   2.453   4.134  0.7185 -0.1006 -0.2437
17138TIP3   OH272828   4.606   5.224  15.325 -0.6617  0.2729  0.1463
17138TIP3    H172829   4.699   5.229  15.349 -0.9203 -0.1213  1.2994
17138TIP3    H272830   4.576   5.141  15.363 -1.7456  0.9220  0.7718
17139TIP3   OH272831   3.091   2.710   3.859 -0.2171 -0.8334 -0.0244
17139TIP3    H172832   3.098   2.781   3.795  0.5624 -0.4123  0.5201
17139TIP3    H272833   3.143   2.639   3.821  2.3782  0.2576  1.2348
17140TIP3   OH272834   5.623   2.587  13.851  0.3262  0.1426 -0.2062
17140TIP3    H172835   5.579   2.653  13.798  0.1498  0.4270  0.2796
17140TIP3    H272836   5.593   2.504  13.815 -1.7293  0.3023  0.9493
17141TIP3   OH272837   5.595   0.204   5.078  0.0676  0.2426  0.0700
17141TIP3    H172838   5.666   0.251   5.035 -1.4216  2.2453 -0.3336
17141TIP3    H272839   5.624   0.195   5.169  0.8455  1.0161 -0.0940
17142TIP3   OH272840   1.461   6.151  15.884  0.3380  0.3191  0.4076
17142TIP3    H172841   1.455   6.056  15.869 -1.6753  0.6409 -1.2307
17142TIP3    H272842   1.541   6.177  15.837  0.4374 -0.4510  0.1291
17143TIP3   OH272843   6.082   6.169   1.702 -0.1141 -0.2673 -0.4062
17143TIP3    H172844   6.014   6.216   1.750  0.0547  0.0003 -0.4268
17143TIP3    H272845   6.080   6.081   1.739 -0.0867 -0.1050 -0.0066
17144TIP3   OH272846   0.361   4.260  12.088  0.0789  0.1645  0.3241
17144TIP3    H172847   0.418   4.188  12.061 -0.2809 -0.1625  0.4221
17144TIP3    H272848   0.416   4.338  12.081  0.4589 -0.1118  0.1685
17145TIP3   OH272849   5.880   4.165   0.385 -0.8060 -0.2612  0.1450
17145TIP3    H172850   5.920   4.246   0.353 -0.5314  0.5001  2.2414
17145TIP3    H272851   5.869   4.111   0.307  2.2480  0.3768 -0.8759
17146TIP3   OH272852   5.500   6.012   1.061  0.1777  0.5819  0.5004
17146TIP3    H172853   5.446   6.091   1.065 -0.1977  0.4860 -1.5534
17146TIP3    H272854   5.453   5.948   1.114 -1.5131  0.6569 -0.8313
17147TIP3   OH272855   6.281   6.251   4.240  0.4250  0.3968 -0.0457
17147TIP3    H172856   6.224   6.326   4.226 -0.8545 -0.7214 -1.1782
17147TIP3    H272857   6.303   6.221   4.152  0.6779 -0.7216  0.3824
17148TIP3   OH272858   6.722   1.191  15.076  0.5200  0.1420  0.6568
17148TIP3    H172859   6.765   1.263  15.121 -2.7005  1.1026  2.4473
17148TIP3    H272860   6.669   1.233  15.008 -0.8916 -0.5269  1.2999
17149TIP3   OH272861   3.609   2.195  12.048 -0.2838 -0.1007  0.5638
17149TIP3    H172862   3.624   2.221  11.957  1.7859  0.0411  0.9004
17149TIP3    H272863   3.514   2.189  12.056 -0.5081 -0.2091 -1.6263
17150TIP3   OH272864   2.242   2.423   5.745  0.1097 -0.0092 -0.3394
17150TIP3    H172865   2.297   2.361   5.697  0.3899  0.8428 -1.1470
17150TIP3    H272866   2.265   2.508   5.708  0.1880  0.6542  1.1698
17151TIP3   OH272867   2.557   2.435  14.901 -0.0807  0.1374 -0.2016
17151TIP3    H172868   2.466   2.405  14.903 -0.3307  0.6899 -1.6760
17151TIP3    H272869   2.552   2.520  14.856  1.1341  0.2951 -0.0515
17152TIP3   OH272870   5.103   2.630  11.195 -0.1176  0.6327  0.2370
17152TIP3    H172871   5.033   2.696  11.188 -0.0976  0.8152  1.4976
17152TIP3    H272872   5.175   2.676  11.236 -0.0055 -0.1069  0.8874
17153TIP3   OH272873   2.016   5.589   1.275 -0.3869  1.0219  0.2404
17153TIP3    H172874   2.056   5.505   1.298 -1.3906  0.1940 -0.9309
17153TIP3    H272875   1.922   5.574   1.281 -0.7636  0.8585 -3.6357
17154TIP3   OH272876   2.556   6.729   3.284 -0.4279 -0.2305 -0.7717
17154TIP3    H172877   2.484   6.699   3.230  1.0047 -2.2954 -1.6501
17154TIP3    H272878   2.521   6.727   3.373 -1.7426 -0.1975 -1.2640
17155TIP3   OH272879   0.358   4.824  12.834  0.2180 -0.2675 -0.2528
17155TIP3    H172880   0.431   4.783  12.788  2.4535  2.9950  0.0653
17155TIP3    H272881   0.359   4.785  12.921  1.4182 -0.4686 -0.3436
17156TIP3   OH272882   0.274   5.830   1.733 -0.2205  0.6940  0.5757
17156TIP3    H172883   0.321   5.750   1.709  0.4449  1.9218 -2.7834
17156TIP3    H272884   0.185   5.800   1.755 -0.1284 -0.9472 -1.0621
17157TIP3   OH272885   2.096   5.844   0.200 -0.1552  0.2759 -0.9785
17157TIP3    H172886   2.182   5.820   0.165 -0.7507 -1.9797 -1.0799
17157TIP3    H272887   2.113   5.867   0.291  0.7384  1.3885 -1.3986
17158TIP3   OH272888   3.991   0.708   3.748 -0.4479 -0.1399  0.1851
17158TIP3    H172889   4.012   0.773   3.682 -0.0061 -0.0858  0.3776
17158TIP3    H272890   3.905   0.673   3.722 -1.2079  1.2824  0.6838
17159TIP3   OH272891   0.933   2.205   3.719 -0.2357  0.1139  0.3151
17159TIP3    H172892   0.860   2.154   3.755 -0.7027  0.5176 -0.0451
17159TIP3    H272893   0.982   2.234   3.796 -1.9455  2.0459  0.7660
17160TIP3   OH272894   0.094   3.889  16.503  0.0585 -0.6841  0.2145
17160TIP3    H172895   0.037   3.927  16.436 -1.6502 -2.5269  0.5244
17160TIP3    H272896   0.086   3.948  16.578  1.4955  1.0485 -0.9170
17161TIP3   OH272897   1.906   2.748  11.449  1.0921 -0.5387 -0.1835
17161TIP3    H172898   1.845   2.721  11.380  2.4766 -1.0591 -1.2658
17161TIP3    H272899   1.860   2.730  11.531 -0.3475 -0.5235 -0.9665
17162TIP3   OH272900   1.169   4.226  13.323  0.3247  0.3289 -0.1928
17162TIP3    H172901   1.140   4.305  13.369 -0.8504  0.2934 -0.8236
17162TIP3    H272902   1.263   4.222  13.339 -0.1500 -0.3024  3.1333
17163TIP3   OH272903   0.337   6.251   0.300 -0.0313  0.5796  0.2535
17163TIP3    H172904   0.358   6.263   0.393  0.4050  1.5642  0.0423
17163TIP3    H272905   0.351   6.337   0.261 -0.6016  0.2738 -0.6579
17164TIP3   OH272906   6.526   1.170   4.739  0.1060  0.6371 -0.5229
17164TIP3    H172907   6.485   1.255   4.752  0.3920  0.5770  0.9858
17164TIP3    H272908   6.462   1.120   4.690 -1.2910  0.8511  0.9848
17165TIP3   OH272909   5.590   6.608  12.108 -0.9615 -0.0083 -0.2941
17165TIP3    H172910   5.670   6.660  12.103 -2.9270  3.2464 -0.7128
17165TIP3    H272911   5.616   6.522  12.077  2.2403  1.0411 -0.9496
17166TIP3   OH272912   5.812   5.169  14.515  0.3941  0.5835 -0.0451
17166TIP3    H172913   5.734   5.223  14.529  0.2773  0.2744  0.5111
17166TIP3    H272914   5.877   5.230  14.479 -0.1294  0.8250 -0.6032
17167TIP3   OH272915   0.211   1.829  16.905  0.3160 -0.3941 -0.6290
17167TIP3    H172916   0.200   1.808  16.812 -0.6516 -0.8373 -0.4336
17167TIP3    H272917   0.305   1.824  16.921  0.3543 -1.8699 -1.2345
17168TIP3   OH272918   0.848   1.574  12.926  0.2468 -0.3250 -0.5801
17168TIP3    H172919   0.799   1.500  12.961 -0.7851  0.3328 -0.6070
17168TIP3    H272920   0.937   1.561  12.959  0.0042 -1.3834 -0.3011
17169TIP3   OH272921   6.152   4.221   2.587 -0.0780  0.3348 -0.5689
17169TIP3    H172922   6.152   4.288   2.519  0.9365  0.4848 -0.4415
17169TIP3    H272923   6.186   4.142   2.544 -0.9513 -0.0193 -0.6332
17170TIP3   OH272924   3.563   3.837   2.706  0.3071 -0.3718  0.0498
17170TIP3    H172925   3.495   3.807   2.645 -0.5180  0.6298  0.4376
17170TIP3    H272926   3.547   3.931   2.715 -0.0096 -0.5709  2.2659
17171TIP3   OH272927   6.201   4.899   1.750  0.3604 -0.5492  0.4091
17171TIP3    H172928   6.111   4.923   1.726 -0.0902  0.1469  2.5763
17171TIP3    H272929   6.191   4.821   1.804  1.0889 -0.5476  0.5525
17172TIP3   OH272930   1.969   0.658   5.424 -0.0542  0.0869 -0.0081
17172TIP3    H172931   1.934   0.614   5.501  0.4232 -0.3813 -0.0508
17172TIP3    H272932   2.001   0.742   5.457  0.4196 -0.2313  0.3676
17173TIP3   OH272933   5.306   5.954   4.117  0.2545  0.2362 -0.2761
17173TIP3    H172934   5.335   6.015   4.185  0.1249 -0.5105  0.4702
17173TIP3    H272935   5.214   5.977   4.102  0.1515  0.1158  0.1400
17174TIP3   OH272936   1.227   4.400   4.662  0.7970 -0.0607  0.1713
17174TIP3    H172937   1.132   4.404   4.672  0.6304  2.8110 -1.5729
17174TIP3    H272938   1.261   4.438   4.742  0.4925 -0.8772  0.7008
17175TIP3   OH272939   6.749   6.094   1.350 -0.6822 -0.6699  0.1541
17175TIP3    H172940   6.716   6.183   1.363  1.0402  0.3756 -2.0104
17175TIP3    H272941   6.809   6.079   1.423 -1.0849 -0.1136  0.6019
17176TIP3   OH272942   6.578   0.200   2.187  0.1543 -0.2896 -0.1156
17176TIP3    H172943   6.662   0.231   2.151 -0.5135 -0.4159 -1.8799
17176TIP3    H272944   6.602   0.157   2.269  1.7193  0.3969 -0.1743
17177TIP3   OH272945   6.105   0.667  11.802  0.0886 -0.6408  0.2803
17177TIP3    H172946   6.061   0.614  11.868  1.0144  0.9616  2.3270
17177TIP3    H272947   6.197   0.641  11.808  0.2571 -0.1329 -0.0268
17178TIP3   OH272948   3.971   6.792  13.323  0.0081 -0.1976 -0.0066
17178TIP3    H172949   3.978   6.826  13.412 -1.8293 -0.3524  0.2453
17178TIP3    H272950   3.904   6.846  13.282  0.5251 -0.4058 -1.1621
17179TIP3   OH272951   2.361   0.719   0.547  0.7259 -0.2980  0.0366
17179TIP3    H172952   2.368   0.787   0.615  0.2278 -0.4371  0.2343
17179TIP3    H272953   2.389   0.639   0.591 -0.2602 -0.5156  0.2890
17180TIP3   OH272954   4.400   5.405  11.032 -0.3536 -0.4413 -0.6194
17180TIP3    H172955   4.443   5.450  11.105 -0.5718  0.2770 -0.9240
17180TIP3    H272956   4.418   5.460  10.956  0.3222 -1.4563 -1.2206
17181TIP3   OH272957   1.197   6.033   2.020  0.0889  0.5266  0.0669
17181TIP3    H172958   1.253   5.963   1.986  0.2248  1.3250 -1.4764
17181TIP3    H272959   1.140   6.055   1.946 -0.9722  1.0383  1.0034
17182TIP3   OH272960   2.463   2.228  12.191 -0.9136  0.2625 -0.5609
17182TIP3    H172961   2.432   2.138  12.191  0.0033 -0.0727 -0.2075
17182TIP3    H272962   2.557   2.221  12.172 -0.7925  1.1195 -0.3360
17183TIP3   OH272963   1.657   3.964  13.827 -0.1633  1.0788 -0.6464
17183TIP3    H172964   1.582   3.920  13.867  1.7890 -1.7198  0.3011
17183TIP3    H272965   1.622   4.002  13.747 -2.9277  1.4740  0.6119
17184TIP3   OH272966   2.008   0.890   5.618  0.5164  0.0104  0.2299
17184TIP3    H172967   1.918   0.921   5.605 -0.1317 -1.4422  0.9875
17184TIP3    H272968   2.062   0.955   5.574 -0.8439  1.3892  0.5088
17185TIP3   OH272969   0.701   4.998  11.468  0.3991  0.5631  0.2162
17185TIP3    H172970   0.638   5.069  11.462  0.6935  0.7315 -1.3768
17185TIP3    H272971   0.753   5.018  11.546 -0.7498  1.0377  0.8790
17186TIP3   OH272972   1.283   2.501   4.576 -0.4142  0.2088 -0.2170
17186TIP3    H172973   1.270   2.547   4.659  1.9075 -0.6249  0.7016
17186TIP3    H272974   1.376   2.513   4.556 -0.9512  0.6010 -2.8768
17187TIP3   OH272975   3.979   5.081   3.745 -0.7681 -0.0191  0.1935
17187TIP3    H172976   4.052   5.139   3.768 -1.7845  1.1146  0.7227
17187TIP3    H272977   3.965   5.097   3.652  0.7764 -1.6082 -0.3736
17188TIP3   OH272978   2.647   2.985  14.661 -0.1621 -0.0147  0.4698
17188TIP3    H172979   2.683   2.927  14.728  0.3618  0.2634  0.4351
17188TIP3    H272980   2.591   3.045  14.709 -1.6377 -1.2533  0.3699
17189TIP3   OH272981   2.408   5.542  12.892 -0.4316  0.0117  0.2592
17189TIP3    H172982   2.475   5.610  12.886  1.8111 -1.8996  1.9328
17189TIP3    H272983   2.362   5.560  12.973  0.5699 -0.7428  1.0210
17190TIP3   OH272984   1.211   5.508  15.808 -0.3430  0.2415  0.0974
17190TIP3    H172985   1.229   5.490  15.900  0.7580  1.6321  0.1784
17190TIP3    H272986   1.223   5.424  15.764 -0.4590 -0.3387  1.1506
17191TIP3   OH272987   4.160   0.434   2.408 -0.1298  0.5737 -0.0691
17191TIP3    H172988   4.109   0.466   2.333 -1.9828  0.2167  0.9852
17191TIP3    H272989   4.205   0.356   2.375  2.7016  2.8237 -2.0483
17192TIP3   OH272990   0.150   0.223  14.245  0.0960 -0.2656  0.9691
17192TIP3    H172991   0.082   0.193  14.305 -0.2305 -0.5021  0.4851
17192TIP3    H272992   0.210   0.149  14.237 -2.1521 -1.9870 -2.3967
17193TIP3   OH272993   3.207   6.523  15.791  0.1425 -0.8787 -0.0251
17193TIP3    H172994   3.284   6.567  15.755 -0.0131  0.5471  1.3037
17193TIP3    H272995   3.144   6.594  15.806 -1.1609 -1.9230 -0.3979
17194TIP3   OH272996   5.666   0.424  13.108 -0.1587  0.6987  0.2004
17194TIP3    H172997   5.575   0.394  13.104 -0.5198  1.4490  1.8871
17194TIP3    H272998   5.705   0.395  13.026 -1.6485 -0.5250 -0.1085
17195TIP3   OH272999   4.990   3.128  11.760 -0.2608  0.0438 -0.1791
17195TIP3    H173000   4.981   3.154  11.668 -0.5731 -2.4489 -0.9056
17195TIP3    H273001   5.072   3.169  11.788  0.0933  0.4470 -1.7070
17196TIP3   OH273002   3.278   6.530  14.247 -0.0592 -0.2147 -0.3268
17196TIP3    H173003   3.292   6.609  14.195  0.6872 -1.0890 -1.5069
17196TIP3    H273004   3.184   6.513  14.240  0.1337 -0.7646 -2.1061
17197TIP3   OH273005   3.005   1.307   0.137  0.4374  0.3269  0.6618
17197TIP3    H173006   3.048   1.221   0.143  0.3637  0.2552  0.1693
17197TIP3    H273007   3.010   1.342   0.226  2.6244  0.8426  0.4077
17198TIP3   OH273008   0.702   3.756   2.232  0.3469  0.0571 -0.1259
17198TIP3    H173009   0.657   3.759   2.148  0.7678 -0.9873 -0.4048
17198TIP3    H273010   0.742   3.842   2.241  0.2129  0.2115 -0.9490
17199TIP3   OH273011   1.722   1.834  14.304  0.0090 -0.3249 -0.4003
17199TIP3    H173012   1.781   1.880  14.245  0.1890 -1.1783 -0.8956
17199TIP3    H273013   1.751   1.743  14.302 -0.1271 -0.4188  0.8274
17200TIP3   OH273014   5.235   2.653  11.605 -0.3931  0.5998  0.5344
17200TIP3    H173015   5.174   2.579  11.606  0.1602  0.1336  1.0533
17200TIP3    H273016   5.188   2.723  11.560 -0.1783 -0.7275 -1.9827
17201TIP3   OH273017   0.060   4.538   3.518  0.7157 -0.2013 -0.1178
17201TIP3    H173018   0.149   4.553   3.547  0.8260  0.3698 -0.7247
17201TIP3    H273019   0.010   4.612   3.552  0.5868 -0.2195 -0.2624
17202TIP3   OH273020   6.653   1.245   5.372  0.1885 -0.4091 -0.4083
17202TIP3    H173021   6.598   1.306   5.323  0.5605 -0.7008 -1.2134
17202TIP3    H273022   6.590   1.184   5.412 -0.1923  0.5761  0.5493
17203TIP3   OH273023   5.218   3.812  15.874  0.0048 -0.1359  0.0503
17203TIP3    H173024   5.301   3.845  15.840  0.1275 -0.3367  0.1520
17203TIP3    H273025   5.228   3.815  15.969  0.1898 -0.8921  0.0580
17204TIP3   OH273026   0.114   4.884  14.666  0.3787 -0.0680 -0.6792
17204TIP3    H173027   0.165   4.910  14.589  0.4119  2.2689  0.0533
17204TIP3    H273028   0.177   4.887  14.739 -0.4982  2.0052  0.0874
17205TIP3   OH273029   0.492   4.656  13.675  0.2369 -0.0712  0.1216
17205TIP3    H173030   0.467   4.718  13.607  1.2917  0.4531  0.2091
17205TIP3    H273031   0.569   4.611  13.640 -0.4943 -1.3321  0.0652
17206TIP3   OH273032   3.397   0.195  14.136 -0.6421 -0.1630 -0.3473
17206TIP3    H173033   3.307   0.165  14.126 -0.8118 -0.2249  1.1081
17206TIP3    H273034   3.436   0.134  14.199  0.6759 -0.6225 -1.5564
17207TIP3   OH273035   3.258   2.331   5.010  0.1375 -0.1217  0.0909
17207TIP3    H173036   3.342   2.290   4.991  1.0318  2.0562 -1.0708
17207TIP3    H273037   3.275   2.425   5.001 -2.9272  0.3617 -2.6810
17208TIP3   OH273038   5.809   6.265   3.971  0.2098 -0.2337 -0.6905
17208TIP3    H173039   5.715   6.258   3.984  0.1428 -0.0411 -1.0553
17208TIP3    H273040   5.848   6.230   4.051 -0.1598 -1.1408 -0.8927
17209TIP3   OH273041   5.287   4.437   2.676  0.6566  0.9447 -0.3257
17209TIP3    H173042   5.196   4.444   2.648 -0.7055  0.7175  3.4604
17209TIP3    H273043   5.303   4.343   2.682  0.7824  0.9849 -0.0058
17210TIP3   OH273044   5.056   1.401   5.758  0.6460  0.3923 -0.6311
17210TIP3    H173045   5.015   1.318   5.735  2.4996 -0.9163  0.5683
17210TIP3    H273046   5.120   1.417   5.688  0.6036  0.5882 -0.6264
17211TIP3   OH273047   2.013   2.612   0.425  0.3298 -0.1167 -0.1779
17211TIP3    H173048   2.031   2.524   0.392  1.6450  0.1060 -0.1283
17211TIP3    H273049   1.930   2.604   0.473  1.2622 -1.7295  1.2924
17212TIP3   OH273050   5.194   2.373  12.200 -0.1805  0.2509 -0.3913
17212TIP3    H173051   5.288   2.389  12.213  0.2421 -2.4804  0.7902
17212TIP3    H273052   5.160   2.455  12.166  1.8039  2.9355  3.3592
17213TIP3   OH273053   1.318   5.291  13.695 -0.2803  0.1297  0.4513
17213TIP3    H173054   1.225   5.291  13.718 -0.0533 -0.8146  1.4810
17213TIP3    H273055   1.336   5.202  13.667  0.4992  0.0556  1.1382
17214TIP3   OH273056   2.734   1.057   1.667 -0.2698 -0.2224  0.5841
17214TIP3    H173057   2.734   1.151   1.651  0.3881  0.3664  3.4786
17214TIP3    H273058   2.827   1.032   1.665 -0.5004 -1.0595 -1.1949
17215TIP3   OH273059   1.675   6.694  17.094 -0.8982 -0.2945 -0.8882
17215TIP3    H173060   1.600   6.736  17.137 -1.9623 -1.3444 -1.6529
17215TIP3    H273061   1.737   6.678  17.165 -1.3105  0.7487 -0.2637
17216TIP3   OH273062   2.039   3.979  12.296 -0.2418  0.0902 -0.4811
17216TIP3    H173063   1.953   3.994  12.257 -0.7553 -0.7592  0.3095
17216TIP3    H273064   2.033   3.894  12.339  0.8690  0.1929 -0.0684
17217TIP3   OH273065   4.996   3.382   2.775 -0.0981 -0.6019  0.4393
17217TIP3    H173066   5.039   3.451   2.724  1.6421 -2.1498 -0.3013
17217TIP3    H273067   5.022   3.398   2.865 -0.5982  0.3168  0.4309
17218TIP3   OH273068   5.384   5.198   6.433  0.3898  0.2916 -0.0851
17218TIP3    H173069   5.356   5.111   6.404 -0.6363  0.8171 -0.7446
17218TIP3    H273070   5.478   5.200   6.415  0.5644 -0.9096  0.5763
17219TIP3   OH273071   3.548   3.694  16.812  0.3388  0.1301  0.6742
17219TIP3    H173072   3.475   3.692  16.750  2.3569  1.1947 -1.9286
17219TIP3    H273073   3.572   3.786  16.817  3.0069 -0.4189 -0.5194
17220TIP3   OH273074   0.906   1.276  16.590  0.0811  0.4512 -0.0571
17220TIP3    H173075   0.844   1.347  16.603 -1.6773 -1.1845  1.0851
17220TIP3    H273076   0.883   1.239  16.506 -0.3106  0.0317  0.2305
17221TIP3   OH273077   6.493   0.902   2.464 -0.1405 -0.5583  0.2657
17221TIP3    H173078   6.573   0.863   2.428 -0.3882 -1.8340  1.0218
17221TIP3    H273079   6.510   0.907   2.558 -0.6910 -0.1915  0.3456
17222TIP3   OH273080   4.894   2.644   0.828 -0.0073  0.3550  0.4609
17222TIP3    H173081   4.942   2.654   0.745 -1.7963 -0.4892 -0.7487
17222TIP3    H273082   4.889   2.733   0.864  0.0048  0.8950 -0.8185
17223TIP3   OH273083   5.975   0.296  13.572  0.4878  0.0945  0.4674
17223TIP3    H173084   6.064   0.261  13.578 -0.3408 -2.2760 -0.1612
17223TIP3    H273085   5.943   0.265  13.487 -1.7386 -1.1428  1.6985
17224TIP3   OH273086   4.073   0.820   4.135  0.2841 -0.1917  0.0093
17224TIP3    H173087   4.088   0.771   4.216  0.9956 -0.2071 -0.1306
17224TIP3    H273088   3.989   0.864   4.149 -0.8906 -2.2092 -0.2217
17225TIP3   OH273089   0.274   0.411   1.338  0.6554  0.0783 -0.2436
17225TIP3    H173090   0.249   0.337   1.283 -1.2813 -1.5492  2.5751
17225TIP3    H273091   0.370   0.411   1.337  0.6927 -1.9372 -0.9705
17226TIP3   OH273092   4.004   3.090   4.411 -0.1968  0.0554  0.4618
17226TIP3    H173093   4.039   3.158   4.353 -0.2555  0.2571  0.6596
17226TIP3    H273094   3.911   3.084   4.388 -0.0267 -0.5279 -0.1108
17227TIP3   OH273095   6.639   0.703  15.365  0.8541  0.1367 -0.0355
17227TIP3    H173096   6.701   0.644  15.321  1.6577  1.0144 -0.1164
17227TIP3    H273097   6.650   0.786  15.320  1.1787  0.8700  1.3412
17228TIP3   OH273098   5.405   1.746  14.449 -0.3610 -0.6268  0.5775
17228TIP3    H173099   5.500   1.735  14.445 -0.4268 -0.7703 -1.4170
17228TIP3    H273100   5.392   1.834  14.485  0.5768  0.0321 -0.6301
17229TIP3   OH273101   4.047   3.067   1.161  0.2879  0.5327 -0.2952
17229TIP3    H173102   4.140   3.043   1.159  0.4370  1.1054 -0.3155
17229TIP3    H273103   4.001   2.985   1.146  0.8137  0.4064 -1.3172
17230TIP3   OH273104   4.181   3.749   3.046  0.1350  0.3111  0.0300
17230TIP3    H173105   4.195   3.655   3.040  0.3152  0.3452 -0.0921
17230TIP3    H273106   4.254   3.781   3.099 -1.5916 -0.0204  2.8185
17231TIP3   OH273107   2.533   6.160   2.652 -0.2984 -0.1130  0.5524
17231TIP3    H173108   2.477   6.105   2.598 -1.7714  0.2002  1.6946
17231TIP3    H273109   2.473   6.205   2.711  1.1074  0.7565  1.3869
17232TIP3   OH273110   3.161   5.977   0.383  0.0783 -0.4349 -0.2976
17232TIP3    H173111   3.138   5.885   0.395 -1.4277 -0.0266  0.0800
17232TIP3    H273112   3.253   5.982   0.411  0.1686 -1.8069 -0.2919
17233TIP3   OH273113   3.535   1.123  14.066  0.2595  0.0474  0.1608
17233TIP3    H173114   3.579   1.178  14.131  0.3839  1.5282 -1.1362
17233TIP3    H273115   3.604   1.068  14.030  0.3934 -0.0391  0.5450
17234TIP3   OH273116   0.329   0.511   2.336 -0.1187  0.0431 -0.1908
17234TIP3    H173117   0.399   0.446   2.337 -1.1471 -1.1326 -0.8064
17234TIP3    H273118   0.358   0.577   2.273 -0.1194 -1.1121 -1.4528
17235TIP3   OH273119   0.429   3.492   4.188 -0.2375 -0.2840 -0.5713
17235TIP3    H173120   0.387   3.531   4.264 -1.1620 -0.6564 -0.8796
17235TIP3    H273121   0.357   3.457   4.136  0.0781  2.5142 -3.1169
17236TIP3   OH273122   0.045   0.106  13.976  0.3335  0.6324 -0.3266
17236TIP3    H173123   0.043   0.097  13.881 -0.7013 -1.0311 -0.1781
17236TIP3    H273124   0.007   0.193  13.993 -0.0194  0.6945 -1.3977
17237TIP3   OH273125   5.711   6.043  16.617  0.2821 -0.0387  0.1027
17237TIP3    H173126   5.741   6.058  16.528 -1.3178  2.1425 -0.1462
17237TIP3    H273127   5.616   6.034  16.610 -0.1581  2.3975  1.7565
17238TIP3   OH273128   3.319   3.300  13.179 -0.5494 -0.5918 -0.1538
17238TIP3    H173129   3.276   3.265  13.256 -1.1278 -0.2142 -0.3035
17238TIP3    H273130   3.279   3.254  13.105 -0.1673 -0.7797 -0.2481
17239TIP3   OH273131   0.958   2.854  10.357 -0.1535  0.8832  0.4748
17239TIP3    H173132   1.003   2.784  10.310 -1.2220  1.3940 -1.4086
17239TIP3    H273133   0.888   2.810  10.404  1.3038  0.2854  2.1843
17240TIP3   OH273134   5.615   3.206  11.193  0.2152 -0.1108  0.1251
17240TIP3    H173135   5.691   3.245  11.150  1.0545  0.7375  2.2714
17240TIP3    H273136   5.601   3.123  11.146  0.1740  1.3330 -2.6318
17241TIP3   OH273137   3.353   5.728   0.503  0.2568  0.4999 -0.1017
17241TIP3    H173138   3.263   5.720   0.473 -0.5416  1.4964  1.8845
17241TIP3    H273139   3.376   5.820   0.489  1.5330 -0.0338 -1.9517
17242TIP3   OH273140   0.762   6.753   0.886 -0.6233  0.2493  0.6291
17242TIP3    H173141   0.702   6.692   0.929 -2.7386  0.3019 -1.9629
17242TIP3    H273142   0.826   6.696   0.842 -0.7048  0.0436  0.7765
17243TIP3   OH273143   0.124   1.150   3.907 -0.1636 -0.0070  0.2217
17243TIP3    H173144   0.089   1.134   3.819  0.3385 -1.1172  0.2111
17243TIP3    H273145   0.090   1.237   3.931  0.0801  0.5200 -1.2556
17244TIP3   OH273146   0.819   6.434  10.418  0.2953  0.2174 -0.5891
17244TIP3    H173147   0.760   6.503  10.387 -1.7397 -0.5096  1.3578
17244TIP3    H273148   0.845   6.464  10.505 -0.7702 -1.4790  0.3625
17245TIP3   OH273149   4.736   6.297   5.560  0.2475 -0.0790 -0.0873
17245TIP3    H173150   4.746   6.392   5.551  2.4719 -0.0718  1.5809
17245TIP3    H273151   4.645   6.285   5.588  0.2989  1.6938  1.0025
17246TIP3   OH273152   4.325   4.133  11.578  0.6288  0.6481  0.4114
17246TIP3    H173153   4.253   4.197  11.576  0.2180  0.1759 -0.5499
17246TIP3    H273154   4.291   4.061  11.631 -0.6500 -0.7199 -2.1033
17247TIP3   OH273155   1.444   1.666   0.692  0.7122  0.1191  0.3133
17247TIP3    H173156   1.439   1.606   0.617  1.4166  0.3910  0.0327
17247TIP3    H273157   1.355   1.699   0.702  0.8002  0.9267 -1.1355
17248TIP3   OH273158   0.560   4.439  12.321 -0.0353  0.2388 -0.1548
17248TIP3    H173159   0.623   4.381  12.278 -0.9017  0.2946 -1.5612
17248TIP3    H273160   0.614   4.503  12.366  0.9205 -0.6908  0.0737
17249TIP3   OH273161   5.126   0.180  13.488 -0.3938 -0.2832  0.0736
17249TIP3    H173162   5.168   0.266  13.481 -0.6798 -0.2864 -2.7085
17249TIP3    H273163   5.067   0.189  13.563  0.8487  1.3551  0.9253
17250TIP3   OH273164   3.990   2.474  13.932 -0.4000  0.1156  0.1671
17250TIP3    H173165   3.958   2.403  13.876 -1.7009  1.2525 -0.6077
17250TIP3    H273166   4.061   2.513  13.881 -1.9737  1.5314 -1.0730
17251TIP3   OH273167   2.996   0.109  12.883  0.3180 -0.0165 -0.1666
17251TIP3    H173168   3.026   0.106  12.792 -0.0273 -0.8075 -0.2595
17251TIP3    H273169   2.998   0.018  12.912 -3.5394 -0.4406 -0.6943
17252TIP3   OH273170   4.567   4.909   3.090 -0.2501  0.2920 -0.0317
17252TIP3    H173171   4.514   4.833   3.068  0.3273 -0.3662  0.7557
17252TIP3    H273172   4.560   4.967   3.015 -1.0167 -0.3700 -0.4786
17253TIP3   OH273173   0.743   1.432   0.945 -0.3063 -0.2169  0.0846
17253TIP3    H173174   0.719   1.478   1.025 -0.4942 -2.5746  1.4696
17253TIP3    H273175   0.671   1.371   0.929  0.1188 -0.3718 -1.4106
17254TIP3   OH273176   0.639   4.006  15.305  0.3345 -0.2020 -0.3758
17254TIP3    H173177   0.662   4.088  15.263 -0.3783 -0.6753 -1.7263
17254TIP3    H273178   0.559   4.025  15.354  1.7639  0.6429  1.8132
17255TIP3   OH273179   6.641   1.715   0.726  0.4074 -0.1607 -0.2981
17255TIP3    H173180   6.700   1.648   0.759 -1.0393 -0.8214  1.1026
17255TIP3    H273181   6.688   1.797   0.737  1.7206 -0.8110 -0.8929
17256TIP3   OH273182   3.780   4.114   0.150  0.3808 -0.5458 -0.4116
17256TIP3    H173183   3.817   4.176   0.214 -0.0597 -0.5722 -0.1278
17256TIP3    H273184   3.787   4.160   0.067 -1.6343  0.6921  0.0259
17257TIP3   OH273185   1.486   0.451  11.700 -0.2520  0.0305  0.8361
17257TIP3    H173186   1.427   0.511  11.654 -1.0417  0.4310  2.3031
17257TIP3    H273187   1.519   0.392  11.632 -2.9155 -0.6819  0.0327
17258TIP3   OH273188   0.233   0.419   0.285  0.1523  0.3595 -0.0642
17258TIP3    H173189   0.166   0.399   0.220 -0.3181  2.7089 -0.3909
17258TIP3    H273190   0.184   0.446   0.362  0.7251 -1.4996  1.0109
17259TIP3   OH273191   0.193   4.410  14.957 -0.8663  0.2239  0.0716
17259TIP3    H173192   0.156   4.403  14.869 -0.3068 -1.8675 -0.0537
17259TIP3    H273193   0.119   4.434  15.012 -1.2944  1.2242 -0.9034
17260TIP3   OH273194   1.489   1.320   5.620 -0.4403 -0.1287  0.1695
17260TIP3    H173195   1.404   1.292   5.587 -1.4786 -0.9933  3.2407
17260TIP3    H273196   1.476   1.412   5.644 -0.6564 -0.3416  0.9165
17261TIP3   OH273197   1.843   0.143   3.170 -0.1854  0.1798  0.0503
17261TIP3    H173198   1.842   0.051   3.195 -0.3856  0.2433  0.2743
17261TIP3    H273199   1.880   0.143   3.081 -1.8085 -0.2950 -0.6603
17262TIP3   OH273200   3.644   5.642   2.238 -0.2422 -0.5459 -0.1438
17262TIP3    H173201   3.629   5.731   2.206  0.3235 -0.7119 -0.8867
17262TIP3    H273202   3.666   5.653   2.330 -2.5497 -0.1151  0.4190
17263TIP3   OH273203   5.421   4.556  16.313  0.0760  0.8167 -0.5677
17263TIP3    H173204   5.493   4.582  16.370 -0.9686  0.3117  1.0293
17263TIP3    H273205   5.463   4.507  16.242  1.3435  1.0255  0.0175
17264TIP3   OH273206   3.259   0.963  10.538 -0.7558 -0.2033  0.1921
17264TIP3    H173207   3.269   1.058  10.541 -1.0510 -0.0747 -1.8108
17264TIP3    H273208   3.348   0.930  10.553 -0.4042  0.4372 -0.4054
17265TIP3   OH273209   2.109   5.667  12.997  0.0425  0.3641  0.1474
17265TIP3    H173210   2.051   5.594  12.978  0.8143 -0.0589 -0.6758
17265TIP3    H273211   2.166   5.634  13.067  0.4091  0.1576 -0.2439
17266TIP3   OH273212   6.664   2.449  15.633 -0.3323 -0.4146  0.4794
17266TIP3    H173213   6.744   2.412  15.670 -1.2681 -0.9813  2.0772
17266TIP3    H273214   6.651   2.531  15.679  0.0720  0.4009 -0.8152
17267TIP3   OH273215   6.364   3.757   4.760  0.5159  0.5038 -0.3498
17267TIP3    H173216   6.335   3.820   4.695  0.0208  1.5834  0.8608
17267TIP3    H273217   6.339   3.796   4.844  0.3955 -1.2000  0.4562
17268TIP3   OH273218   4.228   0.705   2.491 -0.0421  0.6054  0.0405
17268TIP3    H173219   4.244   0.612   2.501 -0.5134  0.5903  0.6682
17268TIP3    H273220   4.207   0.736   2.579 -2.0293  0.8861 -0.4782
17269TIP3   OH273221   0.548   5.215   2.298  0.5340  0.4026 -0.2621
17269TIP3    H173222   0.608   5.265   2.353  0.4111  0.5756 -0.2864
17269TIP3    H273223   0.577   5.124   2.308 -0.6630  0.1701  1.6155
17270TIP3   OH273224   1.078   0.154  14.694 -0.1145  0.1357  0.6668
17270TIP3    H173225   1.095   0.069  14.654 -1.1139  0.3515 -0.2544
17270TIP3    H273226   1.149   0.165  14.758  0.8845 -0.7033 -0.2618
17271TIP3   OH273227   6.327   0.108   1.899  0.0438 -0.1467  0.1375
17271TIP3    H173228   6.249   0.065   1.863  0.2170  0.7304 -1.3545
17271TIP3    H273229   6.300   0.198   1.916  0.2152 -0.3183  1.4818
17272TIP3   OH273230   4.531   3.408   6.456 -0.4408  0.6199  0.7310
17272TIP3    H173231   4.455   3.380   6.407 -2.3489  0.6848  3.4385
17272TIP3    H273232   4.568   3.327   6.492  0.3862  0.6621  0.0250
17273TIP3   OH273233   1.019   2.237   4.374  0.0578 -0.4824 -0.1264
17273TIP3    H173234   0.952   2.305   4.363  1.2146  0.8683  0.7044
17273TIP3    H273235   1.035   2.235   4.468  0.9136 -1.0485 -0.2731
17274TIP3   OH273236   3.164   5.289   3.447  0.4704  0.4448 -0.4409
17274TIP3    H173237   3.203   5.203   3.431  0.0295 -0.1455  1.4133
17274TIP3    H273238   3.154   5.294   3.542 -2.4978  1.2122 -0.6852
17275TIP3   OH273239   1.261   0.753   3.988  0.1023  0.4650 -0.3447
17275TIP3    H173240   1.232   0.774   3.899  0.2194  1.8543 -0.0717
17275TIP3    H273241   1.235   0.661   4.001 -2.1167  0.9549 -0.9495
17276TIP3   OH273242   2.259   4.758   3.195 -0.2750 -0.0949  0.1200
17276TIP3    H173243   2.352   4.735   3.186  0.6025  1.2169  4.0862
17276TIP3    H273244   2.252   4.842   3.149 -0.6099 -1.9146 -3.5733
17277TIP3   OH273245   2.108   0.873   1.223 -0.2742  0.7871 -0.1578
17277TIP3    H173246   2.089   0.788   1.263 -1.2317  1.2102  0.3304
17277TIP3    H273247   2.193   0.862   1.181 -1.0586 -0.8739 -1.4199
17278TIP3   OH273248   3.228   5.633  13.959  0.2624  0.0931 -0.1466
17278TIP3    H173249   3.311   5.681  13.954  0.1430  0.4124  0.7205
17278TIP3    H273250   3.250   5.543  13.936  0.8942  0.1215  0.3384
17279TIP3   OH273251   0.193   2.565  15.304  0.0899  0.2448  0.2032
17279TIP3    H173252   0.178   2.496  15.240 -1.4007  1.7890 -1.2137
17279TIP3    H273253   0.108   2.608  15.314  0.3208  0.2394  3.0887
17280TIP3   OH273254   5.778   1.451  11.812  0.0467  0.3982  0.5324
17280TIP3    H173255   5.731   1.368  11.812 -0.9694  0.9600 -0.0318
17280TIP3    H273256   5.727   1.508  11.869  0.6499  0.6977  0.7922
17281TIP3   OH273257   0.764   1.936  17.141 -0.6568 -0.1757 -0.2348
17281TIP3    H173258   0.813   1.854  17.153  0.9369  0.8489  0.6034
17281TIP3    H273259   0.741   1.963  17.230  2.0860  2.1372 -0.1092
17282TIP3   OH273260   3.355   6.749   1.769 -0.2407  0.2712  0.5000
17282TIP3    H173261   3.384   6.833   1.804  3.6039 -0.1805 -1.0408
17282TIP3    H273262   3.333   6.768   1.678 -0.0612 -0.2579  0.3444
17283TIP3   OH273263   6.436   6.749  12.880 -0.1531  0.3256  0.3163
17283TIP3    H173264   6.477   6.814  12.937 -0.9313 -0.9459  2.4857
17283TIP3    H273265   6.374   6.703  12.938  0.3031 -2.2737 -1.0939
17284TIP3   OH273266   3.688   4.586   1.397 -0.6981 -0.4088 -0.4359
17284TIP3    H173267   3.751   4.621   1.334 -0.1829 -0.7620 -0.1187
17284TIP3    H273268   3.615   4.554   1.342 -0.6409  0.0653 -0.7960
17285TIP3   OH273269   4.717   2.999  11.604  0.2928 -0.1534 -0.2517
17285TIP3    H173270   4.738   3.067  11.540 -0.5145  0.6953  0.3662
17285TIP3    H273271   4.668   3.044  11.673 -0.0562 -1.3124  0.2919
17286TIP3   OH273272   0.219   4.671  15.761  0.3098  0.7518  0.3825
17286TIP3    H173273   0.284   4.616  15.806 -0.2635  0.3234  0.6924
17286TIP3    H273274   0.272   4.735  15.714  1.1062 -1.0249 -1.3005
17287TIP3   OH273275   0.716   2.897  14.249  0.2559 -0.0545  0.3994
17287TIP3    H173276   0.718   2.838  14.174  1.1923  0.2036  0.2093
17287TIP3    H273277   0.681   2.843  14.321  0.9297 -0.7982  0.1864
17288TIP3   OH273278   2.459   3.997  11.544 -0.4037 -0.5165 -0.2756
17288TIP3    H173279   2.413   3.924  11.503 -1.9587  0.7152 -0.8115
17288TIP3    H273280   2.390   4.056  11.573  0.7447 -0.0590  1.7583
17289TIP3   OH273281   6.374   2.978   1.986  0.0560 -0.3088 -0.2757
17289TIP3    H173282   6.288   2.958   2.021  0.3661 -1.2969 -0.0426
17289TIP3    H273283   6.365   2.970   1.891  0.1173 -1.4597 -0.2069
17290TIP3   OH273284   0.267   3.657  17.138  0.0843  0.3537  0.3826
17290TIP3    H173285   0.193   3.711  17.165  0.5643  1.5033 -0.4885
17290TIP3    H273286   0.335   3.721  17.113  0.6275 -0.6389 -0.7980
17291TIP3   OH273287   3.111   2.500  11.356  0.7559 -0.3296 -0.2339
17291TIP3    H173288   3.121   2.437  11.285  3.0588  0.0239 -0.3179
17291TIP3    H273289   3.088   2.447  11.433 -0.1117 -0.9058 -0.8774
17292TIP3   OH273290   2.998   3.713   4.317  0.1504 -0.0547 -0.0264
17292TIP3    H173291   3.079   3.753   4.285 -0.0848 -0.3604 -1.0754
17292TIP3    H273292   2.944   3.786   4.345  0.3012  0.2554 -0.5234
17293TIP3   OH273293   5.198   4.654   5.271  0.1293  0.1902 -0.3363
17293TIP3    H173294   5.220   4.567   5.306 -1.3471 -0.4205 -0.8295
17293TIP3    H273295   5.257   4.665   5.196  0.0129 -0.6131 -0.5619
17294TIP3   OH273296   4.522   5.836   4.063  0.0853 -0.3571 -0.0488
17294TIP3    H173297   4.558   5.804   4.145 -2.0046 -1.6518  0.4507
17294TIP3    H273298   4.524   5.761   4.004 -1.7936 -0.5391  0.0454
17295TIP3   OH273299   4.274   5.728   3.167  0.0722  0.0914 -0.3846
17295TIP3    H173300   4.363   5.765   3.161  0.1113  0.1644  0.4783
17295TIP3    H273301   4.218   5.797   3.131  0.3009  0.3396 -0.2777
17296TIP3   OH273302   0.742   2.081   5.945  0.4376 -0.1222  0.6055
17296TIP3    H173303   0.834   2.105   5.936  0.2426 -0.0449 -1.8990
17296TIP3    H273304   0.743   1.985   5.953  0.7197 -0.2341 -0.5685
17297TIP3   OH273305   4.029   0.749   2.316  0.6395  0.3268 -0.6647
17297TIP3    H173306   4.107   0.754   2.371 -0.1306 -4.8645  1.4673
17297TIP3    H273307   4.045   0.674   2.259 -2.3203 -0.1875 -0.9573
17298TIP3   OH273308   0.239   1.906  12.125 -0.1297  0.0578 -0.1317
17298TIP3    H173309   0.156   1.948  12.106 -0.2076 -0.1461 -0.2406
17298TIP3    H273310   0.263   1.861  12.044  0.3259  0.5186 -0.2567
17299TIP3   OH273311   3.879   6.669  12.064 -0.3207  0.2864 -0.1484
17299TIP3    H173312   3.908   6.675  12.155  0.1362 -0.8419 -0.1972
17299TIP3    H273313   3.820   6.593  12.063 -0.9337  0.7530 -0.6486
17300TIP3   OH273314   4.900   4.475  12.414 -0.0550  0.1494 -0.2037
17300TIP3    H173315   4.860   4.408  12.470 -0.4181  0.9877  0.5502
17300TIP3    H273316   4.977   4.504  12.462  0.3099  0.0206 -0.7013
17301TIP3   OH273317   3.821   2.272  11.121  0.8733  0.3150 -0.6271
17301TIP3    H173318   3.777   2.254  11.205  1.5733  0.7480 -0.1566
17301TIP3    H273319   3.828   2.187  11.079  0.5814  0.0799 -0.2167
17302TIP3   OH273320   2.472   1.850  12.800  0.5166 -0.5544  0.2962
17302TIP3    H173321   2.482   1.942  12.779  0.2168 -0.2606  1.3581
17302TIP3    H273322   2.383   1.828  12.773  0.6229 -0.5704 -0.0511
17303TIP3   OH273323   2.728   3.861  12.137 -0.1844  0.0376  0.8331
17303TIP3    H173324   2.769   3.876  12.052 -0.2931  1.7534  1.0499
17303TIP3    H273325   2.694   3.772  12.132 -2.1260  0.8062 -1.7689
17304TIP3   OH273326   1.901   2.574   5.156  0.1697  0.3615 -0.3013
17304TIP3    H173327   1.884   2.576   5.061 -1.6166  1.9036 -0.0155
17304TIP3    H273328   1.917   2.482   5.175 -2.9317 -0.6049 -1.6118
17305TIP3   OH273329   0.013   6.522   1.991  0.3295  0.1587 -0.4149
17305TIP3    H173330   0.043   6.581   1.922  1.0359 -0.9373 -1.0708
17305TIP3    H273331  -0.067   6.482   1.956  0.2186  0.2290 -0.2452
17306TIP3   OH273332   0.952   4.089   0.281 -0.1309 -0.3994 -0.3388
17306TIP3    H173333   0.973   4.174   0.320 -2.2950  0.7950 -1.5762
17306TIP3    H273334   1.035   4.042   0.282  0.7357  0.9331  2.2004
17307TIP3   OH273335   6.133   0.228  15.263 -0.5072 -0.4968 -0.6905
17307TIP3    H173336   6.111   0.310  15.307  1.2708 -1.0435  1.3915
17307TIP3    H273337   6.219   0.243  15.224  0.4508 -1.7181  0.8445
17308TIP3   OH273338   0.778   2.639   5.130 -0.1823  0.2418 -0.2037
17308TIP3    H173339   0.811   2.552   5.155 -2.1663  0.1796  2.7701
17308TIP3    H273340   0.855   2.685   5.097  2.0562 -1.1852  2.5189
17309TIP3   OH273341   0.944   1.315   4.136  0.2152  0.1792 -0.6005
17309TIP3    H173342   0.928   1.257   4.061  0.3287 -0.4143 -0.1744
17309TIP3    H273343   1.020   1.276   4.179 -2.1793 -1.9117  2.1547
17310TIP3   OH273344   6.415   5.010   3.212  0.2272 -0.3750  0.0645
17310TIP3    H173345   6.326   5.028   3.244  0.3207 -1.0874  0.7461
17310TIP3    H273346   6.435   5.085   3.156 -0.1977  0.6190  1.1712
17311TIP3   OH273347   1.193   1.743   0.769  0.3196 -0.3544  0.5341
17311TIP3    H173348   1.151   1.716   0.851 -1.2583 -0.2967 -0.2320
17311TIP3    H273349   1.147   1.823   0.743  0.9938 -0.2144 -0.2846
17312TIP3   OH273350   2.621   4.391   0.521  0.2459 -0.9102 -0.1021
17312TIP3    H173351   2.537   4.351   0.546 -0.1275 -2.0743 -2.7634
17312TIP3    H273352   2.686   4.324   0.540  0.0519 -1.5047 -1.4028
17313TIP3   OH273353   2.749   6.695   3.632  0.1753 -0.5364  0.3570
17313TIP3    H173354   2.743   6.759   3.703  1.0401  0.9259 -0.8270
17313TIP3    H273355   2.659   6.674   3.610 -0.1053 -1.0503  1.8925
17314TIP3   OH273356   3.746   0.225  12.469 -0.6749 -0.3613 -0.3943
17314TIP3    H173357   3.830   0.271  12.462 -0.5816  0.2287  2.9419
17314TIP3    H273358   3.691   0.283  12.521 -1.7769 -2.4644  0.9320
17315TIP3   OH273359   3.127   3.676   3.929 -0.1330 -0.7352  0.3158
17315TIP3    H173360   3.059   3.703   3.868  0.5627 -1.3726 -0.7768
17315TIP3    H273361   3.106   3.722   4.010 -1.0610  0.1572 -0.4039
17316TIP3   OH273362   2.023   6.478  13.450  0.0017 -0.3537  0.0842
17316TIP3    H173363   2.054   6.397  13.491 -0.1949 -0.4090  0.1252
17316TIP3    H273364   1.994   6.451  13.363 -1.0056 -0.5108  0.4607
17317TIP3   OH273365   1.885   1.098   0.834  0.5293 -0.3796  0.2693
17317TIP3    H173366   1.866   1.121   0.925  2.4861 -1.1715  0.9417
17317TIP3    H273367   1.879   1.181   0.787 -0.3432  0.0812  1.1429
17318TIP3   OH273368   1.876   6.378   1.727 -0.4720 -0.2077  0.8789
17318TIP3    H173369   1.788   6.400   1.756 -0.7627 -1.4202  0.9902
17318TIP3    H273370   1.881   6.409   1.637 -0.4617  1.2648  1.3687
17319TIP3   OH273371   0.309   4.570   3.627 -0.1811 -0.1283  0.6281
17319TIP3    H173372   0.366   4.494   3.627  0.8767  0.6265  1.3715
17319TIP3    H273373   0.298   4.592   3.720  1.2059  1.7957  0.3891
17320TIP3   OH273374   4.078   3.129   0.106 -0.0130  0.2878  0.0649
17320TIP3    H173375   4.026   3.049   0.104  1.6173 -0.7913 -0.3438
17320TIP3    H273376   4.043   3.181   0.033 -0.2981 -0.5535 -0.4105
17321TIP3   OH273377   4.638   6.566  11.232 -0.1694  0.2076  0.4990
17321TIP3    H173378   4.691   6.623  11.177 -0.1567  0.1205  0.4189
17321TIP3    H273379   4.648   6.600  11.321  0.4096 -0.0971  0.5565
17322TIP3   OH273380   5.057   6.269   0.593 -0.0035 -0.0725 -0.0050
17322TIP3    H173381   4.980   6.231   0.549  0.9243 -0.6525 -1.1736
17322TIP3    H273382   5.021   6.341   0.646 -1.6953 -1.8917  1.4924
17323TIP3   OH273383   0.897   6.693  13.828 -0.0833 -0.4015 -0.1077
17323TIP3    H173384   0.847   6.612  13.822 -1.8294  0.5467  0.8301
17323TIP3    H273385   0.839   6.760  13.792  1.8506  0.2984 -2.1723
17324TIP3   OH273386   2.932   3.338  11.937  0.4568  0.3549  0.1473
17324TIP3    H173387   3.012   3.344  11.989  0.9001  0.3520 -0.5248
17324TIP3    H273388   2.863   3.323  12.002  1.0965 -0.4357  0.6729
17325TIP3   OH273389   1.004   2.430   3.288  0.0825 -0.2029  0.7431
17325TIP3    H173390   1.054   2.477   3.354  0.0996  0.0976  0.5187
17325TIP3    H273391   0.955   2.364   3.338  0.4422 -0.2795  0.9993
17326TIP3   OH273392   3.782   3.418  13.791  0.0108 -0.3103  0.0203
17326TIP3    H173393   3.716   3.394  13.856 -2.1278 -0.0861 -1.9395
17326TIP3    H273394   3.737   3.407  13.707  2.2016  0.7829 -1.3640
17327TIP3   OH273395   4.923   1.743  12.400  0.6175 -0.2139 -0.0380
17327TIP3    H173396   4.892   1.759  12.311  0.5038 -2.0837 -0.3799
17327TIP3    H273397   4.854   1.692  12.441  1.1371 -0.2915  0.7726
17328TIP3   OH273398   1.548   1.072  13.568 -0.2172  0.7078  0.4674
17328TIP3    H173399   1.475   1.133  13.555 -0.9172 -0.0970  0.5689
17328TIP3    H273400   1.588   1.099  13.650  1.0060  2.5528 -0.6386
17329TIP3   OH273401   0.382   1.095   3.861  0.2268 -0.1764  0.0287
17329TIP3    H173402   0.386   1.141   3.777  0.8592 -0.4131 -0.0799
17329TIP3    H273403   0.290   1.099   3.886  0.0972  0.2426 -0.4826
17330TIP3   OH273404   2.948   6.225   2.030 -0.0358 -0.0892 -0.2733
17330TIP3    H173405   3.032   6.180   2.036 -0.3671 -0.5620  1.5594
17330TIP3    H273406   2.885   6.165   2.069 -0.9704  0.8320 -0.3054
17331TIP3   OH273407   1.524   4.929   4.978  0.0647  0.1082  0.1138
17331TIP3    H173408   1.520   4.940   4.883  0.7337  1.5893  0.2222
17331TIP3    H273409   1.617   4.940   4.999  0.0302 -0.9377  0.8715
17332TIP3   OH273410   6.494   0.916  16.073 -0.2643  0.3673  0.2004
17332TIP3    H173411   6.573   0.885  16.119  0.4411 -2.0690 -2.3646
17332TIP3    H273412   6.505   1.011  16.069  3.1692  0.0629 -0.9615
17333TIP3   OH273413   4.977   5.725  11.685 -0.3667 -0.6865 -0.2009
17333TIP3    H173414   5.065   5.703  11.716  0.4951  0.7450 -1.5047
17333TIP3    H273415   4.919   5.667  11.735  1.1506 -0.4241  1.9933
17334TIP3   OH273416   6.720   4.375  13.552  1.1346 -0.0534  0.6159
17334TIP3    H173417   6.660   4.302  13.537  0.3654  0.7924 -0.6698
17334TIP3    H273418   6.803   4.334  13.576  0.1730 -1.2616  2.0751
17335TIP3   OH273419   4.742   0.409   2.049  0.7588 -0.0892 -0.0790
17335TIP3    H173420   4.673   0.449   2.101  1.9240  1.7832  0.1281
17335TIP3    H273421   4.697   0.363   1.979 -0.7280 -0.3217  0.9896
17336TIP3   OH273422   2.649   4.211  15.074 -0.8664  0.3554  0.3621
17336TIP3    H173423   2.581   4.145  15.091  0.3563 -0.9264  0.5210
17336TIP3    H273424   2.707   4.169  15.011  0.5485  0.8425  1.2908
17337TIP3   OH273425   4.383   2.405   0.637  0.0178  0.2405  0.4251
17337TIP3    H173426   4.301   2.358   0.654  1.3735 -1.7787  1.7291
17337TIP3    H273427   4.384   2.417   0.542 -1.7754  0.3655  0.3718
17338TIP3   OH273428   1.844   0.464  16.244 -0.4336 -0.0139 -0.7291
17338TIP3    H173429   1.862   0.383  16.197 -0.7665 -0.8981  0.6159
17338TIP3    H273430   1.750   0.480  16.229 -0.1447  0.7496 -1.8930
17339TIP3   OH273431   1.717   4.181  11.413  0.0535  0.3906  0.4921
17339TIP3    H173432   1.795   4.207  11.462  2.1434 -2.5606 -0.9329
17339TIP3    H273433   1.722   4.085  11.409 -2.0248  0.2735 -2.2174
17340TIP3   OH273434   1.445   3.531   0.059 -0.0446  0.2874  0.6465
17340TIP3    H173435   1.509   3.464   0.081  0.1685 -0.7111 -2.5663
17340TIP3    H273436   1.361   3.485   0.056  0.0258  0.2201 -1.0654
17341TIP3   OH273437   4.516   3.205  12.910 -0.4148 -0.5479 -0.6490
17341TIP3    H173438   4.511   3.168  12.998 -0.4685 -1.0953 -0.8754
17341TIP3    H273439   4.471   3.289  12.917 -0.2065 -0.4808 -0.0987
17342TIP3   OH273440   4.232   3.001  12.547 -0.1879  0.1502  0.2670
17342TIP3    H173441   4.242   2.914  12.585  1.2445  0.7396  1.3302
17342TIP3    H273442   4.198   3.055  12.618  2.4018  1.2387  0.7997
17343TIP3   OH273443   6.537   6.596  13.280  0.7546  0.1226 -0.4267
17343TIP3    H173444   6.553   6.579  13.373 -0.3301  0.1701 -0.2066
17343TIP3    H273445   6.566   6.686  13.267 -0.3726  0.6019  0.2248
17344TIP3   OH273446   1.773   1.590  17.120 -0.3256  0.4863  0.0992
17344TIP3    H173447   1.762   1.499  17.092 -0.2427  0.4537  0.1770
17344TIP3    H273448   1.685   1.628  17.111 -0.7679 -0.0580  1.7457
17345TIP3   OH273449   5.396   1.700   1.136  0.1433 -0.3914  0.1915
17345TIP3    H173450   5.322   1.726   1.082  0.3499  1.5033  0.7434
17345TIP3    H273451   5.469   1.689   1.075 -0.1099 -0.3199 -0.1250
17346TIP3   OH273452   4.870   3.471   3.803 -0.5149 -0.0177 -0.1858
17346TIP3    H173453   4.937   3.454   3.869  0.0736  0.6633 -0.5828
17346TIP3    H273454   4.788   3.445   3.844  0.0299 -1.2262  0.1691
17347TIP3   OH273455   2.671   3.394  12.513  0.4044  0.0592  0.3241
17347TIP3    H173456   2.690   3.363  12.424 -1.4423 -0.6642  0.1267
17347TIP3    H273457   2.661   3.489  12.503 -0.4764 -0.0928 -0.4027
17348TIP3   OH273458   2.567   2.782   2.804  0.2689  0.1535 -0.1839
17348TIP3    H173459   2.616   2.815   2.729  1.3568  0.1149  0.4816
17348TIP3    H273460   2.503   2.850   2.823  0.3006  0.3763 -0.8508
17349TIP3   OH273461   5.689   0.534  15.866 -0.0611  0.1377 -0.2504
17349TIP3    H173462   5.745   0.610  15.853  0.0594  0.0441 -0.2842
17349TIP3    H273463   5.659   0.540  15.956 -0.3814  0.4464 -0.3757
17350TIP3   OH273464   1.566   0.984   1.284  0.0980 -0.3672 -0.2630
17350TIP3    H173465   1.598   1.026   1.365 -1.6439 -0.6747  0.6345
17350TIP3    H273466   1.618   0.904   1.277  2.5183  1.1804 -1.2566
17351TIP3   OH273467   0.334   4.946  12.600  0.2185  0.1859  0.3521
17351TIP3    H173468   0.247   4.925  12.565  0.0431  1.7276 -0.2141
17351TIP3    H273469   0.340   4.895  12.681 -0.9894 -0.3612  0.1225
17352TIP3   OH273470   1.906   5.224  10.823  0.7570 -0.3527  0.4016
17352TIP3    H173471   1.918   5.319  10.831  1.3361 -0.3767 -0.0432
17352TIP3    H273472   1.812   5.212  10.815  0.7510  0.3252 -1.0169
17353TIP3   OH273473   4.388   4.769  12.343 -0.4481  0.3010  0.0686
17353TIP3    H173474   4.481   4.756  12.361  0.0179  1.7228 -1.0728
17353TIP3    H273475   4.384   4.858  12.306 -2.0425 -0.3145 -1.3372
17354TIP3   OH273476   6.383   4.384  16.766 -0.0106  0.6259  0.3079
17354TIP3    H173477   6.445   4.351  16.701  0.9002  0.4464  1.2306
17354TIP3    H273478   6.402   4.477  16.772 -0.1364  0.6538  0.2703
17355TIP3   OH273479   6.789   6.750  15.454 -0.6970 -0.1703  0.7060
17355TIP3    H173480   6.739   6.744  15.372 -1.7583  0.0928  1.3102
17355TIP3    H273481   6.870   6.703  15.437 -1.3361 -0.9776 -0.1821
17356TIP3   OH273482   2.636   6.772  16.643  0.3244 -0.5450  0.1545
17356TIP3    H173483   2.683   6.852  16.619 -0.6738 -0.3960 -1.4129
17356TIP3    H273484   2.700   6.702  16.632  0.3365 -0.2947 -1.5026
17357TIP3   OH273485   2.965   5.678   2.208  0.4485 -0.2700 -0.0219
17357TIP3    H173486   2.930   5.697   2.295  1.2876 -0.6578  0.4216
17357TIP3    H273487   2.941   5.586   2.192 -0.3500  0.0204 -0.5297
17358TIP3   OH273488   4.256   5.286   0.726  0.2168 -0.0316  0.0511
17358TIP3    H173489   4.171   5.291   0.681  0.1017 -1.6562  0.0334
17358TIP3    H273490   4.314   5.247   0.661  0.4558 -0.8760  0.7693
17359TIP3   OH273491   1.255   1.885   4.850 -0.8175 -0.5073  0.6597
17359TIP3    H173492   1.337   1.847   4.821 -0.5070  1.3696 -1.1692
17359TIP3    H273493   1.259   1.882   4.946  1.3720 -0.4486  0.6052
17360TIP3   OH273494   0.565   3.285  11.469  0.6665 -0.2576  0.3585
17360TIP3    H173495   0.606   3.306  11.553  0.2830 -0.1402  0.5174
17360TIP3    H273496   0.529   3.198  11.481  1.2594 -0.5523  0.0705
17361TIP3   OH273497   3.256   0.873   3.075  0.1073  0.1321  0.5342
17361TIP3    H173498   3.311   0.948   3.099  2.6922 -1.4013 -0.1816
17361TIP3    H273499   3.314   0.798   3.083 -2.3024 -1.8078  0.9204
17362TIP3   OH273500   6.570   5.927  13.163 -0.1224 -0.6985  0.0236
17362TIP3    H173501   6.554   5.928  13.068  0.2871  2.0746 -0.0780
17362TIP3    H273502   6.652   5.975  13.174 -0.0696 -1.1310  1.8140
17363TIP3   OH273503   5.018   5.317   4.916  0.0697 -0.1717 -0.0937
17363TIP3    H173504   4.971   5.270   4.848 -1.1975  2.0420 -0.8708
17363TIP3    H273505   5.003   5.267   4.996 -2.4612 -0.3128 -0.5952
17364TIP3   OH273506   1.758   6.392  16.909 -0.3081  0.0017  0.0139
17364TIP3    H173507   1.667   6.364  16.902 -0.6159  0.6162  1.3829
17364TIP3    H273508   1.767   6.459  16.841 -0.0488 -1.9977 -2.0761
17365TIP3   OH273509   5.198   2.941  13.374  0.5277  0.2874 -0.2840
17365TIP3    H173510   5.255   2.894  13.314  1.0406 -1.4537  1.4407
17365TIP3    H273511   5.252   2.956  13.452 -1.1142 -0.9070  1.1793
17366TIP3   OH273512   1.867   4.849  12.901 -0.4270  0.1882 -0.4353
17366TIP3    H173513   1.829   4.844  12.989  1.0712 -2.9449  0.1778
17366TIP3    H273514   1.956   4.880  12.916 -0.5032  0.7085 -1.0218
17367TIP3   OH273515   3.348   2.918  14.007 -0.1617  0.1081  0.0420
17367TIP3    H173516   3.400   2.960  13.939  1.6107  0.0085  1.2505
17367TIP3    H273517   3.301   2.990  14.049  0.7949  0.5492  0.3905
17368TIP3   OH273518   4.240   2.529  13.773 -0.1112 -0.1468  0.6037
17368TIP3    H173519   4.281   2.551  13.689  0.1979 -0.4673  0.6665
17368TIP3    H273520   4.264   2.437  13.787 -1.4701 -0.5625  0.2881
17369TIP3   OH273521   1.397   0.460   3.309  0.0790 -0.4840 -0.5060
17369TIP3    H173522   1.307   0.465   3.342 -0.5159 -1.6215 -1.8573
17369TIP3    H273523   1.450   0.495   3.380 -1.5631  1.9850 -0.3694
17370TIP3   OH273524   2.396   6.347  12.075  0.4951 -0.2293  0.3017
17370TIP3    H173525   2.469   6.392  12.117  0.7395  0.2193 -0.5803
17370TIP3    H273526   2.318   6.393  12.108  0.7765  1.5982 -1.3794
17371TIP3   OH273527   3.833   3.466   6.350 -0.0583  0.0020  0.2989
17371TIP3    H173528   3.888   3.466   6.271  1.4880 -0.2004  1.3292
17371TIP3    H273529   3.807   3.557   6.362  0.1640  0.1244 -0.1345
17372TIP3   OH273530   1.350   2.102   0.661  0.2110 -0.0707  0.2827
17372TIP3    H173531   1.288   2.173   0.671 -2.0493 -1.8931  0.0646
17372TIP3    H273532   1.373   2.076   0.751  0.3611  0.3600  0.3684
17373TIP3   OH273533   1.639   4.304  12.633  0.2871  0.4773 -0.4763
17373TIP3    H173534   1.663   4.218  12.600  1.8120  0.6855  0.0362
17373TIP3    H273535   1.642   4.362  12.557 -0.1776  0.1922 -0.7125
17374TIP3   OH273536   5.369   4.232   3.336 -0.6915 -0.3407  0.0252
17374TIP3    H173537   5.289   4.283   3.345 -0.8122 -0.7086  1.2878
17374TIP3    H273538   5.340   4.143   3.318 -0.4687  0.0895 -2.8639
17375TIP3   OH273539   4.380   1.284   5.633  0.3289  0.6296 -0.2222
17375TIP3    H173540   4.370   1.207   5.578  0.0710 -0.7055  1.6100
17375TIP3    H273541   4.316   1.272   5.704  0.2391  2.5615  0.0702
17376TIP3   OH273542   3.219   3.914   2.515 -0.1403  0.6239  0.3054
17376TIP3    H173543   3.253   3.827   2.539  1.0021  0.7241 -0.8393
17376TIP3    H273544   3.124   3.906   2.523 -0.2223 -1.3614 -1.7096
17377TIP3   OH273545   6.775   0.036  14.433 -0.1665  0.0220  0.3978
17377TIP3    H173546   6.856   0.017  14.481 -1.2249 -1.7159  1.5966
17377TIP3    H273547   6.711   0.057  14.501 -1.1215 -0.1910 -0.4138
17378TIP3   OH273548   2.117   0.754   4.863 -0.0505  0.4687 -0.1222
17378TIP3    H173549   2.075   0.674   4.832  1.4475 -0.8100  0.9769
17378TIP3    H273550   2.053   0.793   4.922 -0.2733 -0.7318  0.4745
17379TIP3   OH273551   5.135   0.363   4.839  0.2021  0.4812 -0.1303
17379TIP3    H173552   5.144   0.352   4.744  0.7099 -1.8428  0.1229
17379TIP3    H273553   5.214   0.323   4.875 -1.6793 -2.1952  1.3605
17380TIP3   OH273554   6.536   3.017   5.917 -0.1644  0.2268 -0.3550
17380TIP3    H173555   6.484   3.079   5.968  0.5203  0.9313 -0.4938
17380TIP3    H273556   6.474   2.982   5.853 -1.5306 -2.0117  1.9953
17381TIP3   OH273557   2.820   6.137   1.200 -0.2191  0.3253 -0.1518
17381TIP3    H173558   2.725   6.138   1.185 -0.0956 -0.7510 -1.1750
17381TIP3    H273559   2.830   6.157   1.293 -1.6014 -1.8982  0.5411
17382TIP3   OH273560   3.487   0.452  11.000 -0.5387  0.3427  0.3740
17382TIP3    H173561   3.519   0.375  10.954  0.7527  0.9614  0.2034
17382TIP3    H273562   3.438   0.416  11.075  0.8972 -0.6511  0.8763
17383TIP3   OH273563   5.848   4.151   0.655 -0.1675  0.4892 -0.1540
17383TIP3    H173564   5.754   4.161   0.643 -0.1602  0.8043  0.0253
17383TIP3    H273565   5.885   4.155   0.567 -0.4968 -1.8213 -0.4628
17384TIP3   OH273566   1.119   0.420   3.091 -0.7014  0.0973 -0.5204
17384TIP3    H173567   1.045   0.457   3.139 -0.5971 -0.1255 -0.1822
17384TIP3    H273568   1.101   0.326   3.090  0.7036 -0.2530  1.5712
17385TIP3   OH273569   6.100   1.274   0.253  0.2151 -0.0884  0.0344
17385TIP3    H173570   6.048   1.314   0.323  0.8752  3.6464 -1.3587
17385TIP3    H273571   6.036   1.243   0.190 -0.3600  0.8387  0.1491
17386TIP3   OH273572   6.677   6.220  10.927 -0.3142 -0.1631  0.1622
17386TIP3    H173573   6.630   6.223  10.844  0.3094 -0.0086 -0.1918
17386TIP3    H273574   6.636   6.288  10.981  0.1628  0.6639 -0.5019
17387TIP3   OH273575   3.805   1.355   1.461 -0.1928  0.8113 -0.4822
17387TIP3    H173576   3.764   1.435   1.495  1.8882  1.1908  1.4272
17387TIP3    H273577   3.897   1.379   1.448  0.7214 -1.4324  1.0443
17388TIP3   OH273578   0.424   3.929  12.627 -0.1391 -0.0455  0.1213
17388TIP3    H173579   0.439   4.004  12.569 -0.4473 -0.1888 -0.1408
17388TIP3    H273580   0.470   3.857  12.585 -0.6400 -0.2275 -0.1207
17389TIP3   OH273581   5.853   0.306   6.717 -0.3905  0.1541 -0.4981
17389TIP3    H173582   5.905   0.233   6.750 -1.5572 -0.0833  0.9417
17389TIP3    H273583   5.780   0.265   6.672 -0.3701  0.4577 -0.8152
17390TIP3   OH273584   4.200   6.647  13.617 -0.1617 -0.3320 -0.1781
17390TIP3    H173585   4.148   6.727  13.628 -0.2319 -0.6696  2.5376
17390TIP3    H273586   4.140   6.576  13.639  0.6601 -0.9396  0.1477
17391TIP3   OH273587   6.789   5.855  13.408 -0.3057 -0.1713  0.3418
17391TIP3    H173588   6.787   5.944  13.444 -1.4139 -0.5851  1.3748
17391TIP3    H273589   6.862   5.856  13.346 -0.7954  1.6828 -0.2676
17392TIP3   OH273590   3.464   1.360   1.057 -0.4169 -0.0045 -0.0175
17392TIP3    H173591   3.471   1.385   0.965 -1.6876  2.1862  0.4096
17392TIP3    H273592   3.554   1.356   1.088 -0.0308  0.7538 -0.9997
17393TIP3   OH273593   4.919   5.394  14.898 -0.2232 -0.0018 -0.4028
17393TIP3    H173594   4.908   5.477  14.944 -0.8316 -0.4993  0.3940
17393TIP3    H273595   4.869   5.331  14.950 -0.2698 -0.7529 -1.3240
17394TIP3   OH273596   4.147   5.301  11.915 -0.0960  0.3660 -0.4854
17394TIP3    H173597   4.209   5.228  11.924 -1.0531 -0.3064  1.1426
17394TIP3    H273598   4.131   5.308  11.821  0.3204 -1.2765 -0.7091
17395TIP3   OH273599   6.682   5.980  12.225 -0.1900  0.3686  0.4483
17395TIP3    H173600   6.774   5.955  12.216 -0.0882  0.8217  0.2183
17395TIP3    H273601   6.662   6.027  12.145 -1.3546 -1.8987 -0.6750
17396TIP3   OH273602   4.239   3.200   4.232  1.0868  0.2093 -0.3961
17396TIP3    H173603   4.181   3.264   4.192  1.1910  0.3169 -0.3747
17396TIP3    H273604   4.274   3.150   4.159  0.2296 -0.4914 -0.3522
17397TIP3   OH273605   1.856   4.213   1.296 -0.1775  0.0516 -0.2801
17397TIP3    H173606   1.854   4.152   1.223  0.3237  0.4019 -0.5927
17397TIP3    H273607   1.880   4.159   1.372  1.0769 -0.0080 -0.7005
17398TIP3   OH273608   6.010   6.666  14.053 -0.6660 -0.1350  0.3233
17398TIP3    H173609   5.966   6.669  13.968 -1.4026 -0.4276  0.6839
17398TIP3    H273610   5.972   6.589  14.097 -0.3364  0.0478  0.9398
17399TIP3   OH273611   1.390   5.269   2.722 -0.1774 -0.5146 -0.1064
17399TIP3    H173612   1.327   5.297   2.655  3.7988  0.8136 -3.7294
17399TIP3    H273613   1.397   5.174   2.710 -0.6073 -0.4992 -0.5067
17400TIP3   OH273614   3.356   0.285  15.435 -0.1859 -0.0958  0.1571
17400TIP3    H173615   3.369   0.378  15.418 -0.4821  0.8058  3.9675
17400TIP3    H273616   3.444   0.251  15.450 -0.1862 -0.1268  0.0886
17401TIP3   OH273617   5.060   2.275  15.870  0.6104 -0.0128  0.2443
17401TIP3    H173618   5.052   2.179  15.867  3.7413 -0.3622 -0.9550
17401TIP3    H273619   5.048   2.297  15.962 -1.1842 -1.4005  0.4034
17402TIP3   OH273620   3.599   0.312  12.130  0.1135 -0.4074 -0.5422
17402TIP3    H173621   3.586   0.282  12.220 -2.0547  1.7844 -0.0128
17402TIP3    H273622   3.681   0.271  12.102  0.3726 -1.8775  2.0920
17403TIP3   OH273623   0.050   1.353   3.518  0.1077 -0.2571 -0.0908
17403TIP3    H173624   0.135   1.396   3.512  0.2771 -0.6614 -0.7164
17403TIP3    H273625  -0.012   1.425   3.529  0.5267  0.0436  0.3625
17404TIP3   OH273626   4.342   4.298  13.898 -0.7986  0.0020  0.2035
17404TIP3    H173627   4.339   4.307  13.803 -3.1425 -0.4266  0.1729
17404TIP3    H273628   4.430   4.266  13.917 -0.8268 -1.5443 -1.9820
17405TIP3   OH273629   2.800   3.197  12.671 -0.0914 -0.2196  0.5999
17405TIP3    H173630   2.770   3.124  12.616  0.3205 -0.6328  0.9208
17405TIP3    H273631   2.765   3.275  12.628  0.1093 -0.5508 -0.1764
17406TIP3   OH273632   3.102   2.143   5.159 -0.3602 -0.6421 -0.1265
17406TIP3    H173633   3.150   2.197   5.096 -0.8528  1.0534  0.8856
17406TIP3    H273634   3.169   2.101   5.212  0.0335 -0.9938 -0.8934
17407TIP3   OH273635   1.548   1.889  11.567  0.1321  0.0535 -0.2608
17407TIP3    H173636   1.635   1.928  11.574  0.4339 -0.2711 -1.8196
17407TIP3    H273637   1.551   1.814  11.626  1.3998 -0.7676 -1.3022
17408TIP3   OH273638   6.680   4.438  17.098 -0.0667  0.0817  0.5809
17408TIP3    H173639   6.600   4.414  17.145 -0.6511 -1.4154 -1.0696
17408TIP3    H273640   6.739   4.470  17.166 -0.8196 -2.0699  2.3745
17409TIP3   OH273641   0.881   4.300   2.076  0.2956  0.0591  0.3676
17409TIP3    H173642   0.963   4.296   2.027  0.9875  2.5732  1.1646
17409TIP3    H273643   0.892   4.376   2.134 -2.3015 -0.0060  1.0452
17410TIP3   OH273644   5.622   5.126  14.989  0.0877  0.2624 -0.1097
17410TIP3    H173645   5.551   5.156  15.045  1.9567  0.7183  2.1432
17410TIP3    H273646   5.677   5.204  14.975 -1.0316  0.6049 -3.9562
17411TIP3   OH273647   1.590   3.418  10.667 -0.5141 -0.5577  0.3080
17411TIP3    H173648   1.537   3.354  10.619  0.2542 -1.4267  0.5813
17411TIP3    H273649   1.642   3.461  10.599 -1.0046 -0.2415  0.1257
17412TIP3   OH273650   3.969   2.991  14.704 -0.4534  0.3422 -0.7013
17412TIP3    H173651   3.964   2.896  14.718  1.7652  0.5449  2.6992
17412TIP3    H273652   3.878   3.021  14.713 -1.1147 -1.3561 -1.2175
17413TIP3   OH273653   2.559   3.536  15.102  0.1500  0.2796  0.1817
17413TIP3    H173654   2.652   3.532  15.126 -0.1547 -0.6791  1.2529
17413TIP3    H273655   2.536   3.446  15.081 -0.3853  0.6148 -0.7471
17414TIP3   OH273656   2.423   4.625  11.221  0.4335  0.1451 -0.0722
17414TIP3    H173657   2.344   4.598  11.175 -0.8767  0.1258  2.0388
17414TIP3    H273658   2.480   4.661  11.153 -1.4342  0.2659 -1.6523
17415TIP3   OH273659   5.780   2.038  11.994 -0.1873  0.5570  0.3931
17415TIP3    H173660   5.840   1.983  11.943 -0.6681  0.4170 -0.0278
17415TIP3    H273661   5.706   1.980  12.013  0.0089  0.5964  1.2942
17416TIP3   OH273662   6.404   5.706   2.997  0.0060 -0.5034 -0.1153
17416TIP3    H173663   6.428   5.776   3.057  1.8273  0.0117 -1.3591
17416TIP3    H273664   6.487   5.662   2.976 -0.8099 -1.7348 -0.9490
17417TIP3   OH273665   2.707   3.607   3.004  0.0287 -0.0424  0.6391
17417TIP3    H173666   2.712   3.519   2.965  0.6754  0.4414 -0.4049
17417TIP3    H273667   2.742   3.596   3.092 -1.5922 -1.1905  1.1969
17418TIP3   OH273668   5.658   6.493   4.135 -0.5752 -0.0076  0.0806
17418TIP3    H173669   5.623   6.455   4.215 -0.6717 -1.8197 -0.7725
17418TIP3    H273670   5.730   6.550   4.165 -0.2582 -1.0587  1.4176
17419TIP3   OH273671   2.320   4.153   0.309  0.1799  0.0287 -0.0824
17419TIP3    H173672   2.292   4.110   0.390 -1.5780  2.2982  0.6045
17419TIP3    H273673   2.288   4.242   0.316  1.4110  0.7753 -2.5950
17420TIP3   OH273674   2.714   0.365  13.820 -0.4271  0.4052 -0.6703
17420TIP3    H173675   2.714   0.273  13.846  0.0050  0.3217 -0.9597
17420TIP3    H273676   2.761   0.367  13.737  1.1670  1.1166  0.1936
17421TIP3   OH273677   3.073   3.004   1.629 -0.0293 -0.3145  0.1044
17421TIP3    H173678   2.987   2.979   1.663  0.0635  1.2893  1.6837
17421TIP3    H273679   3.054   3.047   1.546 -0.8323  0.4586  0.6631
17422TIP3   OH273680   6.323   0.935   6.481 -0.0483  0.8058  0.6087
17422TIP3    H173681   6.357   0.946   6.393 -0.2514 -0.2918  0.3707
17422TIP3    H273682   6.401   0.931   6.537  0.1358  0.2950  0.3208
17423TIP3   OH273683   4.400   0.234   2.755  0.1644 -0.4620  0.3479
17423TIP3    H173684   4.383   0.200   2.667  0.0022 -0.9141  0.5563
17423TIP3    H273685   4.327   0.202   2.808 -2.3779  3.4952 -0.2813
17424TIP3   OH273686   4.060   2.998   6.628 -0.0921  0.1839  0.2026
17424TIP3    H173687   4.121   2.924   6.633  0.1664  0.4382  1.2090
17424TIP3    H273688   3.973   2.958   6.622 -0.0826 -0.2590  2.2716
17425TIP3   OH273689   1.982   3.068  12.721 -0.3557 -0.7501  0.6425
17425TIP3    H173690   1.963   2.999  12.785 -0.1350 -0.4406  1.0514
17425TIP3    H273691   1.911   3.130  12.731 -0.1449 -0.5368  0.8234
17426TIP3   OH273692   1.584   0.080  15.019 -0.0871 -0.0151  0.6208
17426TIP3    H173693   1.516   0.129  15.066 -0.7552  1.1697 -1.4376
17426TIP3    H273694   1.606   0.136  14.944  0.3270 -2.1111 -0.9214
17427TIP3   OH273695   3.891   0.192   0.319  0.1502 -0.4612  0.1728
17427TIP3    H173696   3.844   0.274   0.304  0.9944 -0.1008 -0.5503
17427TIP3    H273697   3.853   0.158   0.401 -1.1902 -0.0729 -0.2547
17428TIP3   OH273698   3.905   4.432  11.311  0.1442 -0.5399 -0.3611
17428TIP3    H173699   3.862   4.351  11.340  1.1183 -0.8818  0.1721
17428TIP3    H273700   3.945   4.409  11.227  3.2264 -1.6549  1.2831
17429TIP3   OH273701   6.645   5.955   5.984 -0.5264 -0.2661 -0.6091
17429TIP3    H173702   6.667   5.908   6.064 -1.1350 -0.1154 -0.3476
17429TIP3    H273703   6.645   6.048   6.009 -1.5992 -0.2652 -0.5493
17430TIP3   OH273704   0.380   4.497   5.573 -0.1166 -0.5113 -0.3170
17430TIP3    H173705   0.433   4.426   5.609 -0.2546  0.0247  0.9833
17430TIP3    H273706   0.319   4.453   5.513  0.0130 -1.4404  0.2110
17431TIP3   OH273707   3.258   2.752   0.389  0.1382  0.0641 -0.1757
17431TIP3    H173708   3.292   2.703   0.315 -1.2398 -0.0347 -0.7673
17431TIP3    H273709   3.233   2.685   0.453 -0.1946  0.0615 -0.3044
17432TIP3   OH273710   1.861   1.622   0.607  0.7634  0.5530 -0.7384
17432TIP3    H173711   1.808   1.697   0.634  1.5103  0.8082  0.0873
17432TIP3    H273712   1.944   1.661   0.578  1.2775  0.0496 -0.0045
17433TIP3   OH273713   4.543   1.004   6.164 -0.4281 -0.2244  0.4655
17433TIP3    H173714   4.473   1.054   6.205 -0.1136  1.7786 -1.2738
17433TIP3    H273715   4.500   0.952   6.096 -0.2507  1.2656 -0.8336
17434TIP3   OH273716   5.465   3.026  15.761 -0.1468  0.0247  0.7657
17434TIP3    H173717   5.384   3.069  15.788 -0.4103  1.0634 -1.4537
17434TIP3    H273718   5.530   3.096  15.762  0.0115 -0.0895 -0.3754
17435TIP3   OH273719   5.083   1.444   2.245  0.0881 -0.0887 -0.6454
17435TIP3    H173720   5.023   1.434   2.171  0.6531  1.3357 -1.3237
17435TIP3    H273721   5.136   1.520   2.223  0.7201 -0.0393  0.9359
17436TIP3   OH273722   3.571   1.434  14.650 -0.2987  0.2763 -0.4817
17436TIP3    H173723   3.602   1.352  14.610 -0.2490  0.7893 -1.5132
17436TIP3    H273724   3.649   1.472  14.690 -0.3691 -0.2854  0.2353
17437TIP3   OH273725   3.863   6.469   2.003  0.9484  0.3252 -0.1980
17437TIP3    H173726   3.898   6.513   2.080  1.6703  0.7332 -0.7447
17437TIP3    H273727   3.855   6.538   1.937  0.7869 -0.1003 -0.6321
17438TIP3   OH273728   4.844   0.161   0.941 -0.0508  0.0664 -0.7105
17438TIP3    H173729   4.871   0.105   1.015 -2.5603  1.5139  1.4680
17438TIP3    H273730   4.926   0.196   0.907  1.3214 -1.9678  0.2734
17439TIP3   OH273731   4.319   2.246   4.217 -0.4640  0.4256 -0.0603
17439TIP3    H173732   4.259   2.192   4.269  0.4681 -0.1616  0.4293
17439TIP3    H273733   4.367   2.298   4.281 -1.6265  2.1693 -0.5495
17440TIP3   OH273734   5.049   4.676   0.620  0.4580 -0.0166 -0.0764
17440TIP3    H173735   5.084   4.701   0.535  2.0247  3.1360  1.3386
17440TIP3    H273736   5.126   4.660   0.674 -0.5010 -2.6321  0.6933
17441TIP3   OH273737   6.232   1.967   5.378  0.3486  0.7042  0.4403
17441TIP3    H173738   6.281   1.921   5.309 -2.3358  0.6151 -1.5744
17441TIP3    H273739   6.284   2.045   5.395 -0.1730  2.3016 -3.9524
17442TIP3   OH273740   6.547   4.647   2.245 -0.5965  0.1167  0.5018
17442TIP3    H173741   6.636   4.653   2.279 -0.5017 -0.1416  0.2909
17442TIP3    H273742   6.505   4.581   2.301 -0.4418 -0.3051  0.1195
17443TIP3   OH273743   2.527   5.565  11.491 -0.0868 -0.3314 -0.6937
17443TIP3    H173744   2.589   5.575  11.420  0.4154  0.5384 -0.1497
17443TIP3    H273745   2.529   5.471  11.512  0.7149 -0.3749 -0.9639
17444TIP3   OH273746   1.152   4.685   0.570 -0.3995  0.3089  0.4445
17444TIP3    H173747   1.073   4.682   0.624 -1.9488  0.2776 -1.6873
17444TIP3    H273748   1.192   4.599   0.581 -1.3239 -0.1042  0.6550
17445TIP3   OH273749   5.427   2.313   4.282 -0.5044  0.0241  0.4475
17445TIP3    H173750   5.389   2.250   4.220  1.1320 -0.3669 -0.2171
17445TIP3    H273751   5.360   2.381   4.291 -1.5817 -0.9072 -0.2084
17446TIP3   OH273752   5.570   2.368  13.159 -0.2406 -0.8677 -0.4494
17446TIP3    H173753   5.615   2.316  13.225  2.3304  1.8018  0.1429
17446TIP3    H273754   5.587   2.323  13.076  1.9387 -1.0062  0.0284
17447TIP3   OH273755   6.724   1.569  15.522  0.8790  0.1049 -0.4914
17447TIP3    H173756   6.709   1.507  15.594  0.1923 -0.6295 -1.2420
17447TIP3    H273757   6.756   1.514  15.451  0.6245  0.6783 -1.0493
17448TIP3   OH273758   1.742   3.176   1.021 -0.5090  0.6553  0.2705
17448TIP3    H173759   1.675   3.188   0.954 -0.9470  0.4602  0.6652
17448TIP3    H273760   1.702   3.210   1.101 -0.6877 -0.7744  0.8203
17449TIP3   OH273761   4.225   1.446   0.879  0.0668 -0.2146 -0.5829
17449TIP3    H173762   4.262   1.488   0.801 -0.7343  1.0016 -0.3549
17449TIP3    H273763   4.247   1.506   0.951 -2.2601  0.5882 -0.4483
17450TIP3   OH273764   4.161   6.562   2.085  0.3943  0.0321  0.1127
17450TIP3    H173765   4.161   6.535   1.993 -1.1008  0.5928 -0.0881
17450TIP3    H273766   4.249   6.542   2.116  1.3047  0.8556 -1.7471
17451TIP3   OH273767   6.032   5.471  13.057  0.0230 -0.0645 -0.2279
17451TIP3    H173768   6.075   5.476  12.972 -0.5175 -1.4575 -0.5960
17451TIP3    H273769   5.944   5.504  13.042 -0.4822 -1.4857 -0.5183
17452TIP3   OH273770   0.617   6.037  10.738 -0.6809 -0.7046  0.5942
17452TIP3    H173771   0.674   6.096  10.689 -2.6775  1.9047  1.1896
17452TIP3    H273772   0.584   5.976  10.672  0.9367 -0.8231 -0.1735
17453TIP3   OH273773   5.987   2.629   1.664  0.4540  0.1804 -0.0676
17453TIP3    H173774   5.895   2.609   1.683  0.2394  0.2610 -0.9544
17453TIP3    H273775   5.994   2.617   1.569  1.6197 -0.8353  0.1329
17454TIP3   OH273776   1.117   5.429  12.579 -0.3657 -0.1212  0.1820
17454TIP3    H173777   1.180   5.372  12.624 -2.2547 -1.9210  0.7137
17454TIP3    H273778   1.053   5.452  12.647 -1.2768  0.1453 -0.7302
17455TIP3   OH273779   4.293   1.788   5.548  0.4171  0.1665  0.4136
17455TIP3    H173780   4.283   1.734   5.627  3.1018  0.2919  0.9567
17455TIP3    H273781   4.363   1.850   5.571  3.3518 -1.5697 -2.9000
17456TIP3   OH273782   6.338   0.272   6.305  0.0894 -0.5128 -0.8862
17456TIP3    H173783   6.338   0.367   6.301  1.2248 -0.2379  2.4371
17456TIP3    H273784   6.248   0.247   6.282 -0.9388  1.5750  0.5246
17457TIP3   OH273785   2.615   0.728   4.689  0.3100  0.0662 -0.5528
17457TIP3    H173786   2.678   0.669   4.731  1.1015  2.0084  1.1434
17457TIP3    H273787   2.539   0.727   4.748  0.7982  1.5907  0.1490
17458TIP3   OH273788   0.788   2.406  13.174 -0.0559 -0.3247  0.1766
17458TIP3    H173789   0.852   2.448  13.117  0.2306 -0.9971 -0.0069
17458TIP3    H273790   0.724   2.367  13.115  0.1155 -0.8255  0.3135
17459TIP3   OH273791   2.319   0.749   3.604 -0.4542 -0.5852 -0.2506
17459TIP3    H173792   2.372   0.735   3.683 -0.3735  2.0989  0.2899
17459TIP3    H273793   2.381   0.783   3.540 -0.5913 -2.4334 -1.4195
17460TIP3   OH273794   4.076   1.049   6.458  0.2085 -0.3493 -0.2874
17460TIP3    H173795   3.998   1.100   6.483  2.3719  2.7558  0.8192
17460TIP3    H273796   4.082   0.980   6.524 -0.3132  0.8622  1.0817
17461TIP3   OH273797   3.258   6.561   3.472  0.6327 -0.7825 -0.4279
17461TIP3    H173798   3.253   6.553   3.568  0.8523 -1.3307 -0.4604
17461TIP3    H273799   3.313   6.637   3.458  0.5946 -0.6929 -0.1163
17462TIP3   OH273800   6.553   1.552   4.107 -0.5345 -0.2531 -0.1141
17462TIP3    H173801   6.476   1.514   4.064  0.1062  0.1272 -1.6681
17462TIP3    H273802   6.573   1.630   4.055 -0.5253  0.9993  1.7175
17463TIP3   OH273803   6.603   2.748   5.507 -0.2657  0.0361  0.7410
17463TIP3    H173804   6.638   2.754   5.418  0.1952 -0.6083  0.8755
17463TIP3    H273805   6.589   2.839   5.533 -1.4755  0.2061 -0.4001
17464TIP3   OH273806   6.387   1.079   5.157 -0.3145 -0.6088  0.0384
17464TIP3    H173807   6.299   1.072   5.120 -0.5806 -0.5621  0.6449
17464TIP3    H273808   6.392   1.168   5.191 -0.3311 -0.8637  0.7310
17465TIP3   OH273809   1.723   2.135  12.756  0.0183 -0.0646  0.5721
17465TIP3    H173810   1.701   2.046  12.784 -0.8165  0.1650  0.6834
17465TIP3    H273811   1.720   2.132  12.661  0.0361 -0.1696  0.5743
17466TIP3   OH273812   5.875   2.118   2.926 -0.5844 -0.1847  0.0312
17466TIP3    H173813   5.809   2.146   2.863 -1.7651  0.0345  1.3208
17466TIP3    H273814   5.947   2.180   2.916 -1.0950  0.3148 -0.5534
17467TIP3   OH273815   3.563   5.636   4.067 -0.2770  0.1922  0.2644
17467TIP3    H173816   3.527   5.719   4.097 -0.5954  1.0692 -2.2438
17467TIP3    H273817   3.655   5.638   4.093 -0.3474  1.2188  0.4754
17468TIP3   OH273818   0.074   1.842  15.077 -0.0083 -0.2648 -0.0306
17468TIP3    H173819   0.064   1.752  15.109  0.7814 -0.2208  0.3529
17468TIP3    H273820   0.113   1.831  14.990  2.6614 -0.2309  1.0958
17469TIP3   OH273821   5.907   0.937   1.383  0.1189 -0.2470  0.1653
17469TIP3    H173822   5.823   0.952   1.340  0.4586 -0.5561 -0.6288
17469TIP3    H273823   5.970   0.933   1.311  0.8717  0.3711  0.7726
17470TIP3   OH273824   1.382   2.198  13.223  0.0881 -0.0909  0.4038
17470TIP3    H173825   1.348   2.284  13.246 -2.9004 -1.3340  1.0614
17470TIP3    H273826   1.398   2.202  13.129 -2.7062  0.4131 -0.1304
17471TIP3   OH273827   1.028   1.415  15.578 -0.1212  0.2741 -0.7687
17471TIP3    H173828   1.100   1.475  15.598 -0.0627 -0.0407  0.0016
17471TIP3    H273829   0.980   1.407  15.661 -0.4183 -0.3451 -0.9943
17472TIP3   OH273830   4.087   4.761  11.737 -0.0830 -0.5464 -0.4451
17472TIP3    H173831   4.023   4.802  11.679 -0.1019 -1.3870 -1.0357
17472TIP3    H273832   4.034   4.717  11.804 -0.1486 -1.2770 -0.9566
17473TIP3   OH273833   3.257   4.002   4.597 -0.6958 -0.4677 -0.1539
17473TIP3    H173834   3.327   3.957   4.550 -0.6812  0.7438 -1.3549
17473TIP3    H273835   3.195   3.932   4.619  0.8025 -1.5475  0.8528
17474TIP3   OH273836   5.926   3.515   1.115  0.4761 -0.1369  0.3385
17474TIP3    H173837   5.886   3.593   1.077  2.3844  0.8662  0.2741
17474TIP3    H273838   6.014   3.512   1.078  0.5669 -2.1586  0.5951
17475TIP3   OH273839   0.445   6.677   3.869 -0.2384  0.5243 -0.2667
17475TIP3    H173840   0.518   6.673   3.808  1.1274  0.0096  1.3356
17475TIP3    H273841   0.417   6.769   3.868 -1.0530  0.3290 -2.4918
17476TIP3   OH273842   0.912   5.034  13.950  0.3997 -0.0044 -0.1310
17476TIP3    H173843   0.829   5.051  13.996  0.1417 -1.9590  0.2141
17476TIP3    H273844   0.979   5.043  14.018  0.1621 -1.2851  0.3189
17477TIP3   OH273845   5.250   4.052  16.354  0.8200 -0.2201 -0.1903
17477TIP3    H173846   5.228   3.967  16.393  0.6665  0.7314  1.9748
17477TIP3    H273847   5.194   4.114  16.400  0.3511  0.9957 -2.2972
17478TIP3   OH273848   2.526   1.443  10.793  0.0509 -0.3630  0.2134
17478TIP3    H173849   2.470   1.520  10.800 -0.8635 -1.1029  1.6929
17478TIP3    H273850   2.597   1.469  10.734 -3.1483 -0.1767 -4.0563
17479TIP3   OH273851   2.157   3.955  13.108  0.0943  0.0729  0.2947
17479TIP3    H173852   2.208   4.035  13.124  0.1981 -0.1282  1.0293
17479TIP3    H273853   2.161   3.942  13.014  0.5014  0.6561  0.2240
17480TIP3   OH273854   1.416   0.205   4.965 -0.0329 -0.5506 -0.0212
17480TIP3    H173855   1.356   0.131   4.960  0.0715 -0.5938 -0.7416
17480TIP3    H273856   1.365   0.275   5.006  0.2657 -1.4070  1.8978
17481TIP3   OH273857   1.582   5.233   3.172 -0.2871 -0.1208 -0.0624
17481TIP3    H173858   1.571   5.243   3.266  1.3404 -0.2001  0.1615
17481TIP3    H273859   1.499   5.261   3.135 -0.7094  0.5731  1.3548
17482TIP3   OH273860   0.590   2.945  14.808  0.1524 -0.2078  0.4410
17482TIP3    H173861   0.645   2.916  14.735 -0.1751  0.7034 -0.1895
17482TIP3    H273862   0.651   2.986  14.869  0.6419 -2.3140  1.4233
17483TIP3   OH273863   4.254   1.519   5.370  0.1840  0.8988 -0.6973
17483TIP3    H173864   4.280   1.583   5.435  1.3078  0.5777 -0.7998
17483TIP3    H273865   4.159   1.524   5.367  0.1518  1.2992  0.5664
17484TIP3   OH273866   3.854   4.436  11.843  0.6782  0.2089 -0.0751
17484TIP3    H173867   3.778   4.389  11.878 -0.1710  2.0527  0.7116
17484TIP3    H273868   3.930   4.384  11.870 -0.2198 -0.7902  0.5950
17485TIP3   OH273869   3.816   3.283  15.092  0.6077 -0.0678 -0.5201
17485TIP3    H173870   3.862   3.215  15.042 -0.2155 -1.5153  0.6141
17485TIP3    H273871   3.723   3.268  15.074  0.3890  0.4294  0.1568
17486TIP3   OH273872   3.836   6.321  15.112 -0.0282  0.6311  0.2010
17486TIP3    H173873   3.921   6.363  15.103  0.2116 -0.0886 -1.0851
17486TIP3    H273874   3.850   6.231  15.082 -1.3139  0.5926 -0.3466
17487TIP3   OH273875   1.815   5.630  15.645  0.3492 -0.2298  0.3163
17487TIP3    H173876   1.720   5.643  15.638  0.1557 -1.8474 -0.6970
17487TIP3    H273877   1.828   5.598  15.734 -0.0706 -0.1025  0.4289
17488TIP3   OH273878   5.386   4.387  12.415  0.0155  0.1965 -0.0898
17488TIP3    H173879   5.339   4.471  12.421  1.3823  0.9564  0.6298
17488TIP3    H273880   5.388   4.355  12.505  0.1222 -0.2637 -0.2564
17489TIP3   OH273881   5.285   3.534   3.153  0.1750  0.3470 -0.0186
17489TIP3    H173882   5.347   3.506   3.220 -0.3888  1.6706  1.1039
17489TIP3    H273883   5.311   3.624   3.132 -0.7199  0.5497 -0.3063
17490TIP3   OH273884   0.238   1.728  11.873  0.4992  0.0976  0.2129
17490TIP3    H173885   0.209   1.781  11.799  1.1065  0.7438  0.4172
17490TIP3    H273886   0.329   1.706  11.853  0.7431  0.4736  0.8555
17491TIP3   OH273887   3.784   0.934   4.920 -0.7807  0.1207 -0.1592
17491TIP3    H173888   3.739   0.947   5.004 -0.3764  0.7794 -0.0358
17491TIP3    H273889   3.840   1.012   4.911  0.8525 -0.9881  0.0182
17492TIP3   OH273890   5.838   4.307   1.054 -0.0700  0.4434 -0.3250
17492TIP3    H173891   5.925   4.284   1.087 -0.5648  0.3062  0.9161
17492TIP3    H273892   5.788   4.226   1.058  0.3260 -0.0565 -3.1618
17493TIP3   OH273893   3.381   2.120  11.246 -0.1431  0.0301  0.1519
17493TIP3    H173894   3.436   2.197  11.258  1.0720 -1.1579  3.9705
17493TIP3    H273895   3.358   2.120  11.153 -0.9436  5.3454  0.0372
17494TIP3   OH273896   1.352   1.073   5.249  0.0664  0.3238 -0.2559
17494TIP3    H173897   1.394   1.045   5.168  1.0994  0.6768  0.1393
17494TIP3    H273898   1.424   1.080   5.312 -0.8266 -0.8854  0.9688
17495TIP3   OH273899   4.560   2.918   5.463 -0.5202 -0.7567  0.0838
17495TIP3    H173900   4.470   2.915   5.431 -0.1934 -0.6541 -0.8828
17495TIP3    H273901   4.577   3.012   5.476 -0.1596 -0.6775 -0.9141
17496TIP3   OH273902   6.368   2.789   4.479  0.1983  0.3883 -0.2113
17496TIP3    H173903   6.450   2.746   4.502 -0.8514 -1.7027 -0.1758
17496TIP3    H273904   6.319   2.794   4.561  0.1533  1.3708 -0.2832
17497TIP3   OH273905   3.510   2.367   3.589  0.3195  0.0831  0.1327
17497TIP3    H173906   3.534   2.394   3.678  0.0334 -0.1852  0.2952
17497TIP3    H273907   3.427   2.410   3.572 -0.5500 -1.3137  0.7093
17498TIP3   OH273908   6.169   2.002   0.733 -0.0471  0.0706 -0.4384
17498TIP3    H173909   6.083   1.960   0.735 -0.6226  1.2100  1.2341
17498TIP3    H273910   6.231   1.930   0.744 -1.0441 -0.4221  3.5616
17499TIP3   OH273911   1.117   5.055   0.248 -0.3827  0.4437  0.5394
17499TIP3    H173912   1.122   5.046   0.152 -0.4367  0.2414  0.5562
17499TIP3    H273913   1.209   5.059   0.276 -0.2748 -2.0027  0.7229
17500TIP3   OH273914   1.573   0.885   3.628  0.6826 -0.0799 -0.2401
17500TIP3    H173915   1.557   0.967   3.675  3.6899  1.6780 -1.9604
17500TIP3    H273916   1.491   0.868   3.581  0.2782  2.5296 -0.6438
17501TIP3   OH273917   6.571   1.430  13.173  0.3817 -0.1144 -0.2236
17501TIP3    H173918   6.491   1.426  13.225 -0.4459  0.7463 -1.3840
17501TIP3    H273919   6.573   1.346  13.126  1.0427 -0.8205  1.0099
17502TIP3   OH273920   3.768   4.785   6.501  0.4735  0.3765  0.1115
17502TIP3    H173921   3.822   4.708   6.483 -2.4421 -2.0357  0.7065
17502TIP3    H273922   3.711   4.793   6.425 -0.7947  0.4426  1.0170
17503TIP3   OH273923   6.400   4.759  14.359 -0.0725  0.6430  0.1541
17503TIP3    H173924   6.429   4.809  14.283  1.0365  0.7779  0.6481
17503TIP3    H273925   6.326   4.807  14.393  0.7042  1.7175  0.3622
17504TIP3   OH273926   5.184   3.563  15.095  1.0045 -0.2222 -0.3588
17504TIP3    H173927   5.112   3.571  15.033  0.6800 -1.7444 -0.2181
17504TIP3    H273928   5.240   3.495  15.058  1.0524 -0.8191  0.7677
17505TIP3   OH273929   1.779   4.782   5.044  0.6226  0.1054 -0.4158
17505TIP3    H173930   1.762   4.798   5.137  1.9204  0.7958 -0.2791
17505TIP3    H273931   1.782   4.686   5.037  2.9839  0.0300  0.7680
17506TIP3   OH273932   6.534   1.311   1.559 -0.3320 -0.5448 -0.5425
17506TIP3    H173933   6.535   1.218   1.581 -1.4555 -0.4233  0.1103
17506TIP3    H273934   6.546   1.314   1.464 -1.8974 -1.4568 -0.8012
17507TIP3   OH273935   0.162   2.710  12.725 -0.6683  0.0719 -0.0640
17507TIP3    H173936   0.092   2.679  12.783  1.3580 -0.2857  2.3430
17507TIP3    H273937   0.218   2.634  12.710 -0.3820  0.5083 -1.4045
17508TIP3   OH273938   1.138   1.432  17.127  0.3198  0.7429 -0.5264
17508TIP3    H173939   1.174   1.381  17.054  1.9315  1.7617 -0.4944
17508TIP3    H273940   1.143   1.523  17.097 -0.7694  1.0464  0.1425
17509TIP3   OH273941   3.180   3.447   3.777 -0.0795 -0.1049  0.3277
17509TIP3    H173942   3.120   3.479   3.709 -0.0002  0.3257  0.4582
17509TIP3    H273943   3.154   3.494   3.856 -2.0325 -2.5927  1.3437
17510TIP3   OH273944   4.770   3.612   4.860 -0.1990 -0.6404 -0.0365
17510TIP3    H173945   4.865   3.602   4.852  0.2332  2.7047 -0.5740
17510TIP3    H273946   4.735   3.566   4.784  0.8556 -2.7076  0.6577
17511TIP3   OH273947   5.602   2.968  16.390  0.4195  0.1479 -0.4723
17511TIP3    H173948   5.651   3.050  16.397 -0.1924  0.4664  0.1868
17511TIP3    H273949   5.666   2.900  16.412  0.3720  0.6196  1.2902
17512TIP3   OH273950   4.825   1.104  11.204  0.4534  0.5171  0.3120
17512TIP3    H173951   4.750   1.054  11.171  1.0620 -0.7595  0.7999
17512TIP3    H273952   4.817   1.099  11.299  1.0762  0.5126  0.3656
17513TIP3   OH273953   0.588   0.868   3.349  0.0400  0.1222 -0.0402
17513TIP3    H173954   0.592   0.772   3.342 -0.4164  0.2069 -1.7895
17513TIP3    H273955   0.504   0.892   3.310  0.4110  1.2832 -0.1630
17514TIP3   OH273956   5.994   2.084  15.630  0.8025 -0.0075 -0.0352
17514TIP3    H173957   6.057   2.145  15.592  0.4659 -0.1428 -0.8332
17514TIP3    H273958   5.908   2.120  15.605  0.5923 -0.5536 -0.1271
17515TIP3   OH273959   6.308   2.138   1.943  0.1994 -0.8835  0.0256
17515TIP3    H173960   6.254   2.205   1.985  0.8740  0.1354 -0.6928
17515TIP3    H273961   6.357   2.099   2.016  0.7020  0.2546  0.3321
17516TIP3   OH273962   0.405   6.574   2.872  0.1578  0.4824  0.1238
17516TIP3    H173963   0.350   6.651   2.862  0.0497  0.3044 -0.7573
17516TIP3    H273964   0.359   6.505   2.824  1.4522  0.4985 -1.2359
17517TIP3   OH273965   4.573   1.566   0.440 -0.2557  0.7487 -0.6594
17517TIP3    H173966   4.499   1.530   0.392  0.7709 -1.5222 -0.6575
17517TIP3    H273967   4.624   1.490   0.467  1.4194  2.1704  0.4430
17518TIP3   OH273968   4.000   2.006   1.716 -0.2183  0.4662 -0.1206
17518TIP3    H173969   3.945   1.928   1.713  0.6552 -0.1970  0.3865
17518TIP3    H273970   3.940   2.079   1.703 -1.1506 -0.2542  0.0395
17519TIP3   OH273971   3.299   1.729   5.022  0.0222  0.1215  0.6727
17519TIP3    H173972   3.224   1.781   5.050  0.3101  0.8941  0.0353
17519TIP3    H273973   3.281   1.709   4.930  0.2304 -0.3459  0.7312
17520TIP3   OH273974   6.090   2.895   1.978  0.1051  0.1548  0.6605
17520TIP3    H173975   6.122   2.879   1.890 -0.7602  1.5194  0.0704
17520TIP3    H273976   6.015   2.953   1.967  1.9502  3.1806  2.4600
17521TIP3   OH273977   4.088   0.126  11.493  0.4473  0.0800 -0.0237
17521TIP3    H173978   4.052   0.090  11.574 -1.6001  1.2061 -0.3673
17521TIP3    H273979   4.089   0.051  11.432  3.1905 -1.0929  1.2982
17522TIP3   OH273980   2.737   5.981  13.352  0.7367  0.0682 -0.8258
17522TIP3    H173981   2.696   5.926  13.286 -0.8799  1.0297 -0.6658
17522TIP3    H273982   2.722   5.936  13.435  1.9159 -0.6424 -0.9652
17523TIP3   OH273983   1.453   1.457  16.813  0.5490 -0.0820 -0.1922
17523TIP3    H173984   1.389   1.407  16.864  1.5332  1.3116  2.6247
17523TIP3    H273985   1.520   1.394  16.790  0.0765 -0.7669  0.2728
17524TIP3   OH273986   1.171   5.205   6.043  0.4538  0.0877 -0.1446
17524TIP3    H173987   1.188   5.217   6.136  0.2154 -3.6067  0.5342
17524TIP3    H273988   1.257   5.190   6.004  0.3627 -0.8239 -0.0195
17525TIP3   OH273989   6.658   4.980   4.450  0.8615  0.2176  0.0766
17525TIP3    H173990   6.744   5.019   4.464  0.3445  1.6914 -0.6478
17525TIP3    H273991   6.607   5.049   4.410 -1.0795 -0.1911  1.6932
17526TIP3   OH273992   3.504   2.369   1.359  0.0301 -0.3703 -0.1094
17526TIP3    H173993   3.538   2.458   1.364 -0.5863 -0.1937  2.0151
17526TIP3    H273994   3.440   2.363   1.430  0.0819 -2.5240 -0.1561
17527TIP3   OH273995   6.509   5.713   0.704 -0.2191 -0.2136  0.9004
17527TIP3    H173996   6.510   5.805   0.731 -1.0736 -0.4156  1.6961
17527TIP3    H273997   6.600   5.685   0.713  0.0279  0.5151  0.7832
17528TIP3   OH273998   5.261   4.985   0.684  0.3727  0.1778 -0.7229
17528TIP3    H173999   5.233   5.064   0.730  0.2111 -0.0616 -0.4059
17528TIP3    H274000   5.189   4.922   0.698  1.6312 -0.9075  1.2514
17529TIP3   OH274001   5.183   5.170   3.406 -0.5379 -0.3137  0.3029
17529TIP3    H174002   5.124   5.233   3.448 -0.1532  0.0739  0.2732
17529TIP3    H274003   5.125   5.111   3.358 -1.0736 -1.4390  2.2260
17530TIP3   OH274004   5.128   1.123  15.644 -0.0916  0.1285 -0.4465
17530TIP3    H174005   5.081   1.105  15.725  0.6808  1.3178  0.2956
17530TIP3    H274006   5.221   1.119  15.669  0.1506  0.6966 -1.2300
17531TIP3   OH274007   3.842   6.293  16.100 -0.1745  0.2736 -0.1444
17531TIP3    H174008   3.788   6.307  16.178 -2.3539 -0.4955 -1.4193
17531TIP3    H274009   3.797   6.340  16.030 -0.5108 -2.2128 -1.7380
17532TIP3   OH274010   5.218   5.192  15.527  0.4289 -0.1242 -0.6471
17532TIP3    H174011   5.243   5.139  15.602  2.7125 -0.5455 -1.6360
17532TIP3    H274012   5.300   5.228  15.494 -0.9533  4.3137  0.0791
17533TIP3   OH274013   6.591   2.862  12.416  0.3286  0.7915 -0.1708
17533TIP3    H174014   6.623   2.806  12.345 -1.4361 -0.6376  0.0725
17533TIP3    H274015   6.627   2.822  12.495 -0.6367  0.1615 -0.0255
17534TIP3   OH274016   1.796   5.786  13.140  0.1989 -0.3322  0.2585
17534TIP3    H174017   1.804   5.846  13.066 -0.1872 -0.2268  0.3041
17534TIP3    H274018   1.724   5.728  13.117  1.4182 -1.6692 -0.4092
17535TIP3   OH274019   0.684   4.170   4.701 -0.1808  0.1170  0.0741
17535TIP3    H174020   0.624   4.099   4.724  1.8615 -1.5910  0.4699
17535TIP3    H274021   0.676   4.180   4.606 -0.5792 -0.5639  0.0346
17536TIP3   OH274022   0.095   5.178  13.790 -0.2650  0.5489  0.0996
17536TIP3    H174023   0.020   5.237  13.789  0.3805  1.3992 -0.0757
17536TIP3    H274024   0.061   5.094  13.760 -0.4726  1.7842 -3.7047
17537TIP3   OH274025   4.918   0.091  14.402 -0.5034  0.2080 -0.3505
17537TIP3    H174026   4.981   0.153  14.438 -0.6054  0.3210 -0.3662
17537TIP3    H274027   4.903   0.121  14.313  0.4301 -0.5831 -0.7997
17538TIP3   OH274028   5.887   0.305  12.074 -0.1710 -0.4535  0.6780
17538TIP3    H174029   5.933   0.236  12.122 -0.6049 -0.8445  0.5424
17538TIP3    H274030   5.800   0.268  12.057 -0.0895 -0.2394 -0.2307
17539TIP3   OH274031   5.375   4.766   2.595  0.1751 -0.0128  0.1335
17539TIP3    H174032   5.307   4.826   2.625  0.6304  0.3440  0.4567
17539TIP3    H274033   5.341   4.730   2.513  0.1899  1.1763 -0.4008
17540TIP3   OH274034   6.583   2.630  16.617 -0.1220  0.1077  0.5002
17540TIP3    H174035   6.534   2.554  16.649 -1.4328  0.2189 -1.0798
17540TIP3    H274036   6.660   2.593  16.575 -0.8488 -0.3799 -0.4281
17541TIP3   OH274037   2.920   0.653   0.412 -0.4347 -0.0264 -0.0546
17541TIP3    H174038   2.963   0.568   0.404 -0.3340 -0.0123  0.2788
17541TIP3    H274039   2.980   0.704   0.467 -0.8068  0.0438  0.2890
17542TIP3   OH274040   1.179   3.766   3.856 -0.3963  0.0942 -0.4863
17542TIP3    H174041   1.140   3.700   3.913 -0.3542  0.7359  0.3086
17542TIP3    H274042   1.139   3.849   3.884  1.3840  0.7498  0.2661
17543TIP3   OH274043   6.625   1.186   3.658 -0.1842 -0.0805  0.1408
17543TIP3    H174044   6.633   1.280   3.639 -0.6188  0.2417  1.4362
17543TIP3    H274045   6.597   1.183   3.750 -2.6418 -1.4175 -0.5844
17544TIP3   OH274046   6.444   3.611  15.074 -0.5921 -0.3578 -0.5105
17544TIP3    H174047   6.379   3.604  15.005  0.0569  0.2610 -1.1990
17544TIP3    H274048   6.483   3.698  15.062  1.4263 -1.2867 -1.0670
17545TIP3   OH274049   6.133   3.579  14.149 -0.2799 -0.2452  0.2675
17545TIP3    H174050   6.098   3.504  14.100  0.7430 -0.1206 -0.6747
17545TIP3    H274051   6.082   3.654  14.119 -1.4777 -0.5532  1.3929
17546TIP3   OH274052   1.400   1.389  13.248 -0.0938 -0.2248 -0.0489
17546TIP3    H174053   1.315   1.371  13.209 -0.0346 -1.1982  0.2296
17546TIP3    H274054   1.463   1.344  13.191  0.3003  0.9219 -0.5491
17547TIP3   OH274055   0.015   1.152   1.566 -0.3138 -0.4086 -0.1212
17547TIP3    H174056   0.084   1.153   1.632  0.7334  1.2068 -1.1561
17547TIP3    H274057   0.060   1.174   1.484 -2.1947  1.8030 -0.6582
17548TIP3   OH274058   1.894   5.809   2.540  0.1801  0.8771  0.6065
17548TIP3    H174059   1.830   5.861   2.491 -0.4864 -0.9021 -0.4954
17548TIP3    H274060   1.934   5.752   2.475  0.6643 -0.2060  1.8079
17549TIP3   OH274061   5.173   0.243  12.022  0.1915 -0.3601 -0.2211
17549TIP3    H174062   5.220   0.219  12.101 -0.5444  1.4318  0.8237
17549TIP3    H274063   5.209   0.328  11.997 -0.7377 -0.1226 -0.8236
17550TIP3   OH274064   3.526   0.148  11.151 -0.1608 -0.2967 -1.0808
17550TIP3    H174065   3.540   0.227  11.204  0.7768  1.0692 -3.2026
17550TIP3    H274066   3.580   0.162  11.073 -1.2235 -2.3321 -2.2639
17551TIP3   OH274067   1.073   4.637   3.959 -0.4848 -0.2877 -0.2788
17551TIP3    H174068   1.044   4.658   3.870 -1.1025  1.4401  0.2899
17551TIP3    H274069   1.102   4.721   3.995  0.3665 -1.0700  0.9456
17552TIP3   OH274070   1.237   3.414  12.081 -0.1606  0.2876  0.2228
17552TIP3    H174071   1.249   3.392  11.989  1.6621 -0.1728  0.5335
17552TIP3    H274072   1.207   3.505  12.081 -0.4793  0.1880 -0.8275
17553TIP3   OH274073   3.044   5.645   4.095  0.2134 -0.3178  0.2259
17553TIP3    H174074   3.102   5.572   4.076 -1.3964 -2.2136  2.1730
17553TIP3    H274075   2.956   5.610   4.085 -0.6307  1.5993  0.4207
17554TIP3   OH274076   6.322   4.382  13.110 -0.1373 -0.2924  0.0174
17554TIP3    H174077   6.392   4.360  13.171  0.3873 -1.9603 -1.1302
17554TIP3    H274078   6.249   4.326  13.135 -1.1655  1.4882  1.2549
17555TIP3   OH274079   5.934   2.027   1.643 -0.0377  0.1640 -1.0775
17555TIP3    H174080   5.865   1.984   1.694  0.6277  0.8418  0.4578
17555TIP3    H274081   5.931   1.984   1.558 -1.2700 -0.9415 -0.5138
17556TIP3   OH274082   2.674   0.197  14.569  0.1476  0.1849 -0.2660
17556TIP3    H174083   2.759   0.188  14.612  0.0293  1.0126  0.1580
17556TIP3    H274084   2.657   0.111  14.531  1.3664  0.1298 -0.7203
17557TIP3   OH274085   6.451   2.213   2.543 -0.0111  0.1388 -0.4069
17557TIP3    H174086   6.470   2.274   2.472 -0.4763 -0.5372 -1.1285
17557TIP3    H274087   6.500   2.134   2.520  1.3914  0.5383  1.0189
17558TIP3   OH274088   1.426   5.308   5.538 -0.1797  0.2087  0.1948
17558TIP3    H174089   1.346   5.259   5.520  0.6781 -1.0333 -0.4390
17558TIP3    H274090   1.436   5.305   5.633 -1.5734  1.5617  0.4225
17559TIP3   OH274091   4.429   0.523  11.854 -0.3612  0.1519  0.1040
17559TIP3    H174092   4.500   0.587  11.848 -0.6806  0.4020 -1.6315
17559TIP3    H274093   4.395   0.534  11.943  2.4553 -0.7703  1.4321
17560TIP3   OH274094   1.760   2.028  14.555  0.1247 -0.2517 -0.1257
17560TIP3    H174095   1.693   2.085  14.519  1.1421  0.0191 -1.6841
17560TIP3    H274096   1.746   1.943  14.514  0.7426 -0.1802 -0.5070
17561TIP3   OH274097   3.760   3.011   3.755 -0.5484  0.0184  0.4904
17561TIP3    H174098   3.700   3.076   3.793  0.6666  0.4983  1.6612
17561TIP3    H274099   3.725   2.927   3.785 -1.7797  0.1267 -0.5305
17562TIP3   OH274100   1.129   3.423   6.553 -0.4302  0.3930  0.1690
17562TIP3    H174101   1.088   3.496   6.600  0.0582  1.0318 -0.3792
17562TIP3    H274102   1.223   3.432   6.570 -0.4355 -0.7121  0.9215
17563TIP3   OH274103   4.822   1.844   1.511 -0.3191 -0.4795 -0.3431
17563TIP3    H174104   4.790   1.876   1.427  3.2549  1.7737 -1.0517
17563TIP3    H274105   4.913   1.819   1.494 -0.3313 -2.6976  2.2738
17564TIP3   OH274106   0.861   3.419  14.959  0.1691 -0.2989  0.0876
17564TIP3    H174107   0.891   3.455  14.876 -0.0774  1.6820  0.8014
17564TIP3    H274108   0.769   3.398  14.944  0.1919 -0.1963 -0.2050
17565TIP3   OH274109   6.648   1.939  13.362 -0.0183 -0.2730 -0.0669
17565TIP3    H174110   6.704   1.862  13.369 -0.7630 -0.7670  0.5297
17565TIP3    H274111   6.622   1.942  13.270  0.0573 -0.6931 -0.1021
17566TIP3   OH274112   4.275   3.767  15.226 -0.1993 -0.0911 -0.4449
17566TIP3    H174113   4.291   3.673  15.228  0.1629 -0.0365 -0.5423
17566TIP3    H274114   4.357   3.806  15.257  0.1078  0.2254 -1.5913
17567TIP3   OH274115   2.468   2.037  14.169 -0.0082  0.1487  0.2557
17567TIP3    H174116   2.509   2.021  14.254 -1.9395  0.8588  1.3761
17567TIP3    H274117   2.542   2.055  14.110  1.5913 -2.9210  1.1152
17568TIP3   OH274118   1.749   3.451  15.404 -0.1582 -0.0191  0.0714
17568TIP3    H174119   1.812   3.404  15.349 -0.4531  0.1888 -0.4448
17568TIP3    H274120   1.701   3.381  15.449  0.4535 -0.1788  0.4920
17569TIP3   OH274121   0.493   3.255  16.096 -0.1376 -0.0793 -0.1400
17569TIP3    H174122   0.525   3.170  16.126 -1.7287 -0.7184 -0.1850
17569TIP3    H274123   0.548   3.319  16.142  0.9590 -1.1178  0.0246
17570TIP3   OH274124   0.819   2.041  11.257  0.0287  0.3572 -0.1094
17570TIP3    H174125   0.846   2.124  11.218 -0.6525  0.1525 -1.0312
17570TIP3    H274126   0.898   1.987  11.255  0.0763  0.4518 -0.9373
17571TIP3   OH274127   4.551   3.487  14.759  0.4463  0.5507  0.5353
17571TIP3    H174128   4.600   3.405  14.753  1.5359  0.7976  4.0183
17571TIP3    H274129   4.524   3.506  14.669  0.6959 -3.2520 -0.4819
17572TIP3   OH274130   1.683   5.465   0.413 -0.3808  0.2720  1.1380
17572TIP3    H174131   1.618   5.445   0.481 -0.7609  1.3574  1.1192
17572TIP3    H274132   1.632   5.473   0.333  0.1969 -2.1324  0.4465
17573TIP3   OH274133   6.190   3.478   1.122 -0.4394 -0.0934 -0.1965
17573TIP3    H174134   6.256   3.529   1.074 -0.2347  0.7372  0.9220
17573TIP3    H274135   6.195   3.511   1.211 -0.4020 -1.9962  0.5481
17574TIP3   OH274136   6.200   0.757  15.859 -0.6036  0.2888  0.8377
17574TIP3    H174137   6.178   0.666  15.838  0.9315 -0.2575  1.4914
17574TIP3    H274138   6.295   0.757  15.869 -0.4193  2.2852 -0.5637
17575TIP3   OH274139   1.854   2.485   4.317 -0.6698  0.1546  0.8248
17575TIP3    H174140   1.764   2.487   4.282 -0.5903  0.3661  0.6272
17575TIP3    H274141   1.902   2.547   4.262  0.1540 -1.6806 -0.6224
17576TIP3   OH274142   1.849   0.608   2.585  0.1106 -0.0275 -0.0859
17576TIP3    H174143   1.914   0.595   2.516 -1.2250  0.3884 -1.4510
17576TIP3    H274144   1.889   0.673   2.643  1.9179 -1.5300  0.4616
17577TIP3   OH274145   1.917   0.629  12.789  0.3254 -0.2426 -0.3849
17577TIP3    H174146   1.914   0.601  12.881  0.7916  0.0148 -0.2870
17577TIP3    H274147   1.952   0.718  12.793  0.2376 -0.1892 -0.8051
17578TIP3   OH274148   6.497   2.207   4.357 -0.2165  0.3488  0.0280
17578TIP3    H174149   6.588   2.179   4.370 -0.2197  0.8512  1.2697
17578TIP3    H274150   6.460   2.140   4.300  0.8071 -0.1247 -0.1115
17579TIP3   OH274151   3.101   4.711  14.125  0.2325 -1.0360 -0.1396
17579TIP3    H174152   3.035   4.711  14.195  0.1595 -1.4575 -0.2099
17579TIP3    H274153   3.050   4.718  14.044  0.3801  1.3277 -0.1016
17580TIP3   OH274154   4.694   6.456  14.925 -0.4313 -0.2093 -0.3578
17580TIP3    H174155   4.658   6.544  14.919  0.3406  0.1760  0.4081
17580TIP3    H274156   4.619   6.401  14.950 -0.4661  0.6347  1.5922
17581TIP3   OH274157   1.915   5.087  16.160  0.2135 -0.2454 -0.2177
17581TIP3    H174158   1.955   5.011  16.202  2.2908  0.0034 -1.6117
17581TIP3    H274159   1.909   5.063  16.067  1.8673  1.6122 -0.8737
17582TIP3   OH274160   2.307   2.881   1.764  0.3278 -0.0052 -0.0173
17582TIP3    H174161   2.343   2.875   1.852  0.4675 -0.1118 -0.0823
17582TIP3    H274162   2.358   2.949   1.721  1.8735 -1.5854 -0.7908
17583TIP3   OH274163   6.168   2.203  13.453  0.0758  0.6037  0.5017
17583TIP3    H174164   6.161   2.107  13.451 -3.9911  0.7507 -0.3591
17583TIP3    H274165   6.245   2.220  13.506 -0.2672 -3.1678  2.5431
17584TIP3   OH274166   0.902   6.766  17.029  0.8392 -0.0178  0.2209
17584TIP3    H174167   0.831   6.830  17.029  0.4711 -0.4125 -0.7365
17584TIP3    H274168   0.910   6.738  16.938  2.0963 -0.1299  0.3423
17585TIP3   OH274169   3.311   6.351   3.026  0.4690  0.0638  0.1212
17585TIP3    H174170   3.227   6.346   3.072  1.5106 -0.4159  2.0895
17585TIP3    H274171   3.319   6.443   3.001 -0.5536  0.1475  0.0471
17586TIP3   OH274172   4.072   0.148  13.989 -0.6443  0.2925  0.2744
17586TIP3    H174173   4.115   0.228  13.960 -1.4445  0.0050 -1.8439
17586TIP3    H274174   3.981   0.174  14.006 -0.6539  0.0463  0.6126
17587TIP3   OH274175   6.208   5.682  12.719 -0.5865 -1.3178 -0.5241
17587TIP3    H174176   6.180   5.733  12.642 -2.3359  1.8550  1.9670
17587TIP3    H274177   6.289   5.724  12.748 -1.0955 -1.0489  0.5571
17588TIP3   OH274178   3.524   4.924  13.769 -0.0101  0.0778 -0.1808
17588TIP3    H174179   3.578   4.969  13.834  0.2831 -1.1826  0.4735
17588TIP3    H274180   3.581   4.915  13.693 -0.3696  1.6003 -0.6818
17589TIP3   OH274181   6.033   4.276  12.138 -0.8202  0.2042 -0.0515
17589TIP3    H174182   6.036   4.214  12.211  1.9956  0.8484  0.4760
17589TIP3    H274183   5.991   4.354  12.174  0.9982  0.7002  1.0939
17590TIP3   OH274184   4.795   5.485   0.746 -0.1002  0.4885  0.5452
17590TIP3    H174185   4.882   5.455   0.720  0.2905  0.1608  2.0953
17590TIP3    H274186   4.761   5.531   0.670  0.4584 -1.4132 -0.9213
17591TIP3   OH274187   3.412   0.904   0.469  0.7341  0.0394 -0.2816
17591TIP3    H174188   3.356   0.982   0.476  0.9672  0.1228  0.8221
17591TIP3    H274189   3.466   0.907   0.548  1.2681 -0.8402 -0.6117
17592TIP3   OH274190   1.404   6.696   3.127  1.1484  0.3889 -0.3008
17592TIP3    H174191   1.461   6.684   3.051  0.5486  2.6286 -1.1780
17592TIP3    H274192   1.414   6.788   3.151 -0.1310  0.1961  1.1451
17593TIP3   OH274193   5.060   5.105   5.125 -0.0062  0.2367  0.0663
17593TIP3    H174194   5.036   5.099   5.218  1.4512 -2.3559  0.3628
17593TIP3    H274195   5.006   5.039   5.082  0.1391  0.6358 -0.7484
17594TIP3   OH274196   3.291   1.610  10.714  0.1707  0.0832  0.3242
17594TIP3    H174197   3.280   1.669  10.640 -0.9615  0.6250  0.8942
17594TIP3    H274198   3.236   1.534  10.693  1.5224 -0.7356 -0.3489
17595TIP3   OH274199   3.780   4.587  15.374 -0.2861 -0.0005  0.1149
17595TIP3    H174200   3.849   4.585  15.308  0.0164  0.1069  0.4245
17595TIP3    H274201   3.827   4.593  15.457 -0.6976  2.3174  0.2347
17596TIP3   OH274202   0.467   4.044  17.098 -0.1777  0.1182 -0.6308
17596TIP3    H174203   0.454   4.138  17.083  1.7638  0.5481  0.1480
17596TIP3    H274204   0.432   4.029  17.186  0.3269  0.3201 -0.3893
17597TIP3   OH274205   1.382   6.167  11.461  0.3844  0.1134 -0.3063
17597TIP3    H174206   1.323   6.218  11.516  0.2762 -0.1800 -0.1448
17597TIP3    H274207   1.323   6.112  11.408  0.4485  1.0900 -1.4158
17598TIP3   OH274208   6.656   0.786   1.098  0.0931 -0.4989  0.3286
17598TIP3    H174209   6.631   0.746   1.015 -0.0955  1.0083 -0.3747
17598TIP3    H274210   6.746   0.759   1.112 -0.7831 -3.3009  1.2368
17599TIP3   OH274211   1.250   0.162   2.924 -0.1041  0.0731 -0.5407
17599TIP3    H174212   1.309   0.173   2.850  0.5854  2.6862  0.2932
17599TIP3    H274213   1.303   0.183   3.001 -0.7779 -2.5836  0.7804
17600TIP3   OH274214   2.631   3.672  12.465  0.6218  0.4407  0.2613
17600TIP3    H174215   2.675   3.653  12.383 -1.4998 -1.7251 -0.4872
17600TIP3    H274216   2.640   3.767  12.475 -0.2488  1.0411 -3.2361
17601TIP3   OH274217   0.153   2.132  13.068  0.2631  1.1172 -0.2941
17601TIP3    H174218   0.072   2.114  13.020 -0.6445  1.3417  1.0767
17601TIP3    H274219   0.216   2.068  13.034 -0.8745  0.0345 -0.4513
17602TIP3   OH274220   2.040   0.877   4.247  0.2747 -0.1283 -0.1144
17602TIP3    H174221   2.036   0.820   4.171 -1.5082 -0.9212  0.5249
17602TIP3    H274222   2.098   0.831   4.308 -1.5673 -1.6409  0.6142
17603TIP3   OH274223   2.288   5.947   1.573 -0.2042  0.5566  0.3216
17603TIP3    H174224   2.241   5.870   1.605  1.4848  0.0863  1.8229
17603TIP3    H274225   2.380   5.922   1.576  0.3210  2.2688 -0.2476
17604TIP3   OH274226   0.961   1.647  16.248  0.3196 -0.1561  0.5829
17604TIP3    H174227   0.866   1.643  16.264 -0.0043 -0.2371 -1.1441
17604TIP3    H274228   0.975   1.735  16.213  0.5299 -0.7995 -1.0315
17605TIP3   OH274229   3.886   3.499  11.286 -0.3287  0.4294 -0.1591
17605TIP3    H174230   3.891   3.508  11.382 -0.5095  1.3834 -0.2333
17605TIP3    H274231   3.840   3.577  11.257  1.7324  1.2977 -1.2455
17606TIP3   OH274232   5.564   1.025  15.795 -0.4096 -0.3776  0.3233
17606TIP3    H174233   5.491   1.008  15.735  0.0914 -0.2359 -0.3481
17606TIP3    H274234   5.600   1.108  15.764  2.5711 -2.3136 -2.0434
17607TIP3   OH274235   0.263   4.417  16.414  0.0510  0.5805  0.1844
17607TIP3    H174236   0.253   4.351  16.346  0.4277 -0.3891  1.0431
17607TIP3    H274237   0.348   4.456  16.397 -0.2403  0.9771 -0.4194
17608TIP3   OH274238   5.981   3.549  16.628 -0.0816  0.0868  0.0186
17608TIP3    H174239   6.027   3.576  16.549  0.0248  2.9621  0.9330
17608TIP3    H274240   6.050   3.522  16.689  0.0896  0.6954  0.0991
17609TIP3   OH274241   4.478   0.977   1.708  0.0624 -0.1302 -0.2371
17609TIP3    H174242   4.480   1.016   1.620  0.3797 -1.1687 -0.7014
17609TIP3    H274243   4.554   0.920   1.711 -0.4300 -0.7740  0.4129
17610TIP3   OH274244   4.836   4.901  13.086 -0.1255  0.0827  0.1737
17610TIP3    H174245   4.830   4.805  13.081  0.0766 -0.0290  1.6143
17610TIP3    H274246   4.845   4.919  13.179 -1.5882  1.6004  0.0714
17611TIP3   OH274247   1.299   3.334   5.150  0.3308  0.1303 -0.1612
17611TIP3    H174248   1.362   3.274   5.110  0.7734 -0.2689  1.0839
17611TIP3    H274249   1.234   3.277   5.190 -0.2400  0.5287 -0.5019
17612TIP3   OH274250   2.858   0.756   3.620  0.2954  0.0896 -0.2830
17612TIP3    H174251   2.877   0.684   3.680  2.8469  1.1108  0.2937
17612TIP3    H274252   2.810   0.820   3.672 -0.2942 -0.3624 -0.2625
17613TIP3   OH274253   0.858   2.122   1.039  0.3049 -0.3363  0.1965
17613TIP3    H174254   0.886   2.210   1.014  1.4500 -0.8442 -0.3778
17613TIP3    H274255   0.763   2.130   1.052  0.1370  0.6609 -1.3258
17614TIP3   OH274256   4.508   5.434   4.745 -0.2706  0.6350  0.1624
17614TIP3    H174257   4.503   5.517   4.697  1.9294  0.6459 -0.1476
17614TIP3    H274258   4.553   5.457   4.826  2.8967 -0.6289 -1.0899
17615TIP3   OH274259   2.511   5.284  11.485  0.5266 -0.0115  0.2817
17615TIP3    H174260   2.470   5.238  11.558 -1.7789  1.8080  0.2575
17615TIP3    H274261   2.455   5.262  11.410  0.9554  0.7111 -0.2569
17616TIP3   OH274262   1.708   0.833   4.532  0.1530  0.0871 -0.2371
17616TIP3    H174263   1.737   0.857   4.620 -1.9916  0.9387  0.3078
17616TIP3    H274264   1.645   0.901   4.509  0.2808 -0.4188 -2.2354
17617TIP3   OH274265   3.428   6.570   4.261  0.4594 -0.0487  0.6495
17617TIP3    H174266   3.385   6.605   4.184 -1.0961 -1.6709  0.7112
17617TIP3    H274267   3.408   6.633   4.331 -0.9564 -0.2177  0.4307
17618TIP3   OH274268   5.344   3.967   1.631  0.1890  0.0527 -0.3729
17618TIP3    H174269   5.350   4.062   1.616  0.9225 -0.0807 -0.9500
17618TIP3    H274270   5.261   3.956   1.678 -0.1825  0.9203 -0.8013
17619TIP3   OH274271   0.869   5.517  16.686  0.2218 -0.7452  0.2386
17619TIP3    H174272   0.875   5.560  16.771  0.7182 -0.8639  0.2661
17619TIP3    H274273   0.784   5.545  16.651 -0.6077 -1.7651  1.3498
17620TIP3   OH274274   2.901   5.383  15.029  0.1230 -0.6259 -0.2863
17620TIP3    H174275   2.814   5.352  15.054 -0.3033 -1.6129 -2.6799
17620TIP3    H274276   2.929   5.321  14.961  2.1408  0.4324 -0.4723
17621TIP3   OH274277   4.268   3.290   5.177  0.2230  0.0114 -0.4447
17621TIP3    H174278   4.183   3.246   5.172 -0.0044  0.4595 -0.6538
17621TIP3    H274279   4.275   3.317   5.268  0.7673 -1.2230 -0.1077
17622TIP3   OH274280   2.062   4.903  16.279  0.4370 -0.2566 -0.0558
17622TIP3    H174281   2.126   4.973  16.262  2.9451 -2.1594  0.9207
17622TIP3    H274282   2.065   4.890  16.374 -0.3842 -1.3338 -0.1615
17623TIP3   OH274283   6.385   1.282   4.220 -0.1354  0.7295 -0.2146
17623TIP3    H174284   6.398   1.300   4.127 -1.0637  0.1876 -0.4621
17623TIP3    H274285   6.340   1.359   4.254 -1.7825  0.0371 -0.7148
17624TIP3   OH274286   4.216   3.969  12.024 -0.5822 -0.4768  0.2589
17624TIP3    H174287   4.292   4.017  11.990 -0.8072 -0.5388 -0.3482
17624TIP3    H274288   4.221   3.884  11.980 -2.2741  0.3037 -1.5774
17625TIP3   OH274289   2.663   1.186   2.027  0.2696  0.3855  0.2942
17625TIP3    H174290   2.638   1.104   1.985 -1.2919 -0.6941  3.1006
17625TIP3    H274291   2.698   1.160   2.113  3.3224  2.4569 -0.1330
17626TIP3   OH274292   3.033   2.427   6.023  0.0625  0.0605 -0.0914
17626TIP3    H174293   2.946   2.420   5.983 -0.0731  0.9599  0.0096
17626TIP3    H274294   3.070   2.340   6.016  0.1366  0.2109 -2.3927
17627TIP3   OH274295   3.435   3.441   0.598 -0.4844  0.1569  0.3597
17627TIP3    H174296   3.410   3.388   0.522 -1.7182  0.3797  0.5900
17627TIP3    H274297   3.530   3.431   0.604 -0.4127 -0.1519 -0.9927
17628TIP3   OH274298   6.462   1.200  12.005 -0.4738 -0.0825 -0.1325
17628TIP3    H174299   6.432   1.222  12.093  1.9135  0.3307  0.6510
17628TIP3    H274300   6.507   1.116  12.016 -2.1319 -1.2126 -1.4560
17629TIP3   OH274301   2.006   1.557  12.068  0.5879 -0.3809  0.0019
17629TIP3    H174302   1.924   1.559  12.116  0.9406  0.7991  0.5911
17629TIP3    H274303   2.073   1.547  12.135  1.1103  1.6363 -0.1624
17630TIP3   OH274304   3.341   4.134   2.195  0.2585  0.4540  0.4046
17630TIP3    H174305   3.383   4.186   2.126 -0.1584 -0.3715 -0.5083
17630TIP3    H274306   3.252   4.170   2.200  0.2786  0.4922  0.4799
17631TIP3   OH274307   3.257   0.078   4.802 -0.3979  0.1799 -0.1295
17631TIP3    H174308   3.220   0.010   4.746  1.2417  1.5269 -3.1262
17631TIP3    H274309   3.339   0.041   4.834  0.7038  0.7412 -2.0979
17632TIP3   OH274310   6.324   5.930  16.901  0.0057 -0.5742  0.4149
17632TIP3    H174311   6.355   5.993  16.966  0.7613  0.2867 -0.7475
17632TIP3    H274312   6.237   5.905  16.932 -0.1710  0.7877  1.0808
17633TIP3   OH274313   4.522   3.026  16.286 -0.5641 -0.3816 -0.0242
17633TIP3    H174314   4.557   3.097  16.341 -0.1171 -0.4121 -0.2637
17633TIP3    H274315   4.511   2.953  16.347 -0.1429 -0.3914  0.0461
17634TIP3   OH274316   5.341   2.763  16.658  0.4648 -0.6140 -0.2241
17634TIP3    H174317   5.249   2.737  16.654 -0.6568  2.4996  1.4295
17634TIP3    H274318   5.377   2.714  16.731 -0.6202 -0.0700  0.7064
17635TIP3   OH274319   1.053   0.939   2.375  0.3455 -0.1462  0.4282
17635TIP3    H174320   0.962   0.969   2.382 -0.1169 -1.7833  2.5737
17635TIP3    H274321   1.090   0.955   2.462  1.4457 -1.5228  0.2373
17636TIP3   OH274322   5.119   2.017   0.889 -0.2540 -0.1949 -0.0151
17636TIP3    H174323   5.062   1.977   0.955  1.6506 -1.4792  0.9256
17636TIP3    H274324   5.138   2.104   0.923  1.1668 -1.0475  1.4731
17637TIP3   OH274325   4.141   1.211  16.341  0.0097  0.2430 -0.8801
17637TIP3    H174326   4.135   1.145  16.411  0.5996 -0.7522 -1.7338
17637TIP3    H274327   4.167   1.161  16.264  1.3386  1.6109 -1.3691
17638TIP3   OH274328   4.731   6.763   4.590 -0.3566  0.2038  0.6115
17638TIP3    H174329   4.712   6.700   4.520 -0.2372  1.3412 -0.5024
17638TIP3    H274330   4.786   6.829   4.547  0.7588  0.2901  2.1227
17639TIP3   OH274331   2.411   3.898  15.303 -0.3138 -0.0717  0.3596
17639TIP3    H174332   2.481   3.834  15.304 -0.0999  0.1625  1.2928
17639TIP3    H274333   2.350   3.869  15.371 -1.2503 -0.3954 -0.5821
17640TIP3   OH274334   0.362   1.183  11.731 -0.8509  0.0371  0.5725
17640TIP3    H174335   0.330   1.139  11.809  0.2157 -1.3034  0.2877
17640TIP3    H274336   0.423   1.121  11.691 -0.2500  1.2781 -0.5333
17641TIP3   OH274337   1.761   6.111   2.858  0.0653 -0.2257  0.0298
17641TIP3    H174338   1.746   6.020   2.884  1.3095  0.0387  1.9003
17641TIP3    H274339   1.802   6.151   2.935 -2.3632  2.4873  0.0723
17642TIP3   OH274340   3.746   1.608   6.099  0.1002  0.2518  0.1278
17642TIP3    H174341   3.704   1.522   6.102 -0.6189  0.6177  2.7446
17642TIP3    H274342   3.682   1.667   6.137  1.1166  1.7306 -0.3813
17643TIP3   OH274343   0.073   4.943  12.546  0.0937 -0.1212  0.7164
17643TIP3    H174344   0.076   4.997  12.467 -0.0479 -1.7460 -0.4369
17643TIP3    H274345  -0.018   4.951  12.577  0.2253  0.7542  0.9159
17644TIP3   OH274346   4.649   3.445  12.576  0.1262  0.1159  0.2575
17644TIP3    H174347   4.665   3.435  12.483  1.6403  0.3688  0.4593
17644TIP3    H274348   4.729   3.413  12.618 -0.8330 -0.7465  1.5144
17645TIP3   OH274349   3.156   4.801  13.756  0.0596  0.1446  0.3475
17645TIP3    H174350   3.208   4.878  13.731  2.5383 -2.0902 -2.1172
17645TIP3    H274351   3.071   4.814  13.713  0.6385  1.2738 -0.5044
17646TIP3   OH274352   0.595   1.188   4.502 -0.1726  0.3649  0.4692
17646TIP3    H174353   0.550   1.154   4.425  0.5710  2.2607 -0.8930
17646TIP3    H274354   0.665   1.125   4.519 -0.1191  0.1038 -0.6509
17647TIP3   OH274355   3.313   0.397  12.209 -0.1814 -0.1043 -0.2832
17647TIP3    H174356   3.407   0.392  12.221  0.0363 -1.9289 -2.1080
17647TIP3    H274357   3.302   0.440  12.124 -0.9012 -1.0458 -0.6893
17648TIP3   OH274358   4.122   3.898  12.790 -0.1300  0.2894  0.2950
17648TIP3    H174359   4.090   3.942  12.869 -0.0367 -1.4865  1.3716
17648TIP3    H274360   4.046   3.853  12.754  0.2202 -0.4505  0.4538
17649TIP3   OH274361   0.081   3.539   1.420 -0.3721 -0.2033 -0.4191
17649TIP3    H174362   0.119   3.580   1.342 -1.9152 -0.0889 -1.1547
17649TIP3    H274363   0.143   3.559   1.490  1.8144 -1.5137 -1.8394
17650TIP3   OH274364   0.362   3.124   5.303  0.0246  0.2540  0.0139
17650TIP3    H174365   0.304   3.166   5.367  1.5331  0.4147  1.3419
17650TIP3    H274366   0.401   3.196   5.254  2.3224  0.5339  2.0388
17651TIP3   OH274367   0.444   3.219   1.694 -0.1479 -0.4235 -0.0319
17651TIP3    H174368   0.359   3.232   1.737 -0.5494 -0.7259 -0.7220
17651TIP3    H274369   0.506   3.268   1.748 -1.1357  1.8544 -0.8542
17652TIP3   OH274370   5.622   5.604  12.466 -0.3632  0.2129  0.8221
17652TIP3    H174371   5.599   5.696  12.458  1.2691  0.6514  0.8293
17652TIP3    H274372   5.669   5.584  12.385 -0.9677 -0.7131  0.6784
17653TIP3   OH274373   6.741   4.984   0.413 -0.0299 -0.1680 -0.4563
17653TIP3    H174374   6.817   5.027   0.453 -1.1488  0.9227  0.6151
17653TIP3    H274375   6.769   4.964   0.324  1.2808  0.8405 -0.3179
17654TIP3   OH274376   1.276   0.657  15.296  0.0161  0.1806 -0.4536
17654TIP3    H174377   1.187   0.626  15.277 -0.0702  0.2593 -0.1877
17654TIP3    H274378   1.332   0.582  15.279 -0.2285 -0.2433  0.5504
17655TIP3   OH274379   3.650   0.915   3.271 -0.4114  0.1849  0.5639
17655TIP3    H174380   3.684   0.981   3.210  0.2733 -0.1020  0.6344
17655TIP3    H274381   3.629   0.964   3.350  1.6792  0.0941  1.2283
17656TIP3   OH274382   5.014   3.231   2.116  0.1739 -0.2123 -0.5335
17656TIP3    H174383   5.040   3.223   2.208  2.8186  0.2024 -1.1780
17656TIP3    H274384   5.010   3.325   2.100 -0.4817 -0.2813 -0.8252
17657TIP3   OH274385   4.614   4.289  13.918  0.1240  0.0200  0.1927
17657TIP3    H174386   4.634   4.284  13.825 -2.2873  0.7719 -0.4560
17657TIP3    H274387   4.641   4.377  13.944  1.1579 -0.3284  0.3092
17658TIP3   OH274388   1.076   4.662   5.636  0.5301 -0.3235  0.2172
17658TIP3    H174389   1.160   4.634   5.672  0.4093  0.5913  1.2815
17658TIP3    H274390   1.056   4.743   5.683 -0.6090 -0.1470 -0.5280
17659TIP3   OH274391   3.274   1.785   0.174 -0.0559  0.5808 -0.0617
17659TIP3    H174392   3.244   1.740   0.253 -0.9356  1.0855 -0.1039
17659TIP3    H274393   3.209   1.763   0.108  0.6662  0.1805 -0.6493
17660TIP3   OH274394   6.258   2.372  12.238  0.0695 -0.6281  0.5408
17660TIP3    H174395   6.245   2.336  12.326 -0.7929 -0.9716  0.2934
17660TIP3    H274396   6.177   2.350  12.192  0.1144  0.4032 -0.0536
17661TIP3   OH274397   2.798   0.565  10.815  0.0223 -0.7013  0.2738
17661TIP3    H174398   2.809   0.617  10.735 -1.0468 -0.3375  0.3447
17661TIP3    H274399   2.851   0.487  10.800  0.5979 -0.2057 -0.3916
17662TIP3   OH274400   5.517   0.707   4.847 -0.0233 -0.1798 -0.1633
17662TIP3    H174401   5.569   0.629   4.867  0.9374  0.5010  0.0676
17662TIP3    H274402   5.580   0.770   4.814 -0.6077  0.8898  0.7076
17663TIP3   OH274403   6.709   3.527  16.670  0.2445 -0.1202  0.2124
17663TIP3    H174404   6.802   3.547  16.670  0.2096  0.6575  3.5153
17663TIP3    H274405   6.666   3.611  16.651  0.2337  0.0087  0.7752
17664TIP3   OH274406   4.109   5.716  11.901  0.1984 -0.2995  0.3070
17664TIP3    H174407   4.032   5.664  11.879 -0.0292  0.5102 -0.9045
17664TIP3    H274408   4.176   5.689  11.838 -0.3963  1.9085 -1.4062
17665TIP3   OH274409   1.573   4.648  11.906  0.3056  0.4863 -0.2092
17665TIP3    H174410   1.653   4.658  11.854 -1.1630  2.4498 -2.3276
17665TIP3    H274411   1.516   4.595  11.851 -0.3664  0.3287  0.6251
17666TIP3   OH274412   3.818   6.530   3.455  0.4458 -0.3180 -0.0154
17666TIP3    H174413   3.767   6.568   3.527  0.1441  0.4255 -0.5981
17666TIP3    H274414   3.752   6.498   3.394  0.6383  1.1211 -1.0250
17667TIP3   OH274415   1.815   1.633   5.214  0.6215  0.0092  0.1457
17667TIP3    H174416   1.807   1.699   5.283 -2.1115 -0.1950  0.1441
17667TIP3    H274417   1.759   1.561   5.244 -0.6747 -0.0697 -2.2618
17668TIP3   OH274418   1.853   4.721   0.235 -0.3333 -0.3580  0.0686
17668TIP3    H174419   1.836   4.653   0.300  1.5382 -0.6635  0.3027
17668TIP3    H274420   1.785   4.787   0.251 -1.1114 -1.3432  1.0060
17669TIP3   OH274421   1.167   2.092  11.811  0.0879  0.7758  0.2585
17669TIP3    H174422   1.211   2.010  11.785  0.1769  1.4772 -1.9513
17669TIP3    H274423   1.231   2.160  11.792 -0.0698  1.4412  1.8950
17670TIP3   OH274424   2.501   4.966  12.444 -0.6266 -0.0297  0.1941
17670TIP3    H174425   2.445   5.042  12.461  0.6909  0.6789  1.7096
17670TIP3    H274426   2.530   4.977  12.354 -0.7232  1.1264  0.2894
17671TIP3   OH274427   6.126   6.526  17.112  0.5347  0.1089 -0.6493
17671TIP3    H174428   6.076   6.472  17.174  1.9230  0.2700  0.6633
17671TIP3    H274429   6.093   6.500  17.026 -0.8747 -0.7171  0.0921
17672TIP3   OH274430   4.922   6.746   1.105 -0.1239  0.0888  0.1930
17672TIP3    H174431   4.973   6.729   1.026 -0.3788  0.1082  0.0222
17672TIP3    H274432   4.883   6.662   1.128 -1.2953  0.3948 -0.5893
17673TIP3   OH274433   6.098   4.198  13.109  0.0081 -0.0948  0.4255
17673TIP3    H174434   6.007   4.226  13.102  0.2884  0.4351 -2.3302
17673TIP3    H274435   6.097   4.105  13.087  0.1176 -0.0870  0.3826
17674TIP3   OH274436   0.988   1.272  16.056 -0.2049  0.0343  0.4435
17674TIP3    H174437   0.951   1.356  16.030 -2.2207 -0.1982  2.2390
17674TIP3    H274438   1.060   1.295  16.115 -0.5722  0.5192  0.7121
17675TIP3   OH274439   2.581   1.833  16.546 -0.4795 -0.3678 -0.5129
17675TIP3    H174440   2.590   1.912  16.492  0.5621 -0.7393 -0.9124
17675TIP3    H274441   2.522   1.777  16.496  1.3943 -1.2032 -1.9259
17676TIP3   OH274442   3.873   1.204  16.112  0.1292  0.1058  0.5229
17676TIP3    H174443   3.917   1.223  16.029  2.4419 -0.1890  1.6047
17676TIP3    H274444   3.832   1.287  16.137  1.0643  0.7319  0.0180
17677TIP3   OH274445   2.412   3.335   3.081  0.4019  0.4169 -0.5374
17677TIP3    H174446   2.333   3.283   3.091  0.0533  1.0226 -0.1346
17677TIP3    H274447   2.421   3.347   2.986  2.5308 -3.5013 -1.0443
17678TIP3   OH274448   1.578   4.544  14.643  0.1558  0.8120  0.0292
17678TIP3    H174449   1.652   4.484  14.647 -0.1628  0.3873 -0.3775
17678TIP3    H274450   1.505   4.494  14.678  0.1124  1.3192  0.6768
17679TIP3   OH274451   0.728   3.237   3.445 -0.2653 -0.0134  0.6629
17679TIP3    H174452   0.816   3.197   3.439 -0.6699 -1.3340  2.6337
17679TIP3    H274453   0.668   3.164   3.427 -1.0616  1.2530 -2.5870
17680TIP3   OH274454   3.755   5.268   4.927  0.2410  0.1112 -0.8948
17680TIP3    H174455   3.720   5.306   4.847 -1.4436 -1.3399 -0.9075
17680TIP3    H274456   3.721   5.323   4.997 -0.5792 -0.2074 -1.0308
17681TIP3   OH274457   0.718   5.886  11.780  0.5064  0.1811  0.1046
17681TIP3    H174458   0.677   5.963  11.739 -0.5098  0.7435  2.0469
17681TIP3    H274459   0.713   5.818  11.714 -2.9179  0.4690 -0.0833
17682TIP3   OH274460   3.255   3.369   3.142 -0.0978  0.1507 -0.1549
17682TIP3    H174461   3.162   3.351   3.131  0.1806 -0.3368 -2.2421
17682TIP3    H274462   3.289   3.293   3.188 -0.2361 -1.2548 -2.2371
17683TIP3   OH274463   3.473   3.145  10.636 -0.1951 -0.2069  0.4185
17683TIP3    H174464   3.488   3.069  10.692 -0.4848  0.2318  1.1045
17683TIP3    H274465   3.507   3.219  10.687  3.6802 -0.1998 -1.7229
17684TIP3   OH274466   0.773   5.632  14.645  0.5324 -0.6191  0.2707
17684TIP3    H174467   0.864   5.604  14.631  0.5101 -0.0308 -1.3003
17684TIP3    H274468   0.770   5.721  14.608 -0.6773 -0.6316  0.3017
17685TIP3   OH274469   5.536   5.245   0.566  0.0246 -0.2561 -0.3696
17685TIP3    H174470   5.541   5.180   0.496 -0.7200  0.7460 -1.3980
17685TIP3    H274471   5.457   5.296   0.546  0.3877  0.7348  0.5978
17686TIP3   OH274472   0.788   0.997  16.438 -0.2017 -0.9908 -0.5599
17686TIP3    H174473   0.852   0.996  16.510 -0.6117 -1.2224 -0.1998
17686TIP3    H274474   0.788   0.908  16.405 -0.3370 -0.9872 -0.5666
17687TIP3   OH274475   3.779   1.131  16.620 -0.2455 -0.1342 -0.6252
17687TIP3    H174476   3.863   1.105  16.659  0.3807 -0.0625 -1.9025
17687TIP3    H274477   3.746   1.198  16.680 -0.2339 -1.3520  0.8302
17688TIP3   OH274478   0.999   0.798  12.294  0.3619 -0.4430  0.0656
17688TIP3    H174479   1.081   0.824  12.335  0.7047  0.8235 -1.3468
17688TIP3    H274480   1.021   0.721  12.242 -0.2480 -2.6003  2.7282
17689TIP3   OH274481   5.385   2.335  13.968 -0.2528 -0.0118 -0.2172
17689TIP3    H174482   5.439   2.287  14.031 -2.1912 -0.2303  1.3674
17689TIP3    H274483   5.361   2.270  13.902 -1.0248 -0.6775  0.7069
17690TIP3   OH274484   3.154   6.312  15.460  0.0599  0.5116 -0.6568
17690TIP3    H174485   3.159   6.226  15.503  0.3786 -0.0068 -1.6853
17690TIP3    H274486   3.235   6.356  15.485  0.0355  0.3971 -0.3715
17691TIP3   OH274487   4.926   5.433  16.046  0.3012  0.2659  0.5888
17691TIP3    H174488   5.005   5.457  15.998  0.9213 -1.3661  0.7664
17691TIP3    H274489   4.896   5.352  16.005 -2.1949  1.6115 -0.5003
17692TIP3   OH274490   2.582   3.829   2.573 -0.1179 -0.0448  0.2297
17692TIP3    H174491   2.581   3.796   2.663  0.3056  1.1073  0.6682
17692TIP3    H274492   2.636   3.766   2.525 -0.2488 -0.6013  0.7922
17693TIP3   OH274493   4.998   5.035   1.319  0.3662  0.2965 -0.1898
17693TIP3    H174494   4.927   4.973   1.338  0.8158 -0.0317  0.4544
17693TIP3    H274495   5.009   5.030   1.224 -0.5113  0.3981 -0.3037
17694TIP3   OH274496   4.215   3.548   4.913  0.0785 -0.0678 -0.3616
17694TIP3    H174497   4.179   3.464   4.886 -1.0675  0.0284  0.7423
17694TIP3    H274498   4.283   3.567   4.849 -0.6939 -1.0875 -1.5313
17695TIP3   OH274499   6.697   6.399   4.865  0.2226  0.5170 -0.3324
17695TIP3    H174500   6.609   6.398   4.903  0.5594  0.5958  0.4695
17695TIP3    H274501   6.689   6.347   4.785  0.0488 -1.8863  1.1479
17696TIP3   OH274502   4.796   2.579  16.234  0.0764  0.3654 -0.4641
17696TIP3    H174503   4.707   2.570  16.201 -0.5171  0.5575  1.0382
17696TIP3    H274504   4.805   2.512  16.301  0.8985  0.6801 -0.2361
17697TIP3   OH274505   4.301   3.209  17.101 -0.4956 -0.6190 -0.4076
17697TIP3    H174506   4.208   3.214  17.124 -0.6056  3.2740 -0.9685
17697TIP3    H274507   4.304   3.146  17.030 -2.4485 -1.9200  0.5738
17698TIP3   OH274508   0.283   1.833   5.218 -0.2120 -0.5198 -0.5490
17698TIP3    H174509   0.211   1.840   5.154 -0.2101  0.5676 -0.4632
17698TIP3    H274510   0.354   1.883   5.178  0.7298 -2.0981 -0.9114
17699TIP3   OH274511   2.900   6.062   3.151 -0.0148  0.3593  0.0871
17699TIP3    H174512   2.839   6.067   3.225 -1.0479 -0.2657 -0.6832
17699TIP3    H274513   2.950   6.143   3.155 -0.2008  0.4303  1.3353
17700TIP3   OH274514   5.552   0.858  11.344 -0.9209 -0.4179 -0.2312
17700TIP3    H174515   5.465   0.888  11.318 -1.4066 -0.2039  1.4932
17700TIP3    H274516   5.573   0.910  11.422  0.3346 -1.1583 -0.0444
17701TIP3   OH274517   0.029   3.958  15.070  0.4402 -0.0691  0.6628
17701TIP3    H174518   0.020   4.049  15.098 -0.1787  0.4696 -1.1525
17701TIP3    H274519   0.119   3.951  15.039  0.3298  0.0594  0.3187
17702TIP3   OH274520   1.417   5.634  11.594  0.0575 -0.1394 -0.2905
17702TIP3    H174521   1.489   5.674  11.545 -0.1012 -0.2628 -0.6323
17702TIP3    H274522   1.340   5.683  11.566  0.2324  1.2356  1.4638
17703TIP3   OH274523   2.664   2.753  11.750 -0.2097  0.4853 -0.0543
17703TIP3    H174524   2.691   2.754  11.658 -0.5214 -3.1018 -0.3269
17703TIP3    H274525   2.571   2.773  11.749 -0.0252  1.3326 -0.4109
17704TIP3   OH274526   1.917   2.939  13.755  0.7800  0.6213  0.1168
17704TIP3    H174527   1.965   2.871  13.708  0.5130  0.7464 -0.3419
17704TIP3    H274528   1.825   2.913  13.748  0.7763  0.3104  1.1041
17705TIP3   OH274529   5.124   1.704   6.429  0.2141 -0.3002 -0.1521
17705TIP3    H174530   5.060   1.763   6.469 -1.7924 -1.5044 -1.4490
17705TIP3    H274531   5.147   1.642   6.498  0.8914  0.8169  0.6549
17706TIP3   OH274532   6.063   2.935  12.036  0.0757  0.1908  0.0760
17706TIP3    H174533   6.155   2.957  12.025  0.3526 -1.1975 -0.5401
17706TIP3    H274534   6.023   3.016  12.068  1.4160  0.9381 -0.0677
17707TIP3   OH274535   1.212   5.193   4.418 -0.6705  0.1164  0.5459
17707TIP3    H174536   1.185   5.102   4.433 -0.1471  0.0573  1.1346
17707TIP3    H274537   1.208   5.203   4.323  1.3576 -1.1770  0.2700
17708TIP3   OH274538   5.481   0.304  17.123 -0.3017  0.3275  0.6727
17708TIP3    H174539   5.529   0.222  17.119  0.1211  0.5270  1.5282
17708TIP3    H274540   5.473   0.332  17.031 -2.0344 -1.5574  0.1710
17709TIP3   OH274541   1.441   4.583  10.874 -0.1174  0.3947 -0.4769
17709TIP3    H174542   1.536   4.583  10.883 -0.1707 -0.4609  0.1610
17709TIP3    H274543   1.425   4.627  10.790  0.8801 -0.0317 -0.9088
17710TIP3   OH274544   3.952   3.554  11.573  0.3354  0.0282 -0.2178
17710TIP3    H174545   3.965   3.462  11.552 -1.6446 -0.3433  0.0075
17710TIP3    H274546   4.030   3.579  11.622  0.6402 -1.6823  0.2323
17711TIP3   OH274547   2.965   6.030   4.963  0.0169 -0.6481  0.2948
17711TIP3    H174548   2.992   5.939   4.966  1.6399 -0.3863 -2.7094
17711TIP3    H274549   2.870   6.027   4.952  0.1326 -2.0328 -0.5596
17712TIP3   OH274550   0.808   4.254   1.157  0.9027  0.2980  0.7029
17712TIP3    H174551   0.824   4.301   1.075  1.5683 -1.0929 -0.0141
17712TIP3    H274552   0.720   4.282   1.184  0.1395 -0.1262 -1.1700
17713TIP3   OH274553   0.257   4.183   5.386 -0.4083  0.4910 -0.6516
17713TIP3    H174554   0.242   4.278   5.386 -0.1830  0.5321 -0.1903
17713TIP3    H274555   0.245   4.156   5.295  0.6396  1.1433 -1.0019
17714TIP3   OH274556   2.208   4.195   4.432  0.2075 -0.1548  0.6792
17714TIP3    H174557   2.202   4.123   4.369  0.2515 -1.2920  1.9084
17714TIP3    H274558   2.180   4.272   4.384  0.3911 -0.9453 -0.7643
17715TIP3   OH274559   3.200   4.440   0.925  0.8879  0.2102 -0.2948
17715TIP3    H174560   3.137   4.449   0.995  0.1720  0.6008 -0.9776
17715TIP3    H274561   3.158   4.382   0.861  1.3197  0.2644 -0.6389
17716TIP3   OH274562   1.013   0.306  15.621  0.2884 -0.3181 -0.0469
17716TIP3    H174563   0.934   0.261  15.653  0.0266  0.3387  0.2338
17716TIP3    H274564   1.018   0.281  15.528 -0.9470  0.6153 -0.3892
17717TIP3   OH274565   6.235   1.199  13.682  0.2233 -0.6102  0.2399
17717TIP3    H174566   6.217   1.174  13.591  2.0330 -1.4652  0.0777
17717TIP3    H274567   6.198   1.128  13.734  0.0877 -0.6313  0.1164
17718TIP3   OH274568   6.616   4.086   2.814 -0.6283 -0.4206 -0.0464
17718TIP3    H174569   6.649   4.097   2.903 -1.0691 -2.2314  0.3795
17718TIP3    H274570   6.680   4.028   2.772 -0.8342 -0.2008 -0.6710
17719TIP3   OH274571   3.340   6.713  17.063 -0.2552  0.5489  0.2707
17719TIP3    H174572   3.383   6.635  17.028 -0.0852  0.4468  0.7020
17719TIP3    H274573   3.262   6.679  17.107  0.1424  0.5495  0.9980
17720TIP3   OH274574   2.098   4.030  17.113  0.2041  0.4978 -0.0550
17720TIP3    H174575   2.045   4.053  17.037  1.8855  1.8302 -0.9171
17720TIP3    H274576   2.058   3.951  17.148 -1.2411  0.4443 -1.6986
17721TIP3   OH274577   1.125   0.517  12.182 -0.1774 -0.1302  0.1635
17721TIP3    H174578   1.202   0.476  12.221 -1.3746 -1.9259  0.7537
17721TIP3    H274579   1.151   0.536  12.092  1.3098  0.3563  0.6602
17722TIP3   OH274580   0.342   6.656  11.718  0.1030 -0.1292  0.0226
17722TIP3    H174581   0.412   6.662  11.653 -2.4357 -1.3834 -3.0961
17722TIP3    H274582   0.347   6.565  11.749 -1.6479 -1.0810 -2.2379
17723TIP3   OH274583   0.188   1.526   5.639  0.0644 -0.0896 -0.2454
17723TIP3    H174584   0.138   1.580   5.700  0.0936 -1.3690  0.9504
17723TIP3    H274585   0.244   1.588   5.592  0.9604  0.8240  1.9076
17724TIP3   OH274586   4.808   1.895   6.479 -0.1961  0.3090  0.3645
17724TIP3    H174587   4.874   1.878   6.546  0.6027 -0.3893 -0.5775
17724TIP3    H274588   4.739   1.831   6.497 -1.2926  1.8895  2.1577
17725TIP3   OH274589   6.520   4.467  13.757 -0.2735 -0.4544 -0.1352
17725TIP3    H174590   6.578   4.541  13.774 -1.2150 -0.1423  1.8843
17725TIP3    H274591   6.580   4.394  13.739  0.6788  0.3920 -0.5187
17726TIP3   OH274592   3.339   5.400  16.073 -0.5980  0.6491 -0.0266
17726TIP3    H174593   3.272   5.465  16.095 -1.1935 -0.1479  0.5723
17726TIP3    H274594   3.292   5.332  16.024 -0.3341 -0.1389  0.7855
17727TIP3   OH274595   0.089   6.123  14.790 -0.2019  0.9265  0.4166
17727TIP3    H174596   0.144   6.191  14.829  0.6555  0.8167 -0.5614
17727TIP3    H274597   0.112   6.043  14.838  2.1210  0.4358 -1.3461
17728TIP3   OH274598   0.881   0.061  15.117 -0.5099 -0.2675  0.6830
17728TIP3    H174599   0.845   0.150  15.115 -0.2916 -0.1820  0.4161
17728TIP3    H274600   0.828   0.012  15.055 -1.0255 -0.4807  1.2870
17729TIP3   OH274601   4.377   6.162   1.982  0.0144  0.2243 -0.1075
17729TIP3    H174602   4.365   6.192   2.072 -0.1764 -0.4198  0.0900
17729TIP3    H274603   4.300   6.107   1.964 -1.4555  2.6216 -1.6747
17730TIP3   OH274604   2.555   0.369   2.032  0.3275  0.2082  0.4642
17730TIP3    H174605   2.556   0.432   1.960 -0.8254 -1.1449 -0.7919
17730TIP3    H274606   2.475   0.389   2.081  0.7613  0.6901  0.9915
17731TIP3   OH274607   6.013   2.038  12.303  0.7118  0.2280  0.4097
17731TIP3    H174608   5.967   1.967  12.350 -0.3768 -1.4037 -2.8135
17731TIP3    H274609   5.961   2.116  12.321 -0.3891 -0.5903  0.8948
17732TIP3   OH274610   1.282   0.085   1.353  0.8037 -1.0545 -0.5110
17732TIP3    H174611   1.257   0.016   1.292  1.1709 -1.7778  0.1411
17732TIP3    H274612   1.240   0.060   1.436  1.0669 -0.5846 -0.2322
17733TIP3   OH274613   5.487   1.292   3.466  0.2116 -0.1883  0.2361
17733TIP3    H174614   5.455   1.298   3.376  1.3583  0.1492 -0.1539
17733TIP3    H274615   5.520   1.379   3.486  1.6918 -0.7504  0.3158
17734TIP3   OH274616   1.581   4.509   5.899 -0.1542 -0.2696 -0.5850
17734TIP3    H174617   1.492   4.476   5.908 -0.7449  1.7490  2.0543
17734TIP3    H274618   1.631   4.465   5.967  1.1276 -1.8544 -2.4296
17735TIP3   OH274619   2.754   4.940  17.077 -0.4479 -0.0188 -0.6178
17735TIP3    H174620   2.764   4.847  17.097  0.6936 -0.3594 -2.5590
17735TIP3    H274621   2.660   4.954  17.073 -0.6563 -0.8347  0.6576
17736TIP3   OH274622   5.907   4.345   3.126  0.5016  0.5011 -0.0532
17736TIP3    H174623   5.944   4.420   3.173  0.0143 -0.0075  1.1852
17736TIP3    H274624   5.982   4.286   3.112  0.3932 -0.0421  1.4926
17737TIP3   OH274625   0.646   3.136  16.851 -0.3383 -0.6754 -0.0191
17737TIP3    H174626   0.556   3.113  16.873 -0.2139 -2.4133 -1.1085
17737TIP3    H274627   0.698   3.101  16.923 -0.4696 -0.1886  0.3187
17738TIP3   OH274628   2.850   1.095   5.284 -0.1539 -0.5382 -0.4740
17738TIP3    H174629   2.898   1.027   5.332  0.5187  0.8154  0.8648
17738TIP3    H274630   2.882   1.177   5.321 -2.6405  0.4759 -0.3867
17739TIP3   OH274631   3.683   3.317   5.353  0.2296 -0.5505 -0.5262
17739TIP3    H174632   3.617   3.247   5.349  0.1544 -0.4525 -1.2167
17739TIP3    H274633   3.758   3.276   5.395 -0.3606 -0.5814  0.5370
17740TIP3   OH274634   1.969   4.565  14.931 -0.8766  0.0486  0.5122
17740TIP3    H174635   2.014   4.629  14.986 -0.9616 -0.8692  1.6933
17740TIP3    H274636   1.889   4.544  14.979 -0.1908 -1.9688  0.8841
17741TIP3   OH274637   2.566   6.515  14.863 -1.0963  0.1575  0.1186
17741TIP3    H174638   2.474   6.538  14.852 -1.0354  1.6369  2.1909
17741TIP3    H274639   2.613   6.598  14.859 -0.2110 -0.1983  1.9767
17742TIP3   OH274640   3.720   3.485   0.662 -0.3539 -0.6367 -0.1341
17742TIP3    H174641   3.698   3.452   0.749 -2.0960  1.1052  0.1550
17742TIP3    H274642   3.797   3.540   0.675 -0.4506 -0.5916  0.2478
17743TIP3   OH274643   5.635   0.628   2.963 -0.6496  0.6132  0.0510
17743TIP3    H174644   5.574   0.555   2.971  0.5796 -0.8110 -2.2029
17743TIP3    H274645   5.720   0.591   2.988  0.4211  0.4162 -3.2977
17744TIP3   OH274646   4.554   1.129   4.021 -0.6608  0.3001 -0.2131
17744TIP3    H174647   4.609   1.127   4.099 -0.6973  1.5571 -0.1375
17744TIP3    H274648   4.473   1.085   4.049 -0.7802  0.9707  0.5541
17745TIP3   OH274649   0.003   4.973   0.155  0.2314 -0.0377  0.2693
17745TIP3    H174650   0.046   5.051   0.121  1.4233 -0.8758 -0.1849
17745TIP3    H274651  -0.040   4.933   0.079  0.0613 -0.1052  0.3995
17746TIP3   OH274652   2.724   4.126  11.226  0.4194 -0.2142  0.6459
17746TIP3    H174653   2.706   4.150  11.135 -1.0064  2.3620  1.5040
17746TIP3    H274654   2.690   4.036  11.235 -3.3137  0.8902 -0.4152
17747TIP3   OH274655   4.517   2.001   1.085  0.0380 -0.0388 -1.1534
17747TIP3    H174656   4.476   2.071   1.033 -0.6900 -0.7654 -1.5894
17747TIP3    H274657   4.560   1.945   1.020 -1.5689 -1.4104 -1.1230
17748TIP3   OH274658   1.354   2.003  13.854 -0.3465 -0.7308 -0.2134
17748TIP3    H174659   1.440   1.987  13.816  0.3611  3.1570 -0.6218
17748TIP3    H274660   1.330   1.919  13.894  4.0610 -1.7606  0.8006
17749TIP3   OH274661   5.857   0.863  10.502 -0.0499  0.2484  0.0483
17749TIP3    H174662   5.832   0.777  10.537  0.3950  0.0670 -0.0721
17749TIP3    H274663   5.951   0.855  10.484  0.1831  1.0598  0.8735
17750TIP3   OH274664   4.165   3.078   3.189 -0.5888 -0.3732  0.1065
17750TIP3    H174665   4.136   2.990   3.163 -2.1790 -0.9007  3.1096
17750TIP3    H274666   4.119   3.094   3.271  2.1419  1.9441  1.3678
17751TIP3   OH274667   3.212   4.439   3.190 -0.4359 -0.3823  0.0447
17751TIP3    H174668   3.303   4.462   3.169  0.6042 -3.5832  0.4042
17751TIP3    H274669   3.160   4.510   3.154  2.1729  1.3967 -0.5125
17752TIP3   OH274670   2.783   1.012  16.853 -0.6459 -0.1745 -0.0735
17752TIP3    H174671   2.767   1.031  16.761 -0.7469 -0.2837 -0.0774
17752TIP3    H274672   2.716   1.062  16.900 -0.8875 -0.4889 -0.0809
17753TIP3   OH274673   0.201   2.018   2.138  0.6855  0.4930 -0.0676
17753TIP3    H174674   0.157   2.021   2.054 -0.3224  0.0982  0.4348
17753TIP3    H274675   0.267   2.087   2.133  0.4530  0.6574 -1.0696
17754TIP3   OH274676   1.969   0.839  15.042  0.1304 -0.5455 -0.6663
17754TIP3    H174677   1.991   0.880  14.958  1.4349  0.1852  0.0060
17754TIP3    H274678   2.052   0.805  15.075 -0.4402 -1.1867  0.1484
17755TIP3   OH274679   3.680   1.774   5.392 -0.8560 -0.1485 -0.1363
17755TIP3    H174680   3.657   1.867   5.399 -0.0475  0.3049 -2.5044
17755TIP3    H274681   3.648   1.748   5.306  1.2601 -1.3369 -0.6267
17756TIP3   OH274682   0.462   4.223  10.829  0.7741 -0.1525 -0.7870
17756TIP3    H174683   0.432   4.290  10.890  0.8302  0.7999 -1.7893
17756TIP3    H274684   0.545   4.256  10.795  0.8432 -0.7640 -1.2271
17757TIP3   OH274685   2.313   0.801  12.813  0.1245 -0.3833 -0.4196
17757TIP3    H174686   2.393   0.821  12.765  0.8620 -0.6612  0.6478
17757TIP3    H274687   2.344   0.764  12.896 -1.1031 -2.8303 -0.9590
17758TIP3   OH274688   3.500   1.658   3.470  0.1015 -0.3447  0.4972
17758TIP3    H174689   3.534   1.705   3.393 -1.2805  1.8244  1.1104
17758TIP3    H274690   3.425   1.609   3.438  1.0866 -1.5850  0.0019
17759TIP3   OH274691   6.011   5.603   1.165  0.2196 -0.3305  0.0033
17759TIP3    H174692   6.103   5.626   1.156  0.1229  0.3505  0.6466
17759TIP3    H274693   5.999   5.590   1.259 -0.7360  1.3729  0.1557
17760TIP3   OH274694   1.264   2.524  12.853 -0.2082  0.5717 -0.0221
17760TIP3    H174695   1.278   2.570  12.936 -1.2601  0.0733  0.4488
17760TIP3    H274696   1.291   2.587  12.786  0.8468  0.9054  0.6887
17761TIP3   OH274697   4.735   2.169  16.177  0.1229  0.1424 -0.6920
17761TIP3    H174698   4.643   2.195  16.177  0.3720  1.5326 -4.3885
17761TIP3    H274699   4.741   2.100  16.111  1.6679 -0.2747 -0.1631
17762TIP3   OH274700   6.715   2.018   4.294  0.4460 -0.3353 -0.1953
17762TIP3    H174701   6.706   2.025   4.389 -2.8061 -1.4829 -0.2974
17762TIP3    H274702   6.764   1.938   4.281 -0.6743 -1.1768  0.5528
17763TIP3   OH274703   4.348   4.994  14.127  0.1684 -0.1334  0.4336
17763TIP3    H174704   4.258   5.009  14.099 -0.0144  0.2432  1.1852
17763TIP3    H274705   4.342   4.922  14.190  0.3454  0.1176  0.7404
17764TIP3   OH274706   0.739   1.231  11.688 -0.3045 -0.5550 -0.2347
17764TIP3    H174707   0.688   1.150  11.695 -0.0963 -0.8389 -1.6650
17764TIP3    H274708   0.707   1.272  11.608  0.4382  0.1880 -0.1584
17765TIP3   OH274709   2.536   5.382  15.778 -0.8592  0.0490 -0.3925
17765TIP3    H174710   2.480   5.316  15.739  0.1995  0.4407 -2.7709
17765TIP3    H274711   2.502   5.465  15.745  0.3946  0.3562 -0.9847
17766TIP3   OH274712   5.135   1.494  16.904 -0.4802 -0.0440  0.2625
17766TIP3    H174713   5.103   1.546  16.978 -2.9544 -1.1074  0.0482
17766TIP3    H274714   5.118   1.403  16.929  0.2695 -0.5330 -0.8983
17767TIP3   OH274715   5.286   4.035  10.597  0.2711  0.5165  0.0521
17767TIP3    H174716   5.377   4.008  10.586 -0.3140 -1.1073 -0.9840
17767TIP3    H274717   5.235   3.956  10.586 -1.2037  0.9266  2.8173
17768TIP3   OH274718   3.301   0.944   5.186 -0.7418 -0.0780  1.1560
17768TIP3    H174719   3.267   1.015   5.131 -0.0788 -0.7030 -0.1062
17768TIP3    H274720   3.304   0.868   5.128  2.1496 -0.2130  1.3381
17769TIP3   OH274721   2.228   2.381   5.258 -0.4456 -0.4758 -0.4154
17769TIP3    H174722   2.313   2.374   5.302 -0.9298  1.2547  0.9643
17769TIP3    H274723   2.183   2.299   5.278  0.1185 -0.5357  0.6759
17770TIP3   OH274724   5.954   3.283  16.126 -0.0957 -0.7065  0.0582
17770TIP3    H174725   6.037   3.239  16.107  1.2560  1.5582  0.3039
17770TIP3    H274726   5.979   3.356  16.184 -1.7985  1.6680 -2.0134
17771TIP3   OH274727   1.006   0.687  11.926  0.4297 -0.1953 -0.1821
17771TIP3    H174728   1.010   0.707  11.833  0.0118 -0.0742 -0.1795
17771TIP3    H274729   1.094   0.705  11.959  0.6887 -0.6176 -0.6256
17772TIP3   OH274730   1.041   6.174  14.807 -0.3024 -0.0623  0.4121
17772TIP3    H174731   0.949   6.174  14.835 -0.8174 -1.2692 -1.1543
17772TIP3    H274732   1.087   6.217  14.879 -2.3507  2.5712  0.2853
17773TIP3   OH274733   2.275   2.739   4.231  0.6316 -0.2847 -0.2166
17773TIP3    H174734   2.314   2.659   4.196  0.2380  0.6370 -3.0666
17773TIP3    H274735   2.228   2.711   4.309  1.0320 -2.7143 -0.7690
17774TIP3   OH274736   3.751   0.507  16.684  0.1201  0.0246 -0.5518
17774TIP3    H174737   3.673   0.453  16.668 -0.7769  1.0275  0.3172
17774TIP3    H274738   3.726   0.565  16.756  1.7351  0.2579 -0.1381
17775TIP3   OH274739   0.540   4.268   0.152  0.1238 -0.2290 -0.9684
17775TIP3    H174740   0.622   4.269   0.103  1.0108 -1.0897  0.4180
17775TIP3    H274741   0.562   4.224   0.234 -1.3845  0.7977  0.0425
17776TIP3   OH274742   4.952   2.452   4.027  0.1424 -0.2845  0.4314
17776TIP3    H174743   4.910   2.536   4.011 -1.3864 -1.1783 -0.4707
17776TIP3    H274744   4.946   2.440   4.122 -0.0529  0.4054  0.5130
17777TIP3   OH274745   3.600   3.889   4.970  0.4469  0.1437 -0.2319
17777TIP3    H174746   3.641   3.965   5.011 -0.1488  1.3942 -1.8611
17777TIP3    H274747   3.546   3.851   5.039  1.0285  0.9693  0.7066
17778TIP3   OH274748   5.210   1.074   5.595 -0.2176 -0.5710 -0.3170
17778TIP3    H174749   5.265   1.091   5.519  1.1901  0.8359  0.9559
17778TIP3    H274750   5.132   1.128   5.581  1.0206  1.4437  0.2431
17779TIP3   OH274751   6.688   4.502   2.019  0.1222  0.8567 -0.6525
17779TIP3    H174752   6.662   4.594   2.020  1.9572  1.4161 -0.0913
17779TIP3    H274753   6.606   4.454   2.012 -1.2042  2.4397  2.2665
17780TIP3   OH274754   0.896   6.470   5.691  0.2786 -0.4503  0.0135
17780TIP3    H174755   0.813   6.440   5.727 -0.8757 -2.4490 -3.7838
17780TIP3    H274756   0.874   6.547   5.639  0.4380 -1.7020 -2.0247
17781TIP3   OH274757   3.508   6.725  16.407  0.5285 -0.0753  0.1876
17781TIP3    H174758   3.570   6.663  16.446 -0.2901 -0.7389  0.4616
17781TIP3    H274759   3.468   6.770  16.481 -1.1235 -1.4275  0.1880
17782TIP3   OH274760   3.778   2.488   0.468 -0.0167 -0.2365  0.2569
17782TIP3    H174761   3.746   2.413   0.418 -0.0621 -0.7753  1.0784
17782TIP3    H274762   3.700   2.539   0.488 -0.2688 -1.0302  1.4076
17783TIP3   OH274763   1.094   4.873  13.415 -0.7757  0.5481 -0.6650
17783TIP3    H174764   1.074   4.958  13.455  1.3025  0.6673  0.2402
17783TIP3    H274765   1.022   4.816  13.442 -0.1281  0.9667  2.3096
17784TIP3   OH274766   4.610   0.593   4.623 -0.1600 -0.0267  0.1809
17784TIP3    H174767   4.630   0.500   4.612  0.0005  0.1045 -0.6525
17784TIP3    H274768   4.661   0.637   4.555 -0.1566  0.6851  0.6339
17785TIP3   OH274769   2.317   0.512  12.346  0.0523 -0.0160 -0.3556
17785TIP3    H174770   2.294   0.596  12.384 -0.3022 -0.3391  0.1478
17785TIP3    H274771   2.276   0.447  12.403 -0.3616 -0.5098 -1.2017
17786TIP3   OH274772   3.029   4.459   4.336 -0.1768  0.3107 -0.5684
17786TIP3    H174773   2.943   4.487   4.365 -0.5093 -1.1883  0.0113
17786TIP3    H274774   3.090   4.518   4.381 -0.8740  1.4989 -1.1273
17787TIP3   OH274775   3.749   5.111  13.057  0.4371  0.0613  0.2934
17787TIP3    H174776   3.764   5.192  13.008 -0.6500  0.7092  0.9775
17787TIP3    H274777   3.670   5.074  13.019  1.7329 -1.5111 -1.0165
17788TIP3   OH274778   2.150   1.678   3.991  0.3633 -0.3043  0.3404
17788TIP3    H174779   2.113   1.598   3.953  1.6628 -0.9688  0.4369
17788TIP3    H274780   2.076   1.718   4.037 -0.3565 -1.3492  0.1412
17789TIP3   OH274781   5.059   0.540  16.586 -0.5552 -0.4242 -0.6952
17789TIP3    H174782   5.078   0.517  16.495  1.1577 -0.8872 -0.2455
17789TIP3    H274783   5.144   0.565  16.623 -1.4242  0.9793  0.4419
17790TIP3   OH274784   5.181   2.668   2.831 -0.3396 -0.0082  0.0399
17790TIP3    H174785   5.221   2.701   2.911  0.2772 -0.9230  0.1309
17790TIP3    H274786   5.166   2.575   2.849  1.0706 -0.5507 -1.3750
17791TIP3   OH274787   2.911   1.261   3.565  0.2457  0.1976 -0.5190
17791TIP3    H174788   2.929   1.193   3.500  0.5497 -1.5967  1.3232
17791TIP3    H274789   2.990   1.266   3.618 -0.4604  0.6193  0.5426
17792TIP3   OH274790   0.031   4.377  10.973 -0.2296  0.1373  0.2430
17792TIP3    H174791   0.058   4.288  10.952  1.3974  0.5519  0.4712
17792TIP3    H274792  -0.049   4.390  10.922  1.0911 -0.4634 -2.1367
17793TIP3   OH274793   1.424   0.581  11.198 -0.0757  0.0531  0.0966
17793TIP3    H174794   1.512   0.545  11.191 -0.0949  0.1205 -0.5344
17793TIP3    H274795   1.369   0.521  11.149 -0.2893  0.3338 -0.0137
17794TIP3   OH274796   6.589   6.773   5.444  0.2686  0.4615 -0.6150
17794TIP3    H174797   6.589   6.826   5.524  2.2985  0.1055 -0.3207
17794TIP3    H274798   6.597   6.683   5.475  1.1335  0.3224 -1.1978
17795TIP3   OH274799   4.349   5.277   4.370  0.6188  0.4000  0.3505
17795TIP3    H174800   4.441   5.256   4.383  0.6403  0.7097  0.7137
17795TIP3    H274801   4.310   5.271   4.457 -0.0316 -1.2302 -0.0105
17796TIP3   OH274802   0.388   2.285   0.734 -0.3742 -0.3231  0.0578
17796TIP3    H174803   0.414   2.270   0.643  2.9238 -1.0684  0.9546
17796TIP3    H274804   0.295   2.266   0.736 -0.1037 -2.6978 -2.7124
17797TIP3   OH274805   0.389   4.179   1.650 -0.2189 -0.0838  0.7260
17797TIP3    H174806   0.467   4.232   1.633 -1.7962  1.4717 -2.5459
17797TIP3    H274807   0.319   4.243   1.663 -1.0336 -1.4378  3.8653
17798TIP3   OH274808   3.330   2.724  14.749  0.2649 -0.2473  0.3389
17798TIP3    H174809   3.288   2.718  14.663  0.2585  1.4513  0.2048
17798TIP3    H274810   3.424   2.720  14.731  0.2500 -1.0847  0.3829
17799TIP3   OH274811   5.879   0.808   2.568  1.0321 -0.2573 -0.5521
17799TIP3    H174812   5.811   0.799   2.635  2.2830 -2.6184  0.5361
17799TIP3    H274813   5.831   0.827   2.488 -1.1599 -3.3431 -0.1617
17800TIP3   OH274814   3.011   5.094  11.502  0.2029  0.0236  0.2718
17800TIP3    H174815   3.081   5.124  11.561  0.9970 -1.4416  0.1273
17800TIP3    H274816   2.981   5.173  11.458  0.8892  0.8724  1.2759
17801TIP3   OH274817   3.361   3.653  15.943 -0.0497  0.4384  0.2827
17801TIP3    H174818   3.369   3.744  15.917  0.6757  0.2722 -0.0944
17801TIP3    H274819   3.423   3.606  15.887 -2.2527 -0.6681 -1.3749
17802TIP3   OH274820   2.010   6.090   0.773  0.1905  0.0012 -0.1797
17802TIP3    H174821   1.970   6.030   0.710 -0.4057 -1.0702  1.1678
17802TIP3    H274822   2.065   6.035   0.827 -1.4454  0.3486  1.9821
17803TIP3   OH274823   1.463   4.471  13.985 -0.1545  0.2309 -0.5510
17803TIP3    H174824   1.467   4.459  14.080  0.3907  0.4370 -0.5440
17803TIP3    H274825   1.390   4.531  13.971  0.8287  1.5742 -0.1177
17804TIP3   OH274826   5.914   5.948  16.348  0.3767  0.2410  0.9000
17804TIP3    H174827   5.977   6.007  16.390  0.9987 -0.0894  0.4321
17804TIP3    H274828   5.963   5.905  16.279 -0.7797  1.2297 -0.6136
17805TIP3   OH274829   4.074   6.447   2.977  0.0346  0.1090 -0.5137
17805TIP3    H174830   4.040   6.460   3.066  0.0983 -0.4035 -0.4093
17805TIP3    H274831   4.163   6.414   2.991  0.9598  2.2955 -0.7783
17806TIP3   OH274832   2.516   6.689  13.717 -0.0340  0.6333 -0.3400
17806TIP3    H174833   2.508   6.660  13.808  1.3491  2.9808  0.6260
17806TIP3    H274834   2.429   6.673  13.679 -0.2249 -1.7081  0.9243
17807TIP3   OH274835   5.732   4.948   5.100 -0.6833  0.3923 -0.3450
17807TIP3    H174836   5.733   4.982   5.189 -2.0679  0.3268 -0.2885
17807TIP3    H274837   5.817   4.903   5.090  0.2688  1.9727  0.2927
17808TIP3   OH274838   1.857   2.949   1.396  0.2906  0.9230  0.4588
17808TIP3    H174839   1.832   2.874   1.451 -1.3198  0.4032 -0.9006
17808TIP3    H274840   1.869   3.021   1.458 -1.5886  0.3951  1.5325
17809TIP3   OH274841   2.267   2.869  13.254  0.1873 -0.4002 -0.2991
17809TIP3    H174842   2.176   2.880  13.281  0.3948 -0.9569  0.6895
17809TIP3    H274843   2.290   2.781  13.285  1.4181  0.1966  0.5660
17810TIP3   OH274844   4.318   6.758  10.409 -0.1358  0.2653  0.3814
17810TIP3    H174845   4.279   6.840  10.379  0.2027  0.8988  1.6024
17810TIP3    H274846   4.406   6.783  10.440 -0.1437 -0.4940  1.0481
17811TIP3   OH274847   5.089   4.997  10.486 -0.0071 -0.1028 -0.6733
17811TIP3    H174848   5.029   4.939  10.439  1.1455 -1.2454 -0.7931
17811TIP3    H274849   5.174   4.982  10.445  0.8224 -0.3047  1.0228
17812TIP3   OH274850   0.775   2.304   2.437 -0.5045  0.3321 -0.4388
17812TIP3    H174851   0.717   2.322   2.511 -0.9191 -0.7748 -0.4697
17812TIP3    H274852   0.762   2.377   2.377  0.8495  1.9586  1.1554
17813TIP3   OH274853   3.726   4.393  13.764  0.2251  0.0470 -0.6262
17813TIP3    H174854   3.819   4.413  13.761 -0.0931  1.5011 -1.6770
17813TIP3    H274855   3.682   4.478  13.752 -1.2877 -0.0643  2.8515
17814TIP3   OH274856   6.727   3.654   2.815  0.1464 -0.1421 -0.0832
17814TIP3    H174857   6.755   3.746   2.814  1.1809 -0.4407 -0.0804
17814TIP3    H274858   6.787   3.610   2.755  0.1717 -0.9499  0.5131
17815TIP3   OH274859   0.280   1.389   0.231  0.1102 -0.0278 -0.2486
17815TIP3    H174860   0.290   1.437   0.150 -1.6101  3.5371  1.4314
17815TIP3    H274861   0.196   1.344   0.222  0.9290 -1.4510 -1.1734
17816TIP3   OH274862   6.423   0.177  11.444 -0.5742  0.0271 -0.0213
17816TIP3    H174863   6.451   0.256  11.397  0.4653  0.1707  0.7902
17816TIP3    H274864   6.473   0.106  11.402  0.4372  0.1695  0.8835
17817TIP3   OH274865   1.682   5.544   4.519 -0.4831 -0.2830  0.1884
17817TIP3    H174866   1.719   5.526   4.433 -0.1286  1.0830  0.0340
17817TIP3    H274867   1.748   5.513   4.581 -0.8345 -1.4686 -0.0119
17818TIP3   OH274868   1.952   1.763   4.172 -0.2624  0.0230  0.0863
17818TIP3    H174869   1.884   1.794   4.113 -0.7351 -0.0859  0.5651
17818TIP3    H274870   1.966   1.835   4.233  1.1003  0.6156 -0.8836
17819TIP3   OH274871   5.943   4.643   1.058  0.3316  0.5303 -0.1396
17819TIP3    H174872   5.938   4.634   1.153 -0.3018  1.7659 -0.0363
17819TIP3    H274873   5.937   4.737   1.043  1.3697  0.4229 -1.3606
17820TIP3   OH274874   1.317   4.319   1.473 -0.1960  0.4573 -0.2089
17820TIP3    H174875   1.313   4.268   1.392  0.3897 -0.5640  0.3925
17820TIP3    H274876   1.230   4.359   1.480 -0.9246 -1.0309 -0.3421
17821TIP3   OH274877   5.024   4.557   1.944  0.4649 -0.0065 -0.3163
17821TIP3    H174878   4.992   4.642   1.912 -0.8105 -0.4347 -0.2321
17821TIP3    H274879   4.953   4.496   1.926  2.0829 -1.4803 -2.0977
17822TIP3   OH274880   2.046   4.405   3.573 -0.1518 -0.2709 -0.0014
17822TIP3    H174881   1.956   4.370   3.575 -0.6056  0.8716  1.5171
17822TIP3    H274882   2.034   4.500   3.572  1.0342 -0.0951  1.0545
17823TIP3   OH274883   4.138   1.950  13.257  0.3978  0.3361 -0.0068
17823TIP3    H174884   4.081   1.893  13.206  0.9093 -3.8980  3.5428
17823TIP3    H274885   4.078   1.997  13.316  0.1721  1.6444 -1.2252
17824TIP3   OH274886   1.677   5.949   0.086  0.5437 -0.2303  0.3160
17824TIP3    H174887   1.706   5.864   0.052  0.7284 -0.9553  2.1622
17824TIP3    H274888   1.605   5.974   0.028  1.7482 -0.6794 -1.4573
17825TIP3   OH274889   1.339   3.678  10.981  0.0675  0.6256  0.1012
17825TIP3    H174890   1.378   3.602  10.938  2.1661  0.6850  1.7359
17825TIP3    H274891   1.245   3.662  10.978  0.4733 -3.0210  2.0592
17826TIP3   OH274892   4.758   2.606   2.597  0.4142  0.4628 -0.4981
17826TIP3    H174893   4.781   2.675   2.659  0.4884 -1.0541  1.2343
17826TIP3    H274894   4.842   2.566   2.574  0.3764  0.9411 -1.5375
17827TIP3   OH274895   5.908   6.706  12.024  0.0278 -0.3070 -0.0255
17827TIP3    H174896   5.865   6.761  12.090  0.1660 -0.2150 -0.0108
17827TIP3    H274897   5.983   6.667  12.070 -0.1614 -0.6324  0.0069
17828TIP3   OH274898   6.551   0.532   2.538  0.4840  0.0587  0.7294
17828TIP3    H174899   6.516   0.513   2.625  1.0297  0.7389  1.1030
17828TIP3    H274900   6.477   0.520   2.479  0.2989 -1.1954  1.1851
17829TIP3   OH274901   0.740   0.810   5.759 -0.3959  0.5345  0.0769
17829TIP3    H174902   0.735   0.869   5.833 -0.8861 -0.2071  0.6518
17829TIP3    H274903   0.827   0.826   5.721 -0.1826  0.9860  0.7474
17830TIP3   OH274904   2.797   0.443   2.650  0.2540 -0.0717 -0.0185
17830TIP3    H174905   2.890   0.468   2.651 -0.0728  1.1963  0.3934
17830TIP3    H274906   2.777   0.423   2.742 -0.2416  1.1263  0.1482
17831TIP3   OH274907   6.056   1.342  11.659  0.0445  0.0027  0.2863
17831TIP3    H174908   6.004   1.365  11.736  1.4408  0.9764  0.9956
17831TIP3    H274909   6.108   1.267  11.687 -1.7640 -1.7715 -0.8140
17832TIP3   OH274910   2.316   0.433   4.958 -0.2412  0.1266 -0.7349
17832TIP3    H174911   2.265   0.381   4.896  0.6769 -2.0179  0.1942
17832TIP3    H274912   2.250   0.480   5.009 -1.3339 -1.9525 -0.0945
17833TIP3   OH274913   5.799   3.328  16.798 -0.1424  0.0702  0.0952
17833TIP3    H174914   5.744   3.372  16.863 -1.0488 -0.3879 -0.3337
17833TIP3    H274915   5.787   3.379  16.718  0.5563  0.3288  0.1551
17834TIP3   OH274916   5.948   4.111  12.806  0.6168  0.7120 -0.2829
17834TIP3    H174917   5.982   4.063  12.730 -1.8089 -1.6804  0.0161
17834TIP3    H274918   5.985   4.066  12.882 -0.0737  0.6016 -0.0091
17835TIP3   OH274919   4.236   4.056  15.307  0.0355 -0.3453  0.5128
17835TIP3    H174920   4.283   4.065  15.224  0.5771  0.3774  0.8901
17835TIP3    H274921   4.145   4.078  15.285  0.1659 -0.2044  0.0982
17836TIP3   OH274922   3.590   5.117  17.053 -0.3192 -0.6427  0.0545
17836TIP3    H174923   3.636   5.186  17.101 -2.6738 -0.1427  1.8189
17836TIP3    H274924   3.647   5.096  16.980  3.0079 -0.6908  2.4714
17837TIP3   OH274925   5.785   4.232  12.538 -0.7254 -0.0316 -0.3720
17837TIP3    H174926   5.800   4.323  12.511  3.2215  0.2201  1.9189
17837TIP3    H274927   5.746   4.239  12.625 -0.8676 -0.5720 -0.3893
17838TIP3   OH274928   6.552   3.632  14.805 -0.1191  0.1531 -0.0846
17838TIP3    H174929   6.549   3.704  14.742  0.2249  1.0657  0.9096
17838TIP3    H274930   6.590   3.671  14.884  0.4307 -1.2191  0.3581
17839TIP3   OH274931   2.416   6.797  15.076  0.1570  0.6448  0.0677
17839TIP3    H174932   2.447   6.759  14.994  1.6841  1.6572  0.1357
17839TIP3    H274933   2.343   6.853  15.050  1.2565  1.7350 -0.7780
17840TIP3   OH274934   3.618   5.106   0.366  0.2994 -0.0261 -0.9213
17840TIP3    H174935   3.583   5.192   0.391  1.2320  0.2594 -0.5579
17840TIP3    H274936   3.553   5.071   0.305  1.7834  2.6765 -4.4109
17841TIP3   OH274937   6.459   3.749  14.562 -0.0798 -0.2038  0.3860
17841TIP3    H174938   6.387   3.793  14.608  0.6558  0.0475  1.3447
17841TIP3    H274939   6.418   3.705  14.488 -1.1237  0.4511  0.5592
17842TIP3   OH274940   1.868   0.611   5.051 -0.5046  0.0403 -0.6365
17842TIP3    H174941   1.786   0.657   5.032  0.5854  2.0822 -0.7504
17842TIP3    H274942   1.898   0.577   4.967 -0.4117  0.7811 -0.9107
17843TIP3   OH274943   3.144   3.273  17.138 -0.2945 -0.2199 -0.3445
17843TIP3    H174944   3.159   3.179  17.150  0.6561  0.0571  0.8293
17843TIP3    H274945   3.194   3.296  17.060  0.9849 -0.3543  0.4158
17844TIP3   OH274946   6.452   4.285   2.733  0.3671  0.0981  0.7535
17844TIP3    H174947   6.505   4.207   2.751  1.2496  0.9569  2.0340
17844TIP3    H274948   6.361   4.256   2.746  0.6635 -0.7898  0.9015
17845TIP3   OH274949   5.061   1.831  10.698  0.2882  0.3112  0.5288
17845TIP3    H174950   5.081   1.772  10.625 -1.2886  0.7856 -0.3301
17845TIP3    H274951   4.971   1.809  10.723  0.5668  0.6124  1.9229
17846TIP3   OH274952   0.253   0.645  11.625  0.1063  0.2026  0.0278
17846TIP3    H174953   0.224   0.625  11.536 -0.2470  0.3827  0.1018
17846TIP3    H274954   0.265   0.740  11.626  1.8731  0.0021 -0.3477
17847TIP3   OH274955   3.351   5.243   4.315 -0.4768  0.2715  0.2266
17847TIP3    H174956   3.324   5.290   4.395  0.5652  0.1923  0.6351
17847TIP3    H274957   3.320   5.154   4.328  0.2579  0.1004  0.8421
17848TIP3   OH274958   5.133   2.743  12.480 -0.4220 -0.8047 -0.0219
17848TIP3    H174959   5.107   2.714  12.393  1.2403 -0.4335 -0.6790
17848TIP3    H274960   5.199   2.811  12.464  0.7470 -1.5158  1.5140
17849TIP3   OH274961   4.382   3.220   2.695  0.0425  0.7547 -0.1715
17849TIP3    H174962   4.297   3.216   2.650  0.4510  0.2275 -0.9303
17849TIP3    H274963   4.446   3.232   2.625  0.6308  0.7170  0.3479
17850TIP3   OH274964   2.083   4.786  10.877 -0.6050  0.3170 -0.0968
17850TIP3    H174965   2.171   4.817  10.896 -0.4924  0.4163 -0.7591
17850TIP3    H274966   2.085   4.692  10.899  0.0523  0.0225 -1.3685
17851TIP3   OH274967   0.581   3.673  12.612  0.4707 -0.2220 -0.4349
17851TIP3    H174968   0.499   3.675  12.662  1.7593  0.7184  1.8147
17851TIP3    H274969   0.597   3.580  12.596 -0.6380 -0.4650 -0.2635
17852TIP3   OH274970   2.558   3.400   1.077  0.0514 -0.6666  0.3052
17852TIP3    H174971   2.622   3.391   1.147  1.2279 -1.0043 -0.7864
17852TIP3    H274972   2.491   3.335   1.097  0.1787 -0.5092  1.2988
17853TIP3   OH274973   2.307   0.094  12.326  0.2519  0.0863 -0.8433
17853TIP3    H174974   2.397   0.111  12.298  0.7627  0.6756  1.0631
17853TIP3    H274975   2.311   0.008  12.368 -0.6178 -1.0325 -2.8518
17854TIP3   OH274976   5.386   5.777   2.091 -0.7678  0.0373  0.4640
17854TIP3    H174977   5.358   5.705   2.148  1.5931  0.4148  2.2906
17854TIP3    H274978   5.434   5.734   2.020 -1.8644 -0.3091 -0.0954
17855TIP3   OH274979   6.065   1.791   2.524 -0.4274  0.2944 -0.1481
17855TIP3    H174980   6.115   1.873   2.524 -2.8519  1.9569 -1.9348
17855TIP3    H274981   6.106   1.738   2.456 -0.8875  1.5260 -1.4297
17856TIP3   OH274982   6.350   0.709   3.693 -1.1462 -0.7756  0.2719
17856TIP3    H174983   6.372   0.778   3.755  0.3673 -1.0809  0.1153
17856TIP3    H274984   6.316   0.756   3.617  0.5559 -0.0911 -0.1302
17857TIP3   OH274985   2.843   6.678   3.364  0.3278 -0.1037 -0.1175
17857TIP3    H174986   2.757   6.715   3.347 -0.4166 -1.9677 -0.7104
17857TIP3    H274987   2.848   6.672   3.460  0.1822  0.8246 -0.0427
17858TIP3   OH274988   4.982   4.104  11.683  0.4706 -0.3684  0.4362
17858TIP3    H174989   5.056   4.163  11.672  0.7217 -0.3652  2.0143
17858TIP3    H274990   4.910   4.161  11.710 -0.4222 -0.2310 -1.9132
17859TIP3   OH274991   0.741   6.532  16.354  0.1657  0.1804  0.3101
17859TIP3    H174992   0.666   6.498  16.306 -0.3089 -1.1056  1.8757
17859TIP3    H274993   0.704   6.569  16.434  0.9130  2.4524 -0.3076
17860TIP3   OH274994   6.091   5.824  12.531  0.5945 -0.3447 -0.1418
17860TIP3    H174995   6.103   5.901  12.474  1.2714  0.5653  1.1588
17860TIP3    H274996   6.014   5.845  12.583  1.3282 -0.0962  0.8737
17861TIP3   OH274997   0.955   6.034  15.875  0.2305 -0.5767  0.5250
17861TIP3    H174998   0.987   6.124  15.887 -0.4390 -0.3662  0.7459
17861TIP3    H274999   0.983   6.010  15.787 -1.0109  0.4408 -0.1699
17862TIP3   OH275000   5.333   6.502  13.601  0.3449 -0.3721 -0.5386
17862TIP3    H175001   5.335   6.598  13.607 -1.3938 -0.3747  1.5238
17862TIP3    H275002   5.424   6.475  13.611  0.6398  1.0373  1.1152
17863TIP3   OH275003   4.290   4.523  14.102  0.0989 -0.2501 -0.5403
17863TIP3    H175004   4.291   4.606  14.056  1.2859 -0.6973 -1.3932
17863TIP3    H275005   4.292   4.457  14.032  2.9844 -0.9418  0.0702
17864TIP3   OH275006   0.714   6.175  12.076 -0.3497 -0.3498 -0.1875
17864TIP3    H175007   0.727   6.080  12.075 -0.3142 -0.3928  1.7293
17864TIP3    H275008   0.801   6.212  12.093 -0.6686 -0.0826  0.9382
17865TIP3   OH275009   2.368   0.707   5.563 -0.2593 -0.1684 -0.3163
17865TIP3    H175010   2.318   0.669   5.635 -0.4490 -1.1207 -0.9246
17865TIP3    H275011   2.380   0.635   5.501 -1.2476  0.9247 -1.8627
17866TIP3   OH275012   3.232   5.571  16.968  0.6805  0.6591 -0.1726
17866TIP3    H175013   3.258   5.638  17.031  1.9501 -0.2996  0.3866
17866TIP3    H275014   3.304   5.507  16.970  0.1521 -0.0396 -1.6700
17867TIP3   OH275015   2.436   6.360   3.596 -0.4744  0.1452 -0.3742
17867TIP3    H175016   2.508   6.300   3.575  0.6216  0.3977  2.1982
17867TIP3    H275017   2.359   6.304   3.603 -0.1224 -0.4498 -1.1793
17868TIP3   OH275018   6.157   0.848   5.364 -0.1093  0.1363 -0.3364
17868TIP3    H175019   6.125   0.921   5.311  0.8700 -1.1726 -2.8705
17868TIP3    H275020   6.101   0.850   5.442 -2.1493  1.7022 -1.7070
17869TIP3   OH275021   5.063   2.962   2.152  0.0534 -0.5517  0.4131
17869TIP3    H175022   5.034   3.053   2.152  1.1269 -0.1804  1.7741
17869TIP3    H275023   5.145   2.963   2.201  1.0520 -1.9710 -1.1136
17870TIP3   OH275024   5.904   4.998   0.105  0.6434 -0.0956  0.5454
17870TIP3    H175025   5.884   5.067   0.043  1.8321 -0.2602 -0.0504
17870TIP3    H275026   5.836   5.005   0.172  0.4533  1.3155  0.2353
17871TIP3   OH275027   6.016   5.800  15.627  0.0245 -0.1017  0.0549
17871TIP3    H175028   6.063   5.737  15.572 -0.4887 -0.6108  0.1936
17871TIP3    H275029   5.944   5.750  15.665  2.1679 -0.6645  3.8317
17872TIP3   OH275030   2.689   3.330   3.136 -0.0981 -0.2518 -0.5859
17872TIP3    H175031   2.723   3.369   3.217  1.2829 -1.9257 -0.2915
17872TIP3    H275032   2.594   3.346   3.140 -0.0094  0.0580  1.1758
17873TIP3   OH275033   0.830   4.684  16.590 -0.5147 -0.0988  0.2963
17873TIP3    H175034   0.742   4.662  16.559 -0.6909 -1.8060  1.8434
17873TIP3    H275035   0.815   4.737  16.669 -0.1713 -0.4600  0.6122
17874TIP3   OH275036   2.406   5.817   1.128 -0.2481 -0.6167 -0.0952
17874TIP3    H175037   2.403   5.744   1.066  0.3611  0.5344 -1.5552
17874TIP3    H275038   2.315   5.844   1.137 -0.2449 -0.0701 -1.4437
17875TIP3   OH275039   6.366   3.968  14.865 -0.0740 -0.1111 -0.0735
17875TIP3    H175040   6.293   3.907  14.854 -0.0790 -0.3475  1.0984
17875TIP3    H275041   6.438   3.912  14.896  1.1369 -0.1749 -2.7073
17876TIP3   OH275042   2.655   1.678  11.428  0.1878  0.1030  0.2775
17876TIP3    H175043   2.604   1.755  11.404  0.2416 -0.0293 -0.2546
17876TIP3    H275044   2.692   1.701  11.514 -2.4978 -0.6324  1.7564
17877TIP3   OH275045   2.953   1.508  13.309 -0.3159  0.0887 -0.0771
17877TIP3    H175046   2.919   1.450  13.377  0.5099  0.5409  0.7555
17877TIP3    H275047   2.881   1.518  13.247 -1.0803 -0.3785  0.7152
17878TIP3   OH275048   4.425   5.827  16.533  0.9111  0.7098 -0.0889
17878TIP3    H175049   4.368   5.903  16.545 -0.1823 -0.1125  0.0439
17878TIP3    H275050   4.461   5.810  16.619 -1.2036 -0.7130  0.6063
17879TIP3   OH275051   5.846   2.899   4.058  0.0962 -0.1481  0.1016
17879TIP3    H175052   5.778   2.858   4.004 -0.0858  0.3032 -0.0178
17879TIP3    H275053   5.822   2.875   4.148  1.1638 -2.0469 -0.0630
17880TIP3   OH275054   5.215   3.453   5.813  0.1612 -0.1515  0.2003
17880TIP3    H175055   5.170   3.525   5.769  0.6900 -1.0601 -1.9487
17880TIP3    H275056   5.266   3.495   5.882 -0.6356  1.3540 -0.0916
17881TIP3   OH275057   5.003   0.847   0.499 -0.2097 -0.0010 -0.2620
17881TIP3    H175058   4.990   0.905   0.425 -2.5669 -0.4430 -0.2837
17881TIP3    H275059   4.952   0.886   0.570  2.0369  0.4444  1.1947
17882TIP3   OH275060   4.451   0.077   1.994  0.3718  0.1501 -0.0365
17882TIP3    H175061   4.485   0.080   1.904 -2.1538  0.5955 -1.0729
17882TIP3    H275062   4.509   0.134   2.044  2.0803 -0.4344 -1.2708
17883TIP3   OH275063   2.759   3.692  11.904 -0.1191  0.1437 -0.1488
17883TIP3    H175064   2.842   3.734  11.880  0.0342  0.1527  0.3805
17883TIP3    H275065   2.744   3.628  11.835  0.7639 -0.4526  0.1966
17884TIP3   OH275066   4.011   2.099   5.278  0.3805 -0.6832  0.2077
17884TIP3    H175067   3.970   2.185   5.274  0.1259 -0.7893  0.4957
17884TIP3    H275068   4.029   2.085   5.371  0.1518 -1.0641  0.1976
17885TIP3   OH275069   5.159   4.185   3.569  0.1102 -0.2090  0.4446
17885TIP3    H175070   5.174   4.188   3.475  1.7265 -2.0680  0.5831
17885TIP3    H275071   5.089   4.249   3.584  1.1887  1.6084 -1.7035
17886TIP3   OH275072   0.462   0.785  15.110 -0.0581 -0.2604  0.1368
17886TIP3    H175073   0.445   0.704  15.063  2.2833 -1.4167  1.1233
17886TIP3    H275074   0.382   0.801  15.160 -0.3387 -2.3270  0.4166
17887TIP3   OH275075   2.999   6.446  14.253 -0.2992 -0.4960  0.3532
17887TIP3    H175076   2.918   6.435  14.203 -0.1495  0.5049 -0.1398
17887TIP3    H275077   3.017   6.359  14.289 -2.2898 -0.5001  1.5440
17888TIP3   OH275078   6.054   3.790  10.625 -0.5886  0.1930 -0.1110
17888TIP3    H175079   6.068   3.696  10.627  0.0583  0.2866  0.8266
17888TIP3    H275080   5.996   3.805  10.551 -1.3624 -1.0299  0.2267
17889TIP3   OH275081   3.989   3.478   4.694 -0.1484 -0.3259 -0.4111
17889TIP3    H175082   3.984   3.424   4.615 -1.9948 -0.3134 -0.3430
17889TIP3    H275083   4.035   3.423   4.758  1.7772 -0.1683 -1.5804
17890TIP3   OH275084   5.184   1.556  15.996  0.1962  0.8154  0.2040
17890TIP3    H175085   5.232   1.593  16.071 -0.9877  1.5426  0.6324
17890TIP3    H275086   5.219   1.602  15.920 -1.1342  2.8254  0.7099
17891TIP3   OH275087   1.103   3.803   0.872  0.2163 -0.1395  0.1128
17891TIP3    H175088   1.073   3.891   0.893  2.4728  0.3904  1.4038
17891TIP3    H275089   1.135   3.768   0.955  0.8175 -1.5647 -0.6892
17892TIP3   OH275090   6.653   3.311  13.521  0.2794 -0.5613  0.1219
17892TIP3    H175091   6.698   3.391  13.497  1.1981 -0.7983  0.9972
17892TIP3    H275092   6.624   3.325  13.611 -0.9117 -0.6370 -0.2233
17893TIP3   OH275093   2.551   3.361   5.420  0.5816 -0.1462 -0.1463
17893TIP3    H175094   2.566   3.379   5.327 -0.3559 -0.0320 -0.2765
17893TIP3    H275095   2.473   3.306   5.422  0.0702  0.5829  0.6329
17894TIP3   OH275096   4.580   6.169  11.140 -0.7836 -0.2883 -0.4817
17894TIP3    H175097   4.662   6.219  11.139 -0.6922 -0.4377 -0.3880
17894TIP3    H275098   4.528   6.211  11.209 -0.3420 -0.9065  0.2398
17895TIP3   OH275099   3.028   4.016   0.317  0.4006  0.5155  0.5227
17895TIP3    H175100   3.048   4.093   0.370 -0.2678  1.5312 -0.6679
17895TIP3    H275101   2.981   4.050   0.241 -1.2759 -1.2154  0.7133
17896TIP3   OH275102   2.356   4.528   0.526  0.0089  0.3275  0.1275
17896TIP3    H175103   2.313   4.536   0.441  1.3934  0.7690 -0.5751
17896TIP3    H275104   2.449   4.538   0.506  0.3475  0.6418  1.7305
17897TIP3   OH275105   5.619   3.706   5.912  0.5004  0.3160 -0.7910
17897TIP3    H175106   5.650   3.622   5.879  2.8400  0.3681  0.9955
17897TIP3    H275107   5.607   3.692   6.006 -3.1460  0.9177 -1.0128
17898TIP3   OH275108   2.757   3.957   6.252  0.2527 -0.2344  0.1871
17898TIP3    H175109   2.824   3.937   6.318 -0.2195 -0.6381  0.5536
17898TIP3    H275110   2.792   4.032   6.205  1.4563 -1.0758 -0.3207
17899TIP3   OH275111   0.906   2.909   5.659 -0.4013  0.0441  0.4840
17899TIP3    H175112   0.885   2.947   5.744  0.5501 -0.8153  1.1169
17899TIP3    H275113   0.981   2.961   5.628 -1.1961  0.8290 -0.1813
17900TIP3   OH275114   4.530   5.890  12.460 -0.0787  0.6208 -0.2376
17900TIP3    H175115   4.528   5.870  12.367 -0.1183 -0.8456  0.0561
17900TIP3    H275116   4.455   5.949  12.474 -0.6150  0.1238 -0.9731
17901TIP3   OH275117   1.702   0.756  12.035  0.0336 -0.2959 -0.0464
17901TIP3    H175118   1.778   0.771  11.979 -0.0488 -0.6008 -0.2453
17901TIP3    H275119   1.685   0.840  12.077  0.5262 -0.2468  0.0532
17902TIP3   OH275120   1.913   1.232   3.869  0.0715 -0.2566 -0.0455
17902TIP3    H175121   1.860   1.176   3.812  1.3627 -0.2392 -1.3096
17902TIP3    H275122   1.857   1.248   3.946 -2.4751  1.1806 -2.0286
17903TIP3   OH275123   3.951   5.416  11.240  0.7662  0.3426  0.1122
17903TIP3    H175124   4.005   5.378  11.171 -0.0359  1.9526 -1.4863
17903TIP3    H275125   3.990   5.501  11.258 -0.5138  1.0150 -0.1943
17904TIP3   OH275126   4.359   6.249   4.518 -0.4577  0.6693  0.4765
17904TIP3    H175127   4.347   6.302   4.440  1.0568  0.2011 -0.0976
17904TIP3    H275128   4.281   6.193   4.521  0.0438 -0.1728 -1.3847
17905TIP3   OH275129   2.497   0.729  17.056  0.2820 -0.2079 -0.2294
17905TIP3    H175130   2.590   0.705  17.057  0.3447  0.0289 -0.3781
17905TIP3    H275131   2.494   0.814  17.099  0.0613 -0.4665  0.2783
17906TIP3   OH275132   1.511   1.932   4.615 -0.2471  0.4317  0.4190
17906TIP3    H175133   1.604   1.949   4.625  0.2019 -0.0206 -2.3419
17906TIP3    H275134   1.505   1.840   4.593 -1.6242 -0.1605  2.9080
17907TIP3   OH275135   0.507   4.347  13.596  0.0263 -0.2718  0.0456
17907TIP3    H175136   0.566   4.401  13.543 -1.0139 -0.5918 -1.5166
17907TIP3    H275137   0.556   4.330  13.676  0.5642  2.6095  0.4262
17908TIP3   OH275138   1.716   4.308  16.344  0.0182  0.1389  0.4815
17908TIP3    H175139   1.772   4.340  16.274  0.2199  0.6215  0.8559
17908TIP3    H275140   1.740   4.361  16.420  0.3469 -0.9003  1.1232
17909TIP3   OH275141   0.355   1.660   1.794 -0.0738 -0.0547 -0.1565
17909TIP3    H175142   0.342   1.566   1.788 -1.6295  0.1298 -0.2849
17909TIP3    H275143   0.449   1.671   1.809  0.1974 -1.5913 -0.5510
17910TIP3   OH275144   2.306   6.540   0.044 -0.1794  0.1239 -0.0689
17910TIP3    H175145   2.229   6.590   0.071  0.2251  0.5965  0.2323
17910TIP3    H275146   2.372   6.561   0.110  0.2258 -0.2437 -0.3510
17911TIP3   OH275147   5.618   6.486  11.680 -0.3912  0.7064  0.1483
17911TIP3    H175148   5.569   6.439  11.749  0.8762 -0.2262  0.4530
17911TIP3    H275149   5.663   6.557  11.727  0.9280 -0.2736  0.4203
17912TIP3   OH275150   1.179   1.699  17.145 -0.6524 -0.0386 -0.0729
17912TIP3    H175151   1.251   1.670  17.201 -1.3394  0.0514  0.8820
17912TIP3    H275152   1.208   1.784  17.111 -1.2044  1.1175  2.1322
17913TIP3   OH275153   0.628   2.673  17.081 -0.0172  0.1754 -0.1359
17913TIP3    H175154   0.616   2.625  17.163  1.8298 -1.2547 -0.6458
17913TIP3    H275155   0.582   2.621  17.016  1.2033 -0.4688 -0.5239
17914TIP3   OH275156   1.876   4.873   1.985  0.1504  0.6618 -0.7792
17914TIP3    H175157   1.856   4.805   1.921  1.2370 -1.2593  0.7942
17914TIP3    H275158   1.869   4.829   2.069 -0.0845  2.8005  0.3834
17915TIP3   OH275159   0.985   1.822   1.933 -0.7490  0.4662 -0.1161
17915TIP3    H175160   0.948   1.878   2.001 -1.9664 -1.0320  0.5153
17915TIP3    H275161   1.041   1.761   1.981  0.3137  0.9161 -0.7551
17916TIP3   OH275162   1.292   5.317   0.142 -0.1919  0.4118 -0.0177
17916TIP3    H175163   1.267   5.293   0.053 -3.2080 -0.4928  0.9672
17916TIP3    H275164   1.229   5.385   0.167  1.6607  1.9037  0.9162
17917TIP3   OH275165   4.329   3.047   5.565 -0.2867 -0.4064  0.0214
17917TIP3    H175166   4.278   2.984   5.513 -0.8769 -0.2805  0.4352
17917TIP3    H275167   4.338   3.006   5.650  0.4968 -0.5175 -0.1117
17918TIP3   OH275168   0.895   0.437   0.671 -0.1819 -0.1949  0.3511
17918TIP3    H175169   0.846   0.381   0.732 -0.1903 -0.1028  0.4279
17918TIP3    H275170   0.916   0.515   0.722 -0.3516 -0.0372  0.1776
17919TIP3   OH275171   3.166   1.672  12.740  0.7916  0.1617  0.5800
17919TIP3    H175172   3.089   1.710  12.782  0.4967  1.6379 -1.1458
17919TIP3    H275173   3.169   1.582  12.771 -1.6798  0.0321  0.6358
17920TIP3   OH275174   3.482   5.123   3.577  0.1623 -0.0930  0.3229
17920TIP3    H175175   3.477   5.134   3.482  2.2098 -2.4403 -0.1775
17920TIP3    H275176   3.558   5.176   3.602  1.3043 -1.5427  0.1284
17921TIP3   OH275177   6.673   6.323   0.091 -0.0779 -0.1293 -0.0309
17921TIP3    H175178   6.744   6.274   0.049 -0.0055 -0.3719  0.3675
17921TIP3    H275179   6.622   6.256   0.137 -0.8655 -0.0300 -0.7263
17922TIP3   OH275180   4.302   1.113   3.566  0.4848 -0.2113 -0.5214
17922TIP3    H175181   4.317   1.205   3.541  0.5946 -0.5577 -1.7880
17922TIP3    H275182   4.264   1.118   3.654 -1.4196  1.1538 -1.3515
17923TIP3   OH275183   6.715   3.277  12.157 -0.6328 -0.2045  0.3991
17923TIP3    H175184   6.669   3.237  12.230  0.1530  1.2999  1.8085
17923TIP3    H275185   6.680   3.366  12.152 -0.1913 -0.0695 -0.6174
17924TIP3   OH275186   1.007   2.958  14.386  0.0311 -0.2479 -0.0349
17924TIP3    H175187   0.924   2.911  14.390  0.0960 -0.3504  0.1668
17924TIP3    H275188   0.984   3.047  14.360 -0.0297 -0.5457 -1.0308
17925TIP3   OH275189   3.344   3.683  12.838 -0.1509  0.7522  0.1178
17925TIP3    H175190   3.353   3.711  12.746  2.6719  0.1493  0.0991
17925TIP3    H275191   3.405   3.740  12.885 -1.0104  0.5317  1.5240
17926TIP3   OH275192   0.965   3.340  17.068 -0.3589  0.3546 -0.0203
17926TIP3    H175193   1.005   3.298  17.144 -2.1363 -1.3072  0.0874
17926TIP3    H275194   0.894   3.281  17.043 -0.4617  1.3601 -2.3665
17927TIP3   OH275195   6.586   3.678  10.835 -0.6130  0.9298 -0.0274
17927TIP3    H175196   6.522   3.662  10.905  2.2283  1.9421  3.0495
17927TIP3    H275197   6.630   3.594  10.823  0.1248  1.1807  0.8028
17928TIP3   OH275198   3.691   1.596  16.712 -0.1463 -0.4934 -0.1189
17928TIP3    H175199   3.601   1.566  16.699 -0.4795  0.6008 -0.3972
17928TIP3    H275200   3.740   1.516  16.732 -1.6105 -0.8478  2.5245
17929TIP3   OH275201   2.319   4.280   3.030  0.2472 -0.0443 -0.0125
17929TIP3    H175202   2.365   4.205   3.069  1.4871  0.8078  0.2660
17929TIP3    H275203   2.235   4.284   3.076  0.2607 -1.1247  0.1168
17930TIP3   OH275204   5.546   0.816  14.529  0.6280  0.5650  0.3747
17930TIP3    H175205   5.533   0.801  14.623 -2.1469 -2.5174 -0.3210
17930TIP3    H275206   5.625   0.766  14.507 -0.2032 -0.9144  0.6650
17931TIP3   OH275207   6.510   4.844   5.236  0.1741 -0.6271  0.1226
17931TIP3    H175208   6.503   4.828   5.142  2.4974  0.9797 -0.3904
17931TIP3    H275209   6.505   4.756   5.275 -0.1023 -1.3870 -1.5307
17932TIP3   OH275210   6.186   2.040  12.580  0.0437  0.1044  0.6568
17932TIP3    H175211   6.163   2.036  12.673 -0.4889 -0.8494  0.4913
17932TIP3    H275212   6.219   1.952  12.560 -2.2137 -0.5205 -0.6572
17933TIP3   OH275213   2.317   3.734   5.789 -0.4517  0.1467 -0.5273
17933TIP3    H175214   2.357   3.647   5.791 -2.1292 -0.6483  0.6633
17933TIP3    H275215   2.365   3.784   5.854  0.7126  0.2341 -1.4178
17934TIP3   OH275216   4.056   2.771   5.138 -0.2392  0.3728  0.4188
17934TIP3    H175217   4.141   2.744   5.173 -0.4023 -1.0288 -0.1965
17934TIP3    H275218   4.019   2.691   5.101 -2.2340  0.7417  1.4691
17935TIP3   OH275219   6.025   2.845   4.402  0.2698 -1.0143  0.1243
17935TIP3    H175220   6.063   2.929   4.428  0.6637 -0.7986 -1.0651
17935TIP3    H275221   6.080   2.815   4.329  0.5067 -2.6124  0.9127
17936TIP3   OH275222   2.458   3.661   5.082  0.2258  0.3329  0.4953
17936TIP3    H175223   2.523   3.649   5.012 -1.7074  0.5808 -1.4577
17936TIP3    H275224   2.434   3.572   5.107 -1.6440  0.0780 -1.8016
17937TIP3   OH275225   3.335   3.850  12.629  0.2311 -0.3144 -0.3341
17937TIP3    H175226   3.303   3.936  12.656  1.4838  0.7662 -2.1009
17937TIP3    H275227   3.274   3.821  12.561  0.0030 -0.6905  0.0230
17938TIP3   OH275228   2.852   2.629   0.136 -0.0232  0.6345 -0.2044
17938TIP3    H175229   2.822   2.718   0.155  0.1411  0.8564 -0.9712
17938TIP3    H275230   2.874   2.630   0.043 -2.4427 -0.8603 -0.9084
17939TIP3   OH275231   1.247   4.871   2.737 -0.2510  0.6242 -0.0678
17939TIP3    H175232   1.228   4.794   2.790  0.0786  1.5021  1.3951
17939TIP3    H275233   1.163   4.916   2.728 -0.2265  0.7096  0.1176
17940TIP3   OH275234   4.786   2.324  11.628 -0.3210  0.4005 -0.0856
17940TIP3    H175235   4.749   2.312  11.541  0.5868  0.5285 -0.5007
17940TIP3    H275236   4.787   2.236  11.666  1.7799 -0.1611 -1.2568
17941TIP3   OH275237   3.952   3.712   2.180 -0.0433 -0.4191  0.2194
17941TIP3    H175238   3.967   3.789   2.125 -0.5869 -0.9118 -0.6419
17941TIP3    H275239   4.031   3.659   2.167 -0.2642 -0.6370 -0.2792
17942TIP3   OH275240   6.572   4.249  14.105 -0.1477  0.0448  0.4187
17942TIP3    H175241   6.535   4.332  14.076  1.1033  0.2888 -0.5606
17942TIP3    H275242   6.496   4.196  14.129 -1.1293  0.6005 -1.3153
17943TIP3   OH275243   6.318   5.227  15.511  0.4698  0.8634  0.2555
17943TIP3    H175244   6.408   5.196  15.514  0.0410 -0.8283 -1.6062
17943TIP3    H275245   6.301   5.244  15.418 -1.0586  1.3185  0.5791
17944TIP3   OH275246   4.773   3.059   4.686  0.4976 -0.0654  0.5811
17944TIP3    H175247   4.712   3.022   4.623  0.2279  1.2922  0.0298
17944TIP3    H275248   4.747   3.020   4.770  0.6104 -1.5773 -0.0402
17945TIP3   OH275249   5.480   5.738   5.909  0.2697 -0.4026  0.1808
17945TIP3    H175250   5.555   5.780   5.952 -0.5953  1.2350  0.1273
17945TIP3    H275251   5.421   5.715   5.981  0.2129 -0.4869  0.1074
17946TIP3   OH275252   6.105   2.035  10.841 -0.0527  0.5028 -0.0181
17946TIP3    H175253   6.187   2.044  10.794  0.2811  0.8723  0.6130
17946TIP3    H275254   6.112   1.952  10.888  0.6416  1.2451  1.2775
17947TIP3   OH275255   3.483   2.813  15.877  0.3683 -0.3588 -0.0477
17947TIP3    H175256   3.568   2.854  15.892  0.6477 -0.7611 -0.5018
17947TIP3    H275257   3.458   2.841  15.788 -0.6550  0.9374  0.6040
17948TIP3   OH275258   4.000   2.641  15.641 -0.2067 -0.0233  0.1786
17948TIP3    H175259   4.004   2.546  15.653 -1.5099 -0.0843  0.3083
17948TIP3    H275260   3.910   2.657  15.611  0.8830  0.8172 -3.1396
17949TIP3   OH275261   5.059   6.596   0.368  0.2439 -0.2165  0.1907
17949TIP3    H175262   5.064   6.504   0.392  0.3694 -0.2916 -0.1214
17949TIP3    H275263   4.969   6.621   0.389  0.3856 -0.2459  0.8498
17950TIP3   OH275264   1.856   2.170  12.213  0.1812  0.0105  0.4403
17950TIP3    H175265   1.785   2.180  12.151 -1.3779 -1.3842  1.8927
17950TIP3    H275266   1.928   2.222  12.177 -1.1271  0.4016 -1.7320
17951TIP3   OH275267   6.056   1.991   1.123 -0.0799 -0.3928 -0.0049
17951TIP3    H175268   6.070   1.913   1.070  0.9891 -0.1461 -0.1163
17951TIP3    H275269   6.104   2.060   1.077 -2.3068  0.7492 -0.8147
17952TIP3   OH275270   2.117   0.784  15.277 -0.1591 -0.7931 -0.6124
17952TIP3    H175271   2.141   0.745  15.361 -1.1007 -0.1682 -0.0290
17952TIP3    H275272   2.111   0.878  15.295  0.4294 -0.5661 -1.5818
17953TIP3   OH275273   1.000   5.725   1.611  0.3721  0.1632  0.7442
17953TIP3    H175274   0.915   5.746   1.650 -0.6414  2.3126 -2.2458
17953TIP3    H275275   1.058   5.796   1.638 -0.3673  1.7282 -1.5287
17954TIP3   OH275276   1.975   0.066   4.225 -0.3361 -0.0093 -0.1987
17954TIP3    H175277   1.993  -0.021   4.188 -0.2614  0.4966 -1.4011
17954TIP3    H275278   1.931   0.113   4.154  1.2927  1.5485 -0.2424
17955TIP3   OH275279   5.594   5.651   0.229  0.3057  0.0751 -0.3724
17955TIP3    H175280   5.617   5.614   0.144  1.9602  0.9138 -0.3266
17955TIP3    H275281   5.602   5.745   0.217 -0.7111  0.2653  0.3739
17956TIP3   OH275282   1.948   2.700  12.789  0.2591  0.5343  0.4103
17956TIP3    H175283   1.883   2.644  12.831  0.0375  0.4032 -0.0948
17956TIP3    H275284   1.896   2.769  12.747  0.5423  1.1983  1.1477
17957TIP3   OH275285   6.027   4.922   0.973 -0.3870 -0.2400  0.8086
17957TIP3    H175286   6.115   4.936   1.007 -0.8735  0.4845  1.8153
17957TIP3    H275287   6.039   4.921   0.878  0.4146  2.3640  0.7942
17958TIP3   OH275288   0.562   4.324   5.687  0.3309 -0.3674 -0.3720
17958TIP3    H175289   0.639   4.374   5.712  0.7224 -0.9623 -0.3581
17958TIP3    H275290   0.529   4.289   5.770  0.0026 -0.0530 -0.3695
17959TIP3   OH275291   1.793   0.551  15.917 -0.6036  0.5511 -0.1983
17959TIP3    H175292   1.888   0.558  15.926 -0.2678 -1.1642 -1.6894
17959TIP3    H275293   1.758   0.623  15.970  1.3155 -1.3308  4.1118
17960TIP3   OH275294   1.474   4.506  15.555  0.2450 -0.0375 -0.4625
17960TIP3    H175295   1.382   4.483  15.564  0.0529 -0.4687 -2.7669
17960TIP3    H275296   1.520   4.422  15.556  0.0845 -0.2859 -3.6553
17961TIP3   OH275297   4.907   4.362   3.611  0.1576  0.0933  0.3656
17961TIP3    H175298   4.834   4.331   3.558  0.9585 -0.1821 -0.6023
17961TIP3    H275299   4.878   4.350   3.701 -0.5115 -1.1705  0.0036
17962TIP3   OH275300   3.762   0.599   3.643 -0.0698 -0.1750  0.7069
17962TIP3    H175301   3.770   0.505   3.655  0.0924 -0.2598 -0.0430
17962TIP3    H275302   3.749   0.611   3.549  2.7820  0.7400  0.3244
17963TIP3   OH275303   6.561   4.060   1.869 -0.1338  0.2493  0.4068
17963TIP3    H175304   6.609   4.135   1.836  0.2503 -0.6223 -1.1127
17963TIP3    H275305   6.628   4.003   1.907 -0.3777  0.4628  1.1920
17964TIP3   OH275306   3.155   2.964   3.782  0.3264  0.8530 -0.1436
17964TIP3    H175307   3.203   3.046   3.796  1.0112  0.4967 -0.4025
17964TIP3    H275308   3.075   2.991   3.736  1.0325  1.2602 -1.1573
17965TIP3   OH275309   0.856   2.299   6.136 -0.1333  0.2295  0.1392
17965TIP3    H175310   0.914   2.296   6.060 -0.7106 -1.4053 -0.2793
17965TIP3    H275311   0.872   2.216   6.182 -2.3057 -0.4455 -0.1688
17966TIP3   OH275312   3.151   2.600  16.487  0.4017 -0.0291 -0.7919
17966TIP3    H175313   3.136   2.563  16.400  1.6562  0.9739 -1.4890
17966TIP3    H275314   3.154   2.695  16.472 -0.5587  0.2411  0.5621
17967TIP3   OH275315   1.591   1.114   0.613  0.4451  0.6222  0.1177
17967TIP3    H175316   1.546   1.171   0.674  0.0552 -1.2342  1.6640
17967TIP3    H275317   1.531   1.040   0.600 -0.0619  1.4780 -3.5540
17968TIP3   OH275318   0.828   0.336  14.879 -0.4844  0.2048  0.9347
17968TIP3    H175319   0.775   0.389  14.819 -0.5368 -1.0207 -0.1371
17968TIP3    H275320   0.918   0.349  14.848 -0.1459  1.8845  2.4423
17969TIP3   OH275321   6.314   5.634   5.833 -0.3849 -0.5910 -0.2670
17969TIP3    H175322   6.233   5.677   5.860 -0.7339 -1.1164 -0.4570
17969TIP3    H275323   6.363   5.620   5.914  0.9893  2.5480 -0.3968
17970TIP3   OH275324   6.337   3.911  11.005 -0.1554 -0.3391  0.5911
17970TIP3    H175325   6.377   3.867  11.080 -0.7988 -1.5948  0.2368
17970TIP3    H275326   6.392   3.988  10.990  0.1062 -0.1720  2.1992
17971TIP3   OH275327   3.196   5.679   5.424 -0.3937 -0.0146  0.3801
17971TIP3    H175328   3.215   5.764   5.463  0.2023 -1.2074  2.8418
17971TIP3    H275329   3.270   5.663   5.365 -0.6191  1.2138 -0.2821
17972TIP3   OH275330   6.132   0.162  11.687 -0.4645  0.4977  0.1530
17972TIP3    H175331   6.085   0.235  11.727 -1.0320  0.2834 -0.1135
17972TIP3    H275332   6.069   0.089  11.688 -0.1009  0.1749 -0.1005
17973TIP3   OH275333   1.908   3.322  15.228 -0.5734 -0.5131 -0.3125
17973TIP3    H175334   1.865   3.311  15.143 -0.5855  1.0178 -0.5217
17973TIP3    H275335   1.970   3.394  15.215 -0.8284 -0.0182  1.0624
17974TIP3   OH275336   4.599   0.193  14.401 -0.0059  0.7438  0.4490
17974TIP3    H175337   4.554   0.115  14.434  1.2183 -0.0207  0.3752
17974TIP3    H275338   4.654   0.221  14.474  1.7024 -0.1606 -0.4533
17975TIP3   OH275339   2.485   4.424  15.314 -0.7742  0.7123  0.0511
17975TIP3    H175340   2.513   4.389  15.398  0.7439  0.9326 -0.3340
17975TIP3    H275341   2.423   4.358  15.280  1.0617 -1.0467 -0.0996
17976TIP3   OH275342   2.924   4.439  14.397  0.7929  0.4940 -0.3814
17976TIP3    H175343   2.966   4.395  14.323  1.7616  1.4249 -0.4077
17976TIP3    H275344   2.955   4.529  14.393 -1.1892  1.2442 -0.3634
17977TIP3   OH275345   6.559   3.101   3.254 -0.4460  0.1985 -0.5746
17977TIP3    H175346   6.555   3.128   3.345 -0.4677 -0.1149 -0.4800
17977TIP3    H275347   6.486   3.040   3.243  1.7377 -2.8003  0.2451
17978TIP3   OH275348   4.093   0.960  12.736 -0.1717 -0.0637  0.1529
17978TIP3    H175349   4.131   0.904  12.669  1.0552  0.0460  0.7304
17978TIP3    H275350   4.047   1.029  12.688  0.5030 -0.1069 -0.5691
17979TIP3   OH275351   4.255   4.447   1.937 -0.2296  0.1752  0.2384
17979TIP3    H175352   4.285   4.510   1.870  0.5504 -0.1018  0.3205
17979TIP3    H275353   4.323   4.380   1.939 -1.5612 -1.2718 -0.6141
17980TIP3   OH275354   4.173   0.764  14.738  0.2237  0.3776 -0.0976
17980TIP3    H175355   4.128   0.727  14.814  1.1319  0.4771  0.5041
17980TIP3    H275356   4.156   0.858  14.743 -1.8121  0.1353 -1.4453
17981TIP3   OH275357   3.164   3.781   1.763  0.2269 -0.5669 -0.0678
17981TIP3    H175358   3.215   3.848   1.719  0.9830 -1.7439 -1.0280
17981TIP3    H275359   3.205   3.771   1.849  0.1865  0.0943  0.0303
17982TIP3   OH275360   2.289   2.214  15.237 -0.3581  0.1379  0.0302
17982TIP3    H175361   2.306   2.120  15.237  0.7131  0.3198  0.2825
17982TIP3    H275362   2.222   2.226  15.170 -1.7101 -1.0045  1.1069
17983TIP3   OH275363   0.165   2.893  13.789 -0.0186 -0.4221 -0.2523
17983TIP3    H175364   0.228   2.960  13.816  0.0489 -1.0189  1.1543
17983TIP3    H275365   0.192   2.870  13.700  0.1255  1.1980 -0.6645
17984TIP3   OH275366   5.432   0.676   5.350 -0.3713  0.5922 -0.1394
17984TIP3    H175367   5.373   0.724   5.409  0.2108 -0.6023  1.4862
17984TIP3    H275368   5.397   0.694   5.262 -2.4832  0.8237  0.6701
17985TIP3   OH275369   3.952   2.085   1.996 -0.0478  0.6867  0.1218
17985TIP3    H175370   3.971   2.175   1.970 -1.0363  0.5035 -1.3083
17985TIP3    H275371   3.972   2.032   1.919  0.3599 -0.3165  0.8845
17986TIP3   OH275372   1.349   6.616   3.647  0.2196 -0.1260  0.0657
17986TIP3    H175373   1.263   6.599   3.608  0.3458 -1.2925  0.2655
17986TIP3    H275374   1.411   6.600   3.577  0.4321 -2.0061  0.6416
17987TIP3   OH275375   5.922   4.385   4.250  0.4051  0.6229  0.2721
17987TIP3    H175376   5.872   4.304   4.263 -0.1444  0.9489  0.1885
17987TIP3    H275377   6.005   4.369   4.295  1.6486 -1.2424 -2.4215
17988TIP3   OH275378   0.599   4.055  11.160  0.3691  0.0352 -0.4061
17988TIP3    H175379   0.674   4.075  11.105  1.0802  1.0915  0.8840
17988TIP3    H275380   0.591   4.130  11.218 -0.9029 -0.6325  0.3309
17989TIP3   OH275381   5.963   3.964   1.741 -0.4541  0.0632 -0.9173
17989TIP3    H175382   6.026   3.912   1.790 -1.5520 -1.2175 -0.7655
17989TIP3    H275383   5.949   3.914   1.660 -1.0236  0.4764 -1.0867
17990TIP3   OH275384   2.340   4.758  12.284 -0.1358 -0.3644  0.4955
17990TIP3    H175385   2.418   4.737  12.234 -0.1457 -1.5660  0.9517
17990TIP3    H275386   2.371   4.766  12.374 -0.2328  1.0840  0.4230
17991TIP3   OH275387   6.654   0.125  10.683 -0.0694 -0.5619 -0.6663
17991TIP3    H175388   6.561   0.121  10.703  0.1817 -1.8313  0.3867
17991TIP3    H275389   6.688   0.196  10.738 -0.0826 -1.4496  0.5411
17992TIP3   OH275390   2.073   2.436  14.823 -0.2196 -0.4956  0.5447
17992TIP3    H175391   1.981   2.427  14.798  0.1011  0.2263 -1.0020
17992TIP3    H275392   2.121   2.429  14.741  1.2244 -2.0283  1.4659
17993TIP3   OH275393   5.443   3.461   1.403 -0.1837 -0.2097 -0.2028
17993TIP3    H175394   5.425   3.478   1.310 -0.5309 -1.8981 -0.4910
17993TIP3    H275395   5.417   3.541   1.448 -1.0466  0.2506 -1.4647
17994TIP3   OH275396   0.507   2.660   5.104  0.3265 -0.7906 -0.2010
17994TIP3    H175397   0.597   2.629   5.104  0.5286 -0.2139  0.4576
17994TIP3    H275398   0.512   2.750   5.069  0.2335 -0.1594  1.3394
17995TIP3   OH275399   1.679   6.534   4.753 -0.0581  0.1303 -0.3213
17995TIP3    H175400   1.702   6.525   4.846 -2.1154  1.7685  0.4359
17995TIP3    H275401   1.630   6.454   4.733  3.3352 -1.9209 -1.0982
17996TIP3   OH275402   1.596   6.428  11.309  0.2591 -0.5744  0.2825
17996TIP3    H175403   1.600   6.415  11.404 -1.2230 -0.4657  0.3922
17996TIP3    H275404   1.596   6.339  11.273 -0.8643 -0.6801  0.5028
17997TIP3   OH275405   0.051   5.320   1.246 -0.8103 -0.0291 -0.3146
17997TIP3    H175406   0.030   5.305   1.154 -0.6067 -1.1453 -0.2005
17997TIP3    H275407   0.125   5.262   1.264 -1.2843 -0.3542  0.7149
17998TIP3   OH275408   6.268   3.169   4.192  0.2615  0.0015 -0.3040
17998TIP3    H175409   6.272   3.264   4.207  0.8433 -0.2713  1.6716
17998TIP3    H275410   6.178   3.153   4.164 -0.2517  0.9977  0.6858
17999TIP3   OH275411   0.411   0.233   0.632 -0.3242  0.0977  0.2131
17999TIP3    H175412   0.445   0.278   0.554  1.4380 -0.8098  0.4071
17999TIP3    H275413   0.384   0.147   0.600 -1.8573  0.5679  0.1929
18000TIP3   OH275414   3.535   0.090   0.335 -0.4686  0.0148 -0.3792
18000TIP3    H175415   3.478   0.160   0.367  0.0504  0.2130  0.1226
18000TIP3    H275416   3.523   0.091   0.240 -0.9882  0.3286 -0.3128
18001TIP3   OH275417   3.605   3.541  12.023 -0.5651  0.3237 -0.2024
18001TIP3    H175418   3.568   3.587  11.948 -0.5671  0.0207 -0.3895
18001TIP3    H275419   3.687   3.503  11.990 -0.0436  1.0438  0.2252
18002TIP3   OH275420   3.222   1.914  15.264  0.1560 -0.2946 -0.3082
18002TIP3    H175421   3.277   1.864  15.203 -1.0305 -0.5601 -1.2187
18002TIP3    H275422   3.135   1.874  15.255 -0.0603 -0.3183  1.5636
18003TIP3   OH275423   2.557   2.494   0.959  0.0446  0.4820 -0.7516
18003TIP3    H175424   2.511   2.452   1.032  0.0825  1.1196 -0.3512
18003TIP3    H275425   2.625   2.547   1.001  0.2008  0.6916 -1.2645
18004TIP3   OH275426   5.085   4.267   0.706 -0.4821  0.1052 -0.2237
18004TIP3    H175427   5.112   4.330   0.773 -0.6717 -0.8242  0.7670
18004TIP3    H275428   5.033   4.202   0.754  0.5766 -1.3778 -1.0013
18005TIP3   OH275429   5.405   0.416  16.038  0.2977 -0.5718 -0.1073
18005TIP3    H175430   5.370   0.423  15.949  1.2186  0.8840 -0.3836
18005TIP3    H275431   5.347   0.353  16.082 -0.0487 -1.4701 -1.7822
18006TIP3   OH275432   1.371   6.487   0.985  0.5345 -0.5649 -0.4657
18006TIP3    H175433   1.440   6.450   1.040 -0.9140  0.4743  2.2757
18006TIP3    H275434   1.316   6.412   0.962 -0.5482 -0.7117  2.2420
18007TIP3   OH275435   0.062   0.884   0.629 -0.7121 -0.0558 -0.5872
18007TIP3    H175436   0.112   0.944   0.685 -2.2391  0.6391  0.0968
18007TIP3    H275437   0.128   0.828   0.589  0.7261  1.6440 -0.7290
18008TIP3   OH275438   1.146   6.314   2.054 -0.4487  0.5736  0.5671
18008TIP3    H175439   1.113   6.225   2.044  2.1248 -0.3744 -0.1051
18008TIP3    H275440   1.112   6.342   2.139 -1.6405 -0.8609  0.6127
18009TIP3   OH275441   3.491   4.187  15.900  0.1276  0.4656 -0.0098
18009TIP3    H175442   3.582   4.215  15.889  0.0834  0.8672  0.6064
18009TIP3    H275443   3.440   4.259  15.861  0.0599  0.4483  0.0483
18010TIP3   OH275444   2.906   3.249   0.195 -0.6988 -0.3597 -0.1707
18010TIP3    H175445   2.984   3.218   0.240 -0.1895  0.1215 -0.6898
18010TIP3    H275446   2.908   3.204   0.111  1.3818  2.6546 -1.9731
18011TIP3   OH275447   1.265   2.031   3.056 -0.4089 -0.3568 -0.2807
18011TIP3    H175448   1.325   2.102   3.033 -1.6140  0.3731 -1.2501
18011TIP3    H275449   1.202   2.028   2.984 -0.9055 -1.8420  0.1738
18012TIP3   OH275450   1.439   0.489  13.998  0.2745 -0.5762  0.3015
18012TIP3    H175451   1.476   0.576  13.980  2.6971 -1.5352  0.3470
18012TIP3    H275452   1.356   0.488  13.950  1.1935  1.0074 -1.4472
18013TIP3   OH275453   4.682   6.572   5.578  0.2950 -0.2404 -0.0848
18013TIP3    H175454   4.715   6.661   5.590 -1.2842  0.5586 -1.2629
18013TIP3    H275455   4.608   6.566   5.639 -0.4689 -0.2308 -0.9891
18014TIP3   OH275456   6.261   6.529   4.145  0.4646  0.0882  0.0498
18014TIP3    H175457   6.264   6.525   4.049  0.2250 -1.1769  0.0757
18014TIP3    H275458   6.258   6.623   4.165 -2.9195  0.4237 -1.3217
18015TIP3   OH275459   0.637   5.012  13.640 -0.6880  0.2071  0.3678
18015TIP3    H175460   0.648   4.963  13.559  1.7523  0.0911  0.6892
18015TIP3    H275461   0.705   4.978  13.698 -1.9477  0.7485  2.2477
18016TIP3   OH275462   0.538   0.932   1.033 -0.2152 -0.1241 -0.2013
18016TIP3    H175463   0.610   0.969   0.982  1.0712 -1.0061  0.9128
18016TIP3    H275464   0.561   0.951   1.124 -1.4773 -0.2806  0.1640
18017TIP3   OH275465   3.286   5.841  16.545 -0.2922  0.7105  0.1041
18017TIP3    H175466   3.371   5.885  16.554 -0.1933  0.3349  1.1418
18017TIP3    H275467   3.228   5.890  16.603 -1.2639  2.0614 -1.8933
18018TIP3   OH275468   0.190   2.859   3.392  0.3752 -1.1091  0.4695
18018TIP3    H175469   0.280   2.888   3.376  0.7798 -2.6070 -0.2070
18018TIP3    H275470   0.190   2.828   3.482  0.7753 -1.8924  0.2060
18019TIP3   OH275471   0.379   3.069  14.240  0.5153 -0.3914  0.1717
18019TIP3    H175472   0.432   3.143  14.268  1.9835 -0.9661 -0.9428
18019TIP3    H275473   0.321   3.052  14.313  0.5291  1.4897  0.6788
18020TIP3   OH275474   0.363   4.078  13.135 -0.7115 -0.4956 -0.6433
18020TIP3    H175475   0.419   4.051  13.062  0.9822  1.1436 -0.0277
18020TIP3    H275476   0.423   4.089  13.208 -2.1960 -0.8389  0.6727
18021TIP3   OH275477   3.645   4.368  14.790  0.6289  0.0719 -0.0188
18021TIP3    H175478   3.698   4.398  14.717 -0.1275  2.6898  0.3837
18021TIP3    H275479   3.559   4.408  14.775 -0.6747 -2.3392  0.4286
18022TIP3   OH275480   5.131   0.136   0.505 -0.1673  0.0939  0.4830
18022TIP3    H175481   5.051   0.084   0.493 -0.3369  0.2275  1.0265
18022TIP3    H275482   5.199   0.086   0.460 -0.2915 -0.6906  1.1487
18023TIP3   OH275483   4.077   3.214  15.731 -0.1040 -0.4120  0.0478
18023TIP3    H175484   4.147   3.271  15.698  0.5897 -1.0256  0.4436
18023TIP3    H275485   4.111   3.180  15.814 -1.9548  1.4172  1.6943
18024TIP3   OH275486   3.876   2.282   6.515  0.0415 -0.0477  0.3752
18024TIP3    H175487   3.946   2.304   6.453  0.0048  0.5419  0.5359
18024TIP3    H275488   3.874   2.357   6.576 -0.8480  0.0196  0.2648
18025TIP3   OH275489   3.026   3.614   0.750  0.1999  0.0431  0.2705
18025TIP3    H175490   3.036   3.568   0.666  0.3267  1.1931 -0.3569
18025TIP3    H275491   2.936   3.594   0.777  0.6082 -1.5237  0.6126
18026TIP3   OH275492   6.316   5.087  15.833 -0.4563 -0.2385  0.1365
18026TIP3    H175493   6.368   5.132  15.766  0.2997  0.1354  0.9525
18026TIP3    H275494   6.228   5.121  15.821  0.3914  2.9087  1.8541
18027TIP3   OH275495   1.328   0.330   3.554  0.1042  0.3076  0.2089
18027TIP3    H175496   1.368   0.284   3.480 -0.4981 -0.9213  0.6180
18027TIP3    H275497   1.285   0.261   3.604 -0.4162  1.2726  1.1194
18028TIP3   OH275498   0.152   0.310  13.181  0.2469 -0.5882 -0.3285
18028TIP3    H175499   0.169   0.217  13.195 -0.8741 -0.7873 -0.2320
18028TIP3    H275500   0.081   0.313  13.117 -0.1321  0.1824  0.1122
18029TIP3   OH275501   4.874   1.330  17.144  0.0653  0.1630  0.1358
18029TIP3    H175502   4.793   1.369  17.109 -1.1048 -1.4902  0.8797
18029TIP3    H275503   4.852   1.309  17.235  0.9776 -1.3079  0.0324
18030TIP3   OH275504   1.605   1.782   0.211 -0.2464 -0.2578  0.7695
18030TIP3    H175505   1.672   1.842   0.246  0.2500 -0.0772 -0.4274
18030TIP3    H275506   1.542   1.840   0.168 -0.7440 -0.4884  1.1770
18031TIP3   OH275507   0.506   2.767  13.627 -0.1671 -0.3049  0.1704
18031TIP3    H175508   0.417   2.777  13.594  0.3455 -1.2368 -1.5964
18031TIP3    H275509   0.526   2.675  13.614  0.0065 -0.8546  3.4242
18032TIP3   OH275510   6.467   4.353   1.940  0.4713 -0.0318  0.4293
18032TIP3    H175511   6.426   4.358   2.026 -1.7953  0.3371 -0.5918
18032TIP3    H275512   6.450   4.263   1.911 -0.6007  0.4210 -0.4253
18033TIP3   OH275513   2.851   4.703  12.097 -0.6478 -0.1647  1.0100
18033TIP3    H175514   2.839   4.758  12.175 -0.6348  2.0048 -0.4254
18033TIP3    H275515   2.932   4.736  12.057 -0.0790 -1.9491  0.6175
18034TIP3   OH275516   6.776   6.621  14.843 -0.1784  0.6361 -0.0946
18034TIP3    H175517   6.757   6.576  14.760  1.3640 -0.0598 -0.1075
18034TIP3    H275518   6.690   6.640  14.880 -0.9366 -1.9106 -0.3492
18035TIP3   OH275519   1.079   1.231  14.085 -0.1712 -0.3313  0.5847
18035TIP3    H175520   1.055   1.216  13.994  1.3257  1.1246 -0.1007
18035TIP3    H275521   1.075   1.326  14.096  2.9817 -0.1386  0.9815
18036TIP3   OH275522   4.843   0.347   4.313  0.0794 -0.0212  0.0679
18036TIP3    H175523   4.757   0.323   4.347 -0.0204 -0.1635 -0.2813
18036TIP3    H275524   4.824   0.396   4.233  0.3125  0.3314  0.2226
18037TIP3   OH275525   1.787   3.233  12.202 -0.0653  0.0425  0.4115
18037TIP3    H175526   1.695   3.239  12.176  0.0931  1.0604  0.0191
18037TIP3    H275527   1.814   3.145  12.175  0.0241  0.9114 -2.7967
18038TIP3   OH275528   3.825   6.488  11.413  0.4270 -0.3375 -0.6039
18038TIP3    H175529   3.861   6.576  11.427  0.5717 -0.2021 -1.7840
18038TIP3    H275530   3.733   6.502  11.394  0.5508 -0.3982 -1.2650
18039TIP3   OH275531   5.460   4.188  15.731  0.2723  0.0951  0.2725
18039TIP3    H175532   5.505   4.271  15.748  0.3704 -0.4435  3.3746
18039TIP3    H275533   5.370   4.214  15.708  0.8318  1.0698 -0.9179
18040TIP3   OH275534   4.927   2.248  11.282  0.2114  0.7021 -0.2059
18040TIP3    H175535   4.873   2.170  11.285  0.2037  0.6979 -0.4719
18040TIP3    H275536   4.996   2.229  11.218  0.8604  0.4978  0.5325
18041TIP3   OH275537   2.340   4.668  13.512 -0.1268  0.5340 -0.0066
18041TIP3    H175538   2.306   4.698  13.597 -0.5239 -1.1854  0.4876
18041TIP3    H275539   2.359   4.748  13.464 -1.0039  1.5529  1.2731
18042TIP3   OH275540   6.491   0.173   4.459  0.2577  0.1413  0.3986
18042TIP3    H175541   6.561   0.232   4.432  0.0372 -0.3469 -1.3389
18042TIP3    H275542   6.483   0.187   4.554  2.1343  0.7912  0.4969
18043TIP3   OH275543   1.583   1.671   3.088 -0.3802 -0.0598  0.1875
18043TIP3    H175544   1.567   1.764   3.069  2.4229  0.8725  1.7498
18043TIP3    H275545   1.539   1.624   3.018 -1.6352  2.4606 -0.8416
18044TIP3   OH275546   5.986   5.740   0.828  0.5442  0.0587  0.1171
18044TIP3    H175547   5.935   5.779   0.757  0.2179  0.1291  0.3931
18044TIP3    H275548   5.921   5.701   0.886  0.7822  0.4739  0.6665
18045TIP3   OH275549   0.786   6.283   6.321  0.2796  0.0255 -0.3256
18045TIP3    H175550   0.853   6.249   6.262  0.3994  0.3797 -0.4001
18045TIP3    H275551   0.774   6.215   6.387 -1.2360 -1.2257 -1.8162
18046TIP3   OH275552   3.262   0.079  16.108  0.2576 -0.1401 -0.5570
18046TIP3    H175553   3.325   0.010  16.129 -0.5716 -0.8277 -0.2510
18046TIP3    H275554   3.271   0.092  16.013  0.8623 -0.2108 -0.5134
18047TIP3   OH275555   5.908   3.909  16.831  0.3792 -0.1653 -0.4817
18047TIP3    H175556   5.858   3.991  16.824  0.9643  0.1600 -0.8465
18047TIP3    H275557   5.989   3.925  16.783  2.2053  0.3517  2.4887
18048TIP3   OH275558   5.752   1.441   5.109 -0.8121 -0.1750  0.1037
18048TIP3    H175559   5.709   1.480   5.033 -1.2666  0.3153  0.5986
18048TIP3    H275560   5.805   1.511   5.146 -0.3952 -0.4830  0.0940
18049TIP3   OH275561   3.259   6.244  13.300  0.2194  0.3604  0.1292
18049TIP3    H175562   3.240   6.173  13.361  1.4726 -1.0467 -1.0369
18049TIP3    H275563   3.198   6.231  13.228  1.6441 -0.6936 -0.9388
18050TIP3   OH275564   3.379   3.100   3.182 -0.0049  0.5665  0.0287
18050TIP3    H175565   3.418   3.012   3.179  0.6248  0.8563 -2.7849
18050TIP3    H275566   3.292   3.088   3.143 -0.5485  0.9581  1.0804
18051TIP3   OH275567   5.765   5.655  11.568  0.6544  0.2448  0.0505
18051TIP3    H175568   5.758   5.640  11.662  0.4709  0.4195  0.0665
18051TIP3    H275569   5.859   5.658  11.551  0.7348 -2.1837 -0.1780
18052TIP3   OH275570   2.691   1.421  16.765 -0.5394 -0.3139 -0.0962
18052TIP3    H175571   2.597   1.432  16.752 -0.5059 -0.4319 -0.4522
18052TIP3    H275572   2.720   1.371  16.688 -0.2589 -0.6435  0.2222
18053TIP3   OH275573   1.196   6.505  17.086  0.5849 -0.0194  0.2916
18053TIP3    H175574   1.109   6.485  17.053  0.9271  0.4818 -0.9626
18053TIP3    H275575   1.218   6.589  17.047  2.2882 -0.9028 -0.7449
18054TIP3   OH275576   0.667   1.121   5.388 -0.2108 -0.0364  0.3153
18054TIP3    H175577   0.659   1.197   5.331  0.1080  1.0991  1.7264
18054TIP3    H275578   0.701   1.052   5.331 -0.8225  0.7640 -1.0691
18055TIP3   OH275579   4.802   4.140   2.862 -0.3518  0.0282 -0.1614
18055TIP3    H175580   4.807   4.190   2.780 -0.6106 -0.2750 -0.3604
18055TIP3    H275581   4.881   4.086   2.862 -1.1667 -1.2000 -1.0095
18056TIP3   OH275582   3.677   3.598   5.940 -0.3484  0.6374 -0.0794
18056TIP3    H175583   3.773   3.592   5.944 -0.2534  1.2115 -1.2029
18056TIP3    H275584   3.649   3.590   6.031  0.7843  0.7164  0.2935
18057TIP3   OH275585   3.208   2.247   3.919  0.0066  0.4258  0.2590
18057TIP3    H175586   3.302   2.263   3.925 -0.1973  2.6178 -1.3434
18057TIP3    H275587   3.198   2.155   3.943  2.7564 -0.3683 -1.2293
18058TIP3   OH275588   5.411   6.013   1.831  0.3646  0.0239  0.2716
18058TIP3    H175589   5.450   6.061   1.904  1.5095  1.1516 -1.0068
18058TIP3    H275590   5.360   6.079   1.784 -1.6210 -1.0162  0.8386
18059TIP3   OH275591   1.981   4.523  14.436  0.5225  0.0921 -0.0250
18059TIP3    H175592   2.008   4.568  14.516 -0.8227  1.0803 -0.0845
18059TIP3    H275593   1.986   4.430  14.457  2.5394  0.2513  0.3904
18060TIP3   OH275594   2.213   4.028  14.776  0.2793 -0.0503 -0.3376
18060TIP3    H175595   2.235   4.039  14.868  0.3917  1.8267 -0.5411
18060TIP3    H275596   2.268   4.091  14.730 -1.5538  0.8575 -1.4107
18061TIP3   OH275597   1.258   1.909  16.989  0.4013 -0.1984  0.3429
18061TIP3    H175598   1.282   1.877  16.902 -1.1591 -3.1210  0.8705
18061TIP3    H275599   1.175   1.955  16.975  1.4341  1.6825 -0.0247
18062TIP3   OH275600   2.195   0.719  12.070  0.4092  0.2585  0.7725
18062TIP3    H175601   2.148   0.781  12.126 -2.1265 -0.9803  0.1171
18062TIP3    H275602   2.132   0.651  12.049  1.3933  0.2609 -3.0309
18063TIP3   OH275603   5.833   1.148  12.528  0.0527 -0.3415  0.8028
18063TIP3    H175604   5.874   1.201  12.597  0.2051  1.0985 -0.3291
18063TIP3    H275605   5.739   1.164  12.539  0.1580  1.2737 -0.3306
18064TIP3   OH275606   2.049   1.595   5.065  0.1145 -0.3024  0.2649
18064TIP3    H175607   2.111   1.633   5.126  0.3358  1.5778 -1.0110
18064TIP3    H275608   1.967   1.590   5.113  0.5530  0.0358  1.0534
18065TIP3   OH275609   6.372   4.676   1.270 -0.1432 -0.1115 -0.3093
18065TIP3    H175610   6.292   4.721   1.300  0.0327 -1.7992  3.2678
18065TIP3    H275611   6.443   4.725   1.311  0.2203 -1.8371  1.2423
18066TIP3   OH275612   3.639   4.895   3.359  0.0185 -0.3042 -0.1658
18066TIP3    H175613   3.573   4.958   3.329 -0.0394  0.2064  0.9523
18066TIP3    H275614   3.644   4.910   3.454  2.4801  0.3744 -0.3375
18067TIP3   OH275615   2.327   3.472  16.141  0.0976 -0.4695  0.7946
18067TIP3    H175616   2.329   3.386  16.098  0.5748  0.0974 -0.3682
18067TIP3    H275617   2.250   3.515  16.104  1.3410  0.5847 -0.6794
18068TIP3   OH275618   4.245   2.253  13.612  0.0767  0.3358 -0.6405
18068TIP3    H175619   4.297   2.192  13.665  0.3704 -1.3846 -2.7332
18068TIP3    H275620   4.311   2.305  13.565 -0.1632  1.2127 -0.0177
18069TIP3   OH275621   1.767   4.081  12.544 -0.2386 -0.0258 -0.2559
18069TIP3    H175622   1.832   4.044  12.604 -0.3676 -0.9111 -0.6430
18069TIP3    H275623   1.722   4.005  12.508 -0.9842  0.5498 -0.5614
18070TIP3   OH275624   6.738   6.241   3.353  0.2694  0.5590 -0.3097
18070TIP3    H175625   6.800   6.266   3.421 -0.4128  0.2312  0.4410
18070TIP3    H275626   6.779   6.166   3.310 -0.3200 -0.7147  1.2542
18071TIP3   OH275627   0.502   5.986   1.764 -0.1461  0.5508 -0.5014
18071TIP3    H175628   0.476   6.069   1.803  0.0441  1.2907 -1.8813
18071TIP3    H275629   0.422   5.933   1.765 -0.5962  1.2053 -0.7138
18072TIP3   OH275630   1.514   1.885  16.333  0.3832  0.1617  0.4198
18072TIP3    H175631   1.522   1.975  16.365  0.4289  0.0675  0.6721
18072TIP3    H275632   1.573   1.881  16.258  0.6251  0.2523  0.6041
18073TIP3   OH275633   2.764   4.025   0.386 -0.1820  0.2572  0.5007
18073TIP3    H175634   2.707   3.948   0.397  0.2319 -0.2846 -0.8963
18073TIP3    H275635   2.849   3.996   0.417 -0.4870  0.8645  1.9867
18074TIP3   OH275636   3.914   1.665   1.542 -0.2688 -0.3359  0.3570
18074TIP3    H175637   3.871   1.749   1.529  2.8600  1.2448 -0.7821
18074TIP3    H275638   3.913   1.624   1.455  1.3907  0.2383  0.0329
18075TIP3   OH275639   2.243   3.000   2.856 -0.4010  0.2866 -0.0184
18075TIP3    H175640   2.179   3.063   2.890 -0.2982  1.1445 -1.3488
18075TIP3    H275641   2.310   3.055   2.815  0.6656 -0.6424  0.4479
18076TIP3   OH275642   5.621   5.616   4.500  0.1155  0.2426 -0.3043
18076TIP3    H175643   5.626   5.634   4.593 -0.8842  1.1032 -0.4056
18076TIP3    H275644   5.659   5.694   4.458 -0.6990  0.4663 -0.6433
18077TIP3   OH275645   0.921   2.612  16.780  0.1057  0.4190  0.1007
18077TIP3    H175646   0.838   2.566  16.793  0.1464  0.5199  0.7291
18077TIP3    H275647   0.987   2.553  16.817  0.3366  0.2721 -0.5305
18078TIP3   OH275648   1.955   6.465   3.545 -0.2649  0.2751  0.3266
18078TIP3    H175649   1.949   6.560   3.534 -1.0499  0.0078 -2.3356
18078TIP3    H275650   1.867   6.439   3.572 -0.0903  0.2749  0.9072
18079TIP3   OH275651   0.141   5.705   2.761  0.2651 -0.6730 -0.0090
18079TIP3    H175652   0.156   5.747   2.676 -0.7963 -0.5733 -0.1614
18079TIP3    H275653   0.049   5.722   2.780  0.3459 -1.1941  0.8931
18080TIP3   OH275654   0.104   2.974   1.330 -0.1882 -0.0374  0.1330
18080TIP3    H175655   0.109   3.057   1.283  0.1673  0.5738  1.2148
18080TIP3    H275656   0.165   2.984   1.403  0.5336 -1.5859 -0.2094
18081TIP3   OH275657   2.686   3.141  14.190  0.5210  0.1860  0.2956
18081TIP3    H175658   2.779   3.135  14.168  0.6862  1.5599  0.5488
18081TIP3    H275659   2.685   3.160  14.283 -0.0395 -0.2277  0.3782
18082TIP3   OH275660   4.426   5.852  15.540 -0.4536 -0.0718  0.1262
18082TIP3    H175661   4.381   5.797  15.476 -1.5185 -1.0756  1.6632
18082TIP3    H275662   4.393   5.940  15.524  2.2184  0.5317 -3.2204
18083TIP3   OH275663   0.876   5.215  12.973  0.6896  0.1783 -0.5615
18083TIP3    H175664   0.886   5.293  13.027  1.9980 -0.6611  0.4859
18083TIP3    H275665   0.821   5.242  12.900  0.7271  1.9362  0.0313
18084TIP3   OH275666   3.972   0.419   4.706  0.1156 -0.3625 -0.2830
18084TIP3    H175667   4.030   0.343   4.704  0.7558 -0.0592  2.3533
18084TIP3    H275668   4.031   0.495   4.709 -0.5056  0.2299 -1.8955
18085TIP3   OH275669   2.465   2.579  11.068  0.5007  0.7871  0.4286
18085TIP3    H175670   2.523   2.543  11.135  1.9049  0.3229 -0.9686
18085TIP3    H275671   2.525   2.612  11.000 -0.7992 -1.9478 -2.2816
18086TIP3   OH275672   5.307   2.512  11.043  0.2323  0.0179 -0.1379
18086TIP3    H175673   5.277   2.430  11.003 -0.6380  1.1542 -1.9207
18086TIP3    H275674   5.235   2.536  11.102  1.5972 -1.7545  2.4727
18087TIP3   OH275675   6.154   2.505  12.714  0.4920  0.2585  0.0956
18087TIP3    H175676   6.089   2.572  12.734  0.6750  0.5138 -0.1584
18087TIP3    H275677   6.214   2.507  12.789 -0.2989 -0.6215  0.7832
18088TIP3   OH275678   5.239   4.575  12.202  0.0149 -0.0271 -0.6641
18088TIP3    H175679   5.323   4.577  12.158  0.4000 -0.8470  0.0140
18088TIP3    H275680   5.209   4.666  12.201  1.7529  0.6061  0.6990
18089TIP3   OH275681   4.570   1.639  16.621 -0.1317 -0.1699 -0.1987
18089TIP3    H175682   4.648   1.694  16.628 -0.0266 -0.5180  3.5055
18089TIP3    H275683   4.587   1.565  16.679 -2.1280 -1.7247 -1.4484
18090TIP3   OH275684   0.578   4.873   5.205 -0.1882  0.1636 -0.9369
18090TIP3    H175685   0.546   4.799   5.256 -0.7537  1.1540  0.2200
18090TIP3    H275686   0.573   4.845   5.114 -2.0596 -0.6013 -0.6367
18091TIP3   OH275687   1.756   0.269  10.691  0.2253 -0.3976  0.3002
18091TIP3    H175688   1.707   0.342  10.655  0.7411  0.3768  1.1376
18091TIP3    H275689   1.832   0.309  10.733  0.4421 -1.3947  0.8999
18092TIP3   OH275690   5.080   6.770  12.052 -0.0041 -0.4577 -0.2364
18092TIP3    H175691   5.063   6.858  12.087  1.5356 -0.4864  0.6625
18092TIP3    H275692   5.174   6.757  12.065  0.0600 -1.6830 -1.6923
18093TIP3   OH275693   4.488   1.553  10.998 -0.6295  0.1896 -0.2921
18093TIP3    H175694   4.397   1.554  11.029 -0.8642 -2.8346 -0.6050
18093TIP3    H275695   4.487   1.606  10.918 -2.0720  0.2976 -0.2319
18094TIP3   OH275696   2.339   3.374  15.321 -0.2901 -0.0411 -0.0931
18094TIP3    H175697   2.350   3.326  15.239 -0.3349 -0.8145  0.3440
18094TIP3    H275698   2.275   3.322  15.371  2.7441 -1.9256  2.1790
18095TIP3   OH275699   6.579   2.847  11.964  0.3446  0.0630 -0.7413
18095TIP3    H175700   6.598   2.894  12.045 -1.4732 -1.6020  0.7668
18095TIP3    H275701   6.661   2.851  11.914  1.6057  0.9561  1.2672
18096TIP3   OH275702   3.044   1.443   0.381 -0.4293  0.0146 -0.4282
18096TIP3    H175703   3.110   1.506   0.354 -0.8992  0.1072 -1.3906
18096TIP3    H275704   3.089   1.387   0.445  0.1373  0.9791  0.0324
18097TIP3   OH275705   6.456   5.918  12.380 -0.2499  0.5253 -0.6979
18097TIP3    H175706   6.525   5.908  12.445 -1.0873  0.0920  0.1399
18097TIP3    H275707   6.503   5.937  12.298  0.7741  2.0748  0.2047
18098TIP3   OH275708   1.727   5.684  14.795 -0.5151  0.7163 -0.4135
18098TIP3    H175709   1.722   5.718  14.706 -2.3993  2.8039  0.4062
18098TIP3    H275710   1.656   5.621  14.801 -0.6013  0.8253 -0.2875
18099TIP3   OH275711   5.104   6.199   5.876  0.3187  0.0713 -0.4757
18099TIP3    H175712   5.135   6.158   5.957  0.2707  0.6831 -0.1395
18099TIP3    H275713   5.028   6.250   5.903  0.4041  0.4193 -0.8741
18100TIP3   OH275714   4.755   2.906   3.596 -0.4730 -0.1672 -0.1327
18100TIP3    H175715   4.744   2.930   3.504 -0.2879  1.1163  0.1625
18100TIP3    H275716   4.744   2.988   3.644  0.8396 -0.5443  0.8891
18101TIP3   OH275717   3.336   5.220   2.132  0.4322  0.0611 -0.3489
18101TIP3    H175718   3.337   5.134   2.090  0.0883  0.4791 -1.2334
18101TIP3    H275719   3.423   5.255   2.114  1.9480 -1.4804  3.0383
18102TIP3   OH275720   2.914   5.753   5.705  0.3796 -0.1249 -0.1955
18102TIP3    H175721   2.961   5.704   5.772  0.6178 -1.3585 -1.2182
18102TIP3    H275722   2.830   5.776   5.746  0.2354 -1.4628  0.3208
18103TIP3   OH275723   2.468   2.998  12.808 -0.3103  0.2354 -0.0278
18103TIP3    H175724   2.412   3.075  12.795 -0.4317  0.1373 -0.0897
18103TIP3    H275725   2.408   2.930  12.838 -0.2158  0.1418 -0.0496
18104TIP3   OH275726   0.001   3.619   2.168  0.0372 -0.0920  0.0715
18104TIP3    H175727  -0.088   3.619   2.133 -0.5652 -1.1755  1.5372
18104TIP3    H275728   0.004   3.544   2.228  1.9638 -0.1326 -0.0077
18105TIP3   OH275729   6.786   1.150  11.309  0.8130  0.3422  0.3303
18105TIP3    H175730   6.816   1.228  11.355  0.6109  0.3427  0.4643
18105TIP3    H275731   6.809   1.166  11.217 -0.2256  1.0662  0.1710
18106TIP3   OH275732   5.754   3.585  15.586  0.3689 -0.4795 -0.3960
18106TIP3    H175733   5.758   3.541  15.501  0.7363  0.0995 -0.6872
18106TIP3    H275734   5.789   3.672  15.569 -1.1278  0.2175 -0.0131
18107TIP3   OH275735   4.819   0.885  11.700  0.1503  0.4217  0.3485
18107TIP3    H175736   4.867   0.844  11.628 -0.6112 -0.9704  0.6065
18107TIP3    H275737   4.887   0.907  11.764  0.5523 -0.9813  0.4518
18108TIP3   OH275738   2.019   6.001   5.297  1.0380 -0.2769  0.5397
18108TIP3    H175739   1.952   5.954   5.347  0.7204 -0.5620 -0.1468
18108TIP3    H275740   2.097   5.946   5.303  0.4198 -1.3871 -1.0267
18109TIP3   OH275741   6.395   6.681  16.831  0.1331  0.1885 -0.5996
18109TIP3    H175742   6.367   6.595  16.800  1.1120  0.0238 -1.0577
18109TIP3    H275743   6.471   6.663  16.886 -0.5857  0.6307  0.5779
18110TIP3   OH275744   6.400   4.694   6.266  0.4117 -0.5195  0.3474
18110TIP3    H175745   6.453   4.770   6.288  1.3233 -1.3459  1.0973
18110TIP3    H275746   6.339   4.684   6.340 -2.5348  1.8244 -1.5390
18111TIP3   OH275747   0.148   2.343  16.738  0.6897 -0.4844  0.3146
18111TIP3    H175748   0.158   2.387  16.822  1.1572 -0.6948  0.3722
18111TIP3    H275749   0.102   2.262  16.759 -0.2309 -0.0097  0.1975
18112TIP3   OH275750   1.147   5.930   1.723  0.2322 -0.3105  0.0856
18112TIP3    H175751   1.167   6.014   1.681  0.0352  0.3806  1.3417
18112TIP3    H275752   1.231   5.900   1.758  0.1500 -0.2277  0.3558
18113TIP3   OH275753   2.195   0.316  15.774 -0.6549 -0.9137 -0.1943
18113TIP3    H175754   2.286   0.341  15.793 -0.3401 -0.9624 -1.5045
18113TIP3    H275755   2.177   0.243  15.834  0.2761 -1.0895 -0.1083
18114TIP3   OH275756   3.385   6.470  12.218  0.1911  0.1034 -0.4646
18114TIP3    H175757   3.305   6.487  12.267  0.1400 -1.5400  0.0875
18114TIP3    H275758   3.388   6.375  12.209  0.1396  0.2940 -3.8154
18115TIP3   OH275759   2.826   4.367  14.062 -0.5035  0.4181 -0.2766
18115TIP3    H175760   2.887   4.440  14.072 -1.2228  1.0270 -0.1917
18115TIP3    H275761   2.881   4.290  14.049  0.2687  1.1581 -1.6187
18116TIP3   OH275762   2.744   1.017  11.541 -0.1998  0.4243  0.0409
18116TIP3    H175763   2.752   1.025  11.636  0.6506 -1.0608  0.1159
18116TIP3    H275764   2.680   0.947  11.528  2.4626 -2.1103 -0.3739
18117TIP3   OH275765   3.312   5.102   3.777  0.3705  0.7710 -0.4449
18117TIP3    H175766   3.254   5.178   3.772  2.5503  2.6546  0.7931
18117TIP3    H275767   3.367   5.108   3.698  0.3196  0.2845 -0.5169
18118TIP3   OH275768   2.941   6.290  13.835 -0.1195  0.0171  0.0154
18118TIP3    H175769   2.959   6.221  13.771  0.2779  0.1457 -0.0136
18118TIP3    H275770   2.964   6.371  13.791  0.0977  0.1120  0.2950
18119TIP3   OH275771   2.659   2.853   2.547 -0.0376  0.3576 -0.0064
18119TIP3    H175772   2.596   2.905   2.498 -0.6482 -0.1194  0.2493
18119TIP3    H275773   2.678   2.778   2.490 -0.2511  0.1364  0.2087
18120TIP3   OH275774   3.590   0.583   0.744  0.3455 -0.4899  0.1811
18120TIP3    H175775   3.496   0.571   0.732  0.5424 -0.5061 -1.5369
18120TIP3    H275776   3.601   0.677   0.757  0.2711 -0.1784 -1.7713
18121TIP3   OH275777   3.443   0.409  14.399 -0.1048 -0.4230  0.0192
18121TIP3    H175778   3.347   0.403  14.392 -0.0423 -2.5985  0.1831
18121TIP3    H275779   3.472   0.318  14.396  1.9060  0.1461  0.8680
18122TIP3   OH275780   2.827   1.310  11.644  0.6965  0.0239 -0.1619
18122TIP3    H175781   2.775   1.278  11.570  0.0233  0.7660 -0.0286
18122TIP3    H275782   2.838   1.404  11.627  2.8870 -0.2758 -0.7087
18123TIP3   OH275783   5.114   0.419   1.818  0.2084  0.2556 -0.7191
18123TIP3    H175784   5.047   0.463   1.871 -0.1329 -0.6022 -0.4222
18123TIP3    H275785   5.073   0.408   1.732 -0.6589 -1.6450 -0.1200
18124TIP3   OH275786   0.422   1.076   2.181  0.1517  0.4550 -0.0777
18124TIP3    H175787   0.331   1.100   2.165 -0.1754 -0.9479 -0.4448
18124TIP3    H275788   0.467   1.093   2.098 -0.2502 -0.9438 -0.5989
18125TIP3   OH275789   3.660   2.700   0.596 -0.4904  0.5424  0.0131
18125TIP3    H175790   3.654   2.758   0.672  0.1044  1.9957 -0.9893
18125TIP3    H275791   3.592   2.634   0.610 -1.0356  1.3406  1.3209
18126TIP3   OH275792   0.902   4.387   4.072  0.0926 -0.4941  0.0106
18126TIP3    H175793   0.930   4.468   4.114  0.3803 -0.5811 -0.0098
18126TIP3    H275794   0.852   4.341   4.139  0.5581 -0.6355  0.2611
18127TIP3   OH275795   4.260   6.498  14.796 -0.1267  0.1653 -0.4866
18127TIP3    H175796   4.232   6.590  14.790  2.9086  1.2984  1.0186
18127TIP3    H275797   4.263   6.480  14.890 -1.3586 -1.7792 -0.7645
18128TIP3   OH275798   0.367   1.993   3.884 -0.2852 -0.5230 -0.0907
18128TIP3    H175799   0.328   1.907   3.898  2.1400 -1.6839 -0.0650
18128TIP3    H275800   0.448   1.992   3.935  1.0427  0.8406 -2.0324
18129TIP3   OH275801   3.975   1.614   0.724 -0.2382 -0.3307  0.0817
18129TIP3    H175802   3.985   1.526   0.763  1.3499 -0.6106 -0.8457
18129TIP3    H275803   3.995   1.601   0.631  0.0335  1.0244 -0.0634
18130TIP3   OH275804   3.775   5.601   3.579 -0.2239  0.2030  0.0868
18130TIP3    H175805   3.860   5.645   3.582  0.0283 -0.3221  1.9425
18130TIP3    H275806   3.711   5.672   3.568  0.1761  1.1537  3.0362
18131TIP3   OH275807   2.808   6.405  14.089  0.0175  0.0986  0.6484
18131TIP3    H175808   2.884   6.370  14.042 -1.1664 -2.2292  0.3497
18131TIP3    H275809   2.740   6.414  14.022 -1.5019 -2.6815  1.6992
18132TIP3   OH275810   6.143   2.320  15.627 -0.5679  0.6534 -0.4686
18132TIP3    H175811   6.215   2.295  15.569 -1.6834 -0.3426 -1.4842
18132TIP3    H275812   6.152   2.415  15.638  1.3902  0.4221  0.1408
18133TIP3   OH275813   2.769   2.472   5.897  0.5943 -0.4556  0.2024
18133TIP3    H175814   2.698   2.441   5.954 -0.5542  0.8448 -0.4723
18133TIP3    H275815   2.756   2.424   5.816  0.9973 -0.8125  0.3452
18134TIP3   OH275816   1.334   0.952   4.968  0.2504  0.4075 -0.6711
18134TIP3    H175817   1.367   1.035   4.934 -0.3684 -0.3581 -3.3396
18134TIP3    H275818   1.349   0.889   4.897  2.4895 -2.2879  1.9105
18135TIP3   OH275819   6.104   5.779   0.559 -0.4311  0.1532 -0.8447
18135TIP3    H175820   6.026   5.722   0.558 -0.1957 -0.1752 -0.6142
18135TIP3    H275821   6.106   5.817   0.471 -0.2410 -0.6792 -1.2104
18136TIP3   OH275822   3.043   5.154  16.731  0.0515 -0.3645 -1.1195
18136TIP3    H175823   2.980   5.112  16.789  0.4265 -1.1949 -1.2876
18136TIP3    H275824   3.129   5.122  16.761  0.6284  2.4042  0.4900
18137TIP3   OH275825   0.082   3.212  16.355  0.5885 -0.1104 -0.4919
18137TIP3    H175826   0.167   3.176  16.328  1.2076  0.6160  0.4019
18137TIP3    H275827   0.088   3.216  16.451  0.9029  3.0951 -0.5444
18138TIP3   OH275828   3.012   1.697  11.519 -0.0834 -0.3285  0.6228
18138TIP3    H175829   3.097   1.654  11.515 -0.2876 -0.7576  0.8728
18138TIP3    H275830   2.957   1.638  11.571 -0.6610 -0.2794  0.0886
18139TIP3   OH275831   5.068   3.469   3.025  0.0430 -0.7856  0.5819
18139TIP3    H175832   4.989   3.500   3.071  0.6001  2.3474 -0.2986
18139TIP3    H275833   5.139   3.486   3.087  0.4716  0.6945 -0.2827
18140TIP3   OH275834   3.602   4.003   0.804 -0.0172  0.0629  0.1540
18140TIP3    H175835   3.686   4.039   0.773  0.4826  0.0848  1.4691
18140TIP3    H275836   3.620   3.910   0.816 -0.1610  0.0773  0.4832
18141TIP3   OH275837   3.738   2.908  16.146  0.4526  0.3789  0.2798
18141TIP3    H175838   3.719   2.934  16.055  0.2049  1.6591  0.6886
18141TIP3    H275839   3.811   2.964  16.172  0.5898 -0.0625  0.8494
18142TIP3   OH275840   5.259   0.322   0.668 -0.0473  0.0576  0.1433
18142TIP3    H175841   5.211   0.291   0.591 -0.7032  0.6619  0.2881
18142TIP3    H275842   5.308   0.398   0.637  0.5163 -0.3284  0.0851
18143TIP3   OH275843   4.649   4.539   0.081  0.0875  0.2078  0.2442
18143TIP3    H175844   4.701   4.590   0.018  0.7039 -0.5575  0.1094
18143TIP3    H275845   4.658   4.586   0.164 -0.9635  1.3836 -0.2801
18144TIP3   OH275846   1.137   6.399  12.761 -0.6762  0.1493  0.3405
18144TIP3    H175847   1.091   6.462  12.706 -0.0938 -0.4745 -0.8800
18144TIP3    H275848   1.149   6.322  12.706 -0.1011 -0.5015  1.3437
18145TIP3   OH275849   0.393   2.402   6.101 -0.1631  0.3271 -0.3655
18145TIP3    H175850   0.350   2.428   6.183  2.1767  2.6344  0.2690
18145TIP3    H275851   0.464   2.345   6.128 -0.3513 -0.2105 -0.9831
18146TIP3   OH275852   5.515   6.039  14.553  0.2995 -0.5453 -0.1409
18146TIP3    H175853   5.507   6.029  14.459 -0.0721  0.5127 -0.2346
18146TIP3    H275854   5.430   6.074  14.581  0.5311 -0.5111  0.5370
18147TIP3   OH275855   3.028   6.083   4.080 -0.0119  0.9810  0.1214
18147TIP3    H175856   3.017   6.176   4.062 -0.5703  1.0097  0.5726
18147TIP3    H275857   2.957   6.062   4.141  1.0330  0.6130  1.2478
18148TIP3   OH275858   3.055   0.131  15.133  0.4578  0.0789 -0.3650
18148TIP3    H175859   3.128   0.112  15.192 -1.5191 -1.8941  1.6465
18148TIP3    H275860   3.021   0.215  15.164  0.7003  0.0628 -0.0509
18149TIP3   OH275861   5.516   4.049  12.410  0.2092 -0.5388  0.0745
18149TIP3    H175862   5.474   4.089  12.486  0.9981  1.6333 -0.5622
18149TIP3    H275863   5.514   3.955  12.428 -1.2731 -0.2095  1.8994
18150TIP3   OH275864   0.733   6.177   5.445 -0.6211 -0.1289  0.0312
18150TIP3    H175865   0.697   6.197   5.358 -2.4769 -1.5994  0.3887
18150TIP3    H275866   0.693   6.243   5.502 -0.7477 -0.1984  0.0241
18151TIP3   OH275867   3.109   5.926   1.478  0.1675 -0.1417 -0.0435
18151TIP3    H175868   3.106   6.021   1.462  1.5835  0.0864  0.8725
18151TIP3    H275869   3.018   5.903   1.496 -0.3700  0.8396 -1.3279
18152TIP3   OH275870   3.389   6.217   1.054  0.0294  0.2618  0.1417
18152TIP3    H175871   3.358   6.164   1.127 -0.0267  2.2997  1.6922
18152TIP3    H275872   3.316   6.275   1.034  0.0261 -0.3012 -1.6212
18153TIP3   OH275873   3.071   1.055  14.950  0.5354 -0.3758  0.9339
18153TIP3    H175874   3.003   1.029  15.013  0.6345 -1.2022  0.7074
18153TIP3    H275875   3.058   1.149  14.939 -0.1578 -0.4086  1.3856
18154TIP3   OH275876   0.384   2.968   3.817  0.5520 -0.1745 -0.4309
18154TIP3    H175877   0.404   2.894   3.761  1.0563 -1.2953  1.1638
18154TIP3    H275878   0.291   2.986   3.801  0.4989 -0.9510 -1.0587
18155TIP3   OH275879   2.247   1.757   5.747 -0.3067  0.2133  0.3790
18155TIP3    H175880   2.295   1.786   5.824  2.8196 -0.8800 -1.0022
18155TIP3    H275881   2.222   1.838   5.703 -2.2986  0.8633  2.4894
18156TIP3   OH275882   2.767   6.143  15.046 -0.0492 -0.1944 -0.5563
18156TIP3    H175883   2.721   6.065  15.079  0.3800  0.4567  1.7738
18156TIP3    H275884   2.853   6.138  15.087  0.1722  1.2111 -0.8219
18157TIP3   OH275885   4.435   6.114  10.725  0.3924 -0.3222 -0.4154
18157TIP3    H175886   4.394   6.036  10.762  0.5026  0.3662  1.2339
18157TIP3    H275887   4.529   6.097  10.732  0.4143 -0.1761 -0.3579
18158TIP3   OH275888   2.337   1.967   4.253  0.2873 -0.2641  0.2490
18158TIP3    H175889   2.357   1.924   4.170 -1.8326  0.7492 -0.8870
18158TIP3    H275890   2.296   1.899   4.306  0.7255 -0.6672  0.0787
18159TIP3   OH275891   3.196   2.816  12.561 -0.8763  0.0829 -0.0144
18159TIP3    H175892   3.147   2.896  12.545 -3.8925 -1.8682 -1.3950
18159TIP3    H275893   3.215   2.781  12.474  0.9934 -0.4030  0.5430
18160TIP3   OH275894   6.603   2.662  16.217 -0.3466 -0.0111 -0.0346
18160TIP3    H175895   6.566   2.598  16.155 -0.0426  0.5195 -0.7854
18160TIP3    H275896   6.676   2.615  16.258 -0.5620 -0.3779 -0.0628
18161TIP3   OH275897   6.414   4.638  16.035 -0.4487  0.4948  0.2773
18161TIP3    H175898   6.403   4.704  15.966 -0.1667  0.4147  0.1514
18161TIP3    H275899   6.379   4.557  15.996 -0.5824  0.5198  0.3465
18162TIP3   OH275900   3.274   0.047  15.273 -0.3767 -0.0124 -0.6506
18162TIP3    H175901   3.301   0.102  15.346  1.9457 -1.0604 -0.6140
18162TIP3    H275902   3.330   0.076  15.200 -0.5488 -0.9664 -1.1733
18163TIP3   OH275903   4.819   0.695   3.307 -0.5657 -0.3096 -0.1624
18163TIP3    H175904   4.747   0.635   3.288  0.7799 -1.9471 -0.3930
18163TIP3    H275905   4.875   0.690   3.230 -0.3324  1.1711 -0.1149
18164TIP3   OH275906   5.006   2.406   4.301  0.2720  0.5151 -0.0829
18164TIP3    H175907   4.968   2.459   4.371 -0.1420 -0.9288  0.8295
18164TIP3    H275908   4.946   2.332   4.292  0.9386  0.0848 -1.1773
18165TIP3   OH275909   2.605   4.299   2.868 -0.8993 -0.0460  0.0378
18165TIP3    H175910   2.589   4.209   2.840 -0.7307  0.6046 -2.4129
18165TIP3    H275911   2.528   4.348   2.837  0.0031  0.9918 -0.6766
18166TIP3   OH275912   5.932   1.810   1.926 -0.5410  0.0480 -0.5753
18166TIP3    H175913   5.941   1.884   1.866  2.9540  0.7555  0.5421
18166TIP3    H275914   5.948   1.733   1.872  1.5255  0.5998 -0.8563
18167TIP3   OH275915   5.854   2.917  13.046 -0.3078  0.0617  0.4251
18167TIP3    H175916   5.839   2.830  13.084 -1.7089  0.3184  0.5124
18167TIP3    H275917   5.766   2.955  13.038  0.3434  1.8618  1.3047
18168TIP3   OH275918   4.066   2.456  13.295 -0.4769 -0.3650  0.0862
18168TIP3    H175919   3.993   2.452  13.233 -0.2846  0.6723 -0.2253
18168TIP3    H275920   4.113   2.374  13.282 -0.3955 -0.1309 -1.2021
18169TIP3   OH275921   3.971   6.238  14.673  0.1147 -0.1869  0.0773
18169TIP3    H175922   4.042   6.211  14.731 -0.6144  0.9537  1.5472
18169TIP3    H275923   3.912   6.288  14.728 -1.1164  0.1176 -1.4448
18170TIP3   OH275924   2.416   3.631  10.250 -0.1725 -0.1277 -0.2831
18170TIP3    H175925   2.408   3.542  10.217 -2.9537 -0.3822  0.8259
18170TIP3    H275926   2.355   3.682  10.196  0.8105  0.9839 -0.3871
18171TIP3   OH275927   4.533   2.496  15.201  0.7313 -0.1636  0.0281
18171TIP3    H175928   4.549   2.505  15.295  3.3715  2.1688 -0.5169
18171TIP3    H275929   4.446   2.533  15.187  0.0959 -0.9778  1.5668
18172TIP3   OH275930   2.766   6.291  16.157  0.2269 -0.3970 -0.5089
18172TIP3    H175931   2.695   6.256  16.210 -1.2571  1.8416 -0.8923
18172TIP3    H275932   2.724   6.320  16.076  1.6933  0.3037 -1.0657
18173TIP3   OH275933   5.746   4.015   3.426 -0.0402  0.2439 -0.5470
18173TIP3    H175934   5.736   3.927   3.463 -0.6097  0.4129 -0.2963
18173TIP3    H275935   5.785   4.066   3.496  1.3491 -0.0671 -1.0559
18174TIP3   OH275936   1.426   2.302   0.098  0.1685 -0.4270 -0.2506
18174TIP3    H175937   1.493   2.344   0.152 -0.1002  1.6117 -1.3893
18174TIP3    H275938   1.365   2.373   0.076 -1.5415 -1.9026 -0.4895
18175TIP3   OH275939   4.356   0.889  14.077  0.1042  0.2636  0.3058
18175TIP3    H175940   4.290   0.957  14.060 -1.8337 -1.1679  1.7168
18175TIP3    H275941   4.396   0.914  14.160  0.3108  0.3621  0.1773
18176TIP3   OH275942   6.093   0.470   2.101  0.1500  0.1337  0.2141
18176TIP3    H175943   5.998   0.466   2.087  0.0881 -0.5895  0.7775
18176TIP3    H275944   6.106   0.551   2.151 -0.1032  0.5178 -0.3317
18177TIP3   OH275945   4.126   1.287  14.806 -0.3098 -0.2127 -0.1644
18177TIP3    H175946   4.189   1.218  14.787  1.6833  2.0674 -2.4405
18177TIP3    H275947   4.090   1.311  14.721 -2.7455  0.0510  0.8409
18178TIP3   OH275948   3.492   2.874   0.453  0.2341  0.0053 -0.5953
18178TIP3    H175949   3.566   2.818   0.478  0.6380  0.2570 -1.2221
18178TIP3    H275950   3.422   2.813   0.434  0.5126 -0.2699 -0.7539
18179TIP3   OH275951   2.978   5.857   4.281  0.3508 -0.0890 -0.5806
18179TIP3    H175952   2.883   5.844   4.282  0.5634 -1.9262  1.0403
18179TIP3    H275953   3.009   5.805   4.207  0.0434  1.5870 -1.9720
18180TIP3   OH275954   1.097   5.689  17.135 -0.7780 -0.1758  0.3069
18180TIP3    H175955   1.149   5.634  17.193 -0.5985 -0.3667 -0.0400
18180TIP3    H275956   1.160   5.750  17.097 -0.8977 -0.0479  0.3129
18181TIP3   OH275957   4.360   6.171  12.609 -0.4593 -0.5391  0.2478
18181TIP3    H175958   4.298   6.219  12.665  0.0586  0.1599  0.2432
18181TIP3    H275959   4.403   6.110  12.669  0.2779  0.3827  0.7079
18182TIP3   OH275960   5.260   4.171  12.988 -0.0601 -0.2333  0.3639
18182TIP3    H175961   5.173   4.181  12.949 -0.5144  0.0465  1.4097
18182TIP3    H275962   5.303   4.105  12.935 -0.1509  1.0932 -1.4438
18183TIP3   OH275963   6.032   2.967   5.326 -0.3434 -0.2146  0.2992
18183TIP3    H175964   5.991   2.899   5.379 -0.0909  0.3791  1.2799
18183TIP3    H275965   5.974   2.976   5.250 -0.4757 -1.3815  0.2489
18184TIP3   OH275966   1.592   2.725   2.784  0.2308  0.0263 -0.2000
18184TIP3    H175967   1.533   2.723   2.709 -0.9024 -2.3926  0.6520
18184TIP3    H275968   1.541   2.765   2.854  1.4587  2.7660 -0.7403
18185TIP3   OH275969   0.029   2.742   6.917 -0.0288  0.2250  0.3699
18185TIP3    H175970   0.085   2.691   6.859 -0.4588 -0.7203  0.7574
18185TIP3    H275971   0.039   2.832   6.887  2.2896  0.1982  0.9340
18186TIP3   OH275972   1.175   2.330   1.220 -0.4132  0.1979  0.1125
18186TIP3    H175973   1.206   2.244   1.247 -1.8290 -0.4526 -0.2766
18186TIP3    H275974   1.124   2.314   1.141  0.6783  1.6172 -0.9338
18187TIP3   OH275975   4.609   4.144   1.554  0.0614  0.2772  0.3857
18187TIP3    H175976   4.612   4.151   1.458  0.9614  2.0753  0.4996
18187TIP3    H275977   4.696   4.172   1.582  0.8154 -2.8530  1.6642
18188TIP3   OH275978   1.013   4.080   0.868  0.3575  0.0281 -0.0908
18188TIP3    H175979   1.062   4.157   0.839  4.1859 -1.8314  0.7664
18188TIP3    H275980   1.005   4.092   0.963 -2.2611  0.9337 -0.3576
18189TIP3   OH275981   5.112   5.021   5.404 -0.4178  0.1682 -0.1864
18189TIP3    H175982   5.159   4.938   5.393 -0.0239  0.3962 -0.2343
18189TIP3    H275983   5.034   4.998   5.455 -0.0547 -0.1445  0.2345
18190TIP3   OH275984   6.167   2.076  15.833 -0.1388 -0.3348 -0.1352
18190TIP3    H175985   6.092   2.077  15.773  0.2995  0.5847 -0.6954
18190TIP3    H275986   6.239   2.043  15.780  0.7074  2.2445 -0.7487
18191TIP3   OH275987   5.112   1.976  10.921  0.1723  0.3010  0.0167
18191TIP3    H175988   5.106   1.959  10.827  0.8111  1.9038 -0.3588
18191TIP3    H275989   5.150   1.897  10.958  3.3747  0.9013 -1.6382
18192TIP3   OH275990   2.315   0.528  14.384 -0.2383 -0.0902  0.0251
18192TIP3    H175991   2.279   0.448  14.423 -0.1893 -1.8446 -3.1787
18192TIP3    H275992   2.393   0.547  14.437  0.7520 -3.2227 -0.0648
18193TIP3   OH275993   4.323   5.010   5.196 -0.2032 -0.3037 -0.2341
18193TIP3    H175994   4.365   4.952   5.132  1.0779 -0.0886  0.3770
18193TIP3    H275995   4.265   5.065   5.144  1.2780  0.2945 -1.3370
18194TIP3   OH275996   0.466   3.964  14.564  0.0299  0.1170 -0.4400
18194TIP3    H175997   0.425   3.964  14.651  0.7414 -0.6937 -0.0895
18194TIP3    H275998   0.475   3.871  14.542  0.6685  0.3046 -0.9969
18195TIP3   OH275999   0.590   0.667   5.961 -0.0316 -0.3155 -0.4938
18195TIP3    H176000   0.561   0.609   5.890  0.7002  0.2058 -1.2274
18195TIP3    H276001   0.639   0.736   5.917 -0.9672  0.9360  0.3585
18196TIP3   OH276002   4.077   6.244  11.877  0.1893  0.4550 -0.4026
18196TIP3    H176003   4.076   6.149  11.867  1.5533  0.1365  1.9134
18196TIP3    H276004   4.018   6.275  11.808 -0.3356 -2.0466 -1.1989
18197TIP3   OH276005   0.365   3.621  11.689  0.1645 -0.2447 -0.0264
18197TIP3    H176006   0.301   3.555  11.660  0.2175  0.4473 -1.8675
18197TIP3    H276007   0.404   3.583  11.768 -0.9910 -1.6535 -0.0830
18198TIP3   OH276008   0.701   6.503   3.316  0.0742 -0.2183  0.0550
18198TIP3    H176009   0.748   6.578   3.280 -0.3189  0.2679  0.5362
18198TIP3    H276010   0.702   6.438   3.246  0.6355  0.1440 -0.2755
18199TIP3   OH276011   1.565   4.723  11.547  0.2330 -0.6572 -0.0329
18199TIP3    H176012   1.638   4.695  11.602  0.2454  0.0618  0.3253
18199TIP3    H276013   1.557   4.654  11.481  1.0827 -0.8552  0.0602
18200TIP3   OH276014   1.951   1.888   0.748  0.4436  0.1880 -0.1845
18200TIP3    H176015   1.997   1.841   0.678 -0.9568 -0.5658 -0.6315
18200TIP3    H276016   1.879   1.932   0.704 -0.9699 -0.9853  0.8627
18201TIP3   OH276017   2.876   4.467   5.052  0.5311  0.5950 -0.1578
18201TIP3    H176018   2.968   4.487   5.073  0.6170 -0.1575  0.2175
18201TIP3    H276019   2.854   4.394   5.110  0.5676 -1.1313 -2.1601
18202TIP3   OH276020   0.991   0.046  15.822 -0.1720  0.0204 -0.4450
18202TIP3    H176021   0.983  -0.046  15.848 -0.5725 -0.0400 -0.7751
18202TIP3    H276022   1.066   0.078  15.872  0.2443 -0.5987 -0.6508
18203TIP3   OH276023   5.094   0.740  15.961  0.4072  0.6893 -0.0108
18203TIP3    H176024   5.029   0.809  15.973 -1.9413 -1.1998 -0.9729
18203TIP3    H276025   5.084   0.684  16.037  1.2176  0.5688  0.0177
18204TIP3   OH276026   0.772   0.751   1.948 -0.0081 -0.0919  0.3272
18204TIP3    H176027   0.780   0.734   1.854 -0.4050  2.3044 -0.2082
18204TIP3    H276028   0.768   0.665   1.988  0.6488 -1.1800 -1.8094
18205TIP3   OH276029   0.803   1.603  12.636 -0.0372 -0.5476 -0.0692
18205TIP3    H176030   0.814   1.583  12.729  1.3510 -0.4425 -0.1962
18205TIP3    H276031   0.801   1.517  12.594  1.4911 -0.5760 -0.1463
18206TIP3   OH276032   0.689   3.800   4.685 -0.2696  0.2347  0.1647
18206TIP3    H176033   0.783   3.815   4.698  0.2324 -0.5081 -2.1997
18206TIP3    H276034   0.647   3.865   4.741  1.6863  2.8063 -1.1489
18207TIP3   OH276035   1.903   4.735  15.226 -0.1662  0.2829 -0.6168
18207TIP3    H176036   1.902   4.669  15.295  0.4838  1.9711  1.0910
18207TIP3    H276037   1.992   4.733  15.191  0.0969  0.7713 -0.0011
18208TIP3   OH276038   3.233   4.904  11.593 -0.2737  0.1496 -0.7054
18208TIP3    H176039   3.219   4.932  11.683 -0.7048  0.3519 -0.8321
18208TIP3    H276040   3.152   4.859  11.569  0.2562 -0.8781 -0.6337
18209TIP3   OH276041   3.963   3.962   0.577  0.0545  0.2266  0.2552
18209TIP3    H176042   3.891   3.920   0.530 -0.4406  1.4383 -0.0975
18209TIP3    H276043   4.042   3.936   0.528 -0.1488 -0.8397  0.4552
18210TIP3   OH276044   6.482   5.680  15.006  0.0769 -0.0141 -0.3450
18210TIP3    H176045   6.452   5.591  15.026 -0.7467  0.4160  0.3959
18210TIP3    H276046   6.548   5.698  15.074  1.4148 -0.6184 -1.4297
18211TIP3   OH276047   0.940   1.321   2.735 -0.4740  0.1530 -0.4064
18211TIP3    H176048   0.949   1.415   2.718 -0.0267  0.0364 -0.8108
18211TIP3    H276049   0.847   1.303   2.719 -0.7185  0.6538  0.3374
18212TIP3   OH276050   2.694   1.731   3.977  0.0035  0.0050  0.3249
18212TIP3    H176051   2.649   1.747   3.894 -2.0380  2.2032  1.7415
18212TIP3    H276052   2.625   1.708   4.038  1.2456  0.1798  1.8599
18213TIP3   OH276053   3.616   3.933  13.646 -0.3901  0.2131  0.0142
18213TIP3    H176054   3.666   3.930  13.565 -1.6985  0.3921 -0.8358
18213TIP3    H276055   3.673   3.978  13.708  0.4019  0.6145 -0.9783
18214TIP3   OH276056   6.710   3.319   1.442 -0.7888 -0.2825 -0.1640
18214TIP3    H176057   6.647   3.295   1.509  1.2883 -1.6659  1.4395
18214TIP3    H276058   6.758   3.393   1.478  0.0845 -0.7855 -0.2392
18215TIP3   OH276059   1.217   5.354   4.780 -0.0497  0.4088  0.8725
18215TIP3    H176060   1.307   5.330   4.762 -0.3838 -0.1443 -0.1396
18215TIP3    H276061   1.187   5.397   4.700 -0.7537  0.3661  1.1071
18216TIP3   OH276062   5.540   5.294  16.916  0.5418  0.0931  0.3421
18216TIP3    H176063   5.625   5.336  16.905 -0.0100  0.9138 -1.0749
18216TIP3    H276064   5.522   5.252  16.832 -1.2123  1.4591 -0.0474
18217TIP3   OH276065   5.068   3.134   5.324  0.4319  0.3721 -0.5538
18217TIP3    H176066   4.983   3.090   5.318  0.6047  0.1719 -1.6265
18217TIP3    H276067   5.065   3.202   5.257  1.0367  0.5104 -0.4427
18218TIP3   OH276068   5.882   0.827  11.807  0.2411 -0.1142 -0.0968
18218TIP3    H176069   5.961   0.774  11.793  1.4162  1.4629  0.2248
18218TIP3    H276070   5.888   0.897  11.742 -0.2625  0.7136  0.7217
18219TIP3   OH276071   3.931   1.615   1.264  0.1003 -0.2139  0.1211
18219TIP3    H176072   3.988   1.660   1.203 -0.0505 -0.5764 -0.2892
18219TIP3    H276073   3.971   1.529   1.276 -0.1660 -0.3424  0.1047
18220TIP3   OH276074   5.059   1.682   5.681  0.0907 -0.1283 -0.1430
18220TIP3    H176075   5.131   1.745   5.689 -0.9209  1.4430 -2.3507
18220TIP3    H276076   4.998   1.706   5.750 -0.4296  1.6062 -1.1500
18221TIP3   OH276077   1.516   1.158  12.347 -0.0788  0.4434 -0.0800
18221TIP3    H176078   1.538   1.105  12.424 -0.4554  0.2459 -0.1068
18221TIP3    H276079   1.507   1.247  12.382  3.2803  1.0320 -0.4727
18222TIP3   OH276080   1.631   4.560   4.345 -0.4088  0.1675 -0.2673
18222TIP3    H176081   1.724   4.540   4.360 -0.4048 -0.0219 -0.5289
18222TIP3    H276082   1.632   4.646   4.302 -0.3983  0.5084  0.4027
18223TIP3   OH276083   5.421   3.052   3.029 -0.7847 -0.3318  0.2399
18223TIP3    H176084   5.441   2.979   2.970 -1.3023 -0.6501  0.4489
18223TIP3    H276085   5.335   3.030   3.066 -1.0359  0.4773  0.1611
18224TIP3   OH276086   5.880   6.679  15.034  0.0065  0.2425  0.5953
18224TIP3    H176087   5.952   6.740  15.050  0.3397  0.6575 -2.0335
18224TIP3    H276088   5.820   6.727  14.976 -1.2591 -0.9002  0.9072
18225TIP3   OH276089   6.515   5.320  11.073  0.5836 -0.3955  0.3712
18225TIP3    H176090   6.441   5.279  11.117  1.0070 -1.5009  0.0912
18225TIP3    H276091   6.573   5.247  11.050  1.2523  0.3382 -0.3557
18226TIP3   OH276092   5.994   2.851   1.035 -0.5491  0.5867  0.6715
18226TIP3    H176093   5.930   2.848   1.106  0.8567  0.0530  1.9858
18226TIP3    H276094   6.076   2.877   1.079  0.7605 -1.4493 -0.4236
18227TIP3   OH276095   0.827   2.661   1.007 -0.0675 -0.1718  0.1549
18227TIP3    H176096   0.781   2.743   0.989  0.5856  0.0617 -0.5635
18227TIP3    H276097   0.910   2.688   1.047 -0.1645 -0.5228  0.5962
18228TIP3   OH276098   1.508   6.466   5.184 -0.9175  0.3674 -0.3585
18228TIP3    H176099   1.467   6.550   5.202  0.2505  0.7271  0.7787
18228TIP3    H276100   1.523   6.427   5.270 -0.8747 -0.7335 -0.8442
18229TIP3   OH276101   6.716   4.638  13.828 -0.2829  0.3379  0.3964
18229TIP3    H176102   6.679   4.683  13.904 -0.1542 -0.6687  1.0757
18229TIP3    H276103   6.771   4.569  13.865 -0.5562 -0.4554 -0.6111
18230TIP3   OH276104   5.416   0.884  15.213  0.3006 -0.1650  0.0899
18230TIP3    H176105   5.349   0.895  15.281  0.5311 -0.1090  0.3099
18230TIP3    H276106   5.422   0.970  15.171 -0.8955 -0.5772 -0.9970
18231TIP3   OH276107   2.768   5.998  16.149 -0.0208 -0.0742 -0.4235
18231TIP3    H176108   2.826   5.926  16.175  2.1881  1.5367 -0.6027
18231TIP3    H276109   2.741   6.038  16.231  0.1668 -0.0490 -0.3753
18232TIP3   OH276110   6.067   1.444  14.551 -0.0851 -0.0842 -0.0311
18232TIP3    H176111   6.128   1.426  14.478 -0.5161  1.0961 -0.7084
18232TIP3    H276112   6.056   1.539  14.549 -0.6507 -0.1193  1.1534
18233TIP3   OH276113   4.483   3.405  13.779 -0.3767 -0.0203  0.1133
18233TIP3    H176114   4.520   3.492  13.762  0.7832 -0.7286 -1.1784
18233TIP3    H276115   4.441   3.380  13.697 -3.5628  0.5844  1.3930
18234TIP3   OH276116   4.644   0.940  12.028 -0.3120  0.2633  0.0302
18234TIP3    H176117   4.703   1.009  11.996 -1.4867  0.4311 -1.9636
18234TIP3    H276118   4.702   0.869  12.053  0.7867  0.3391 -2.0952
18235TIP3   OH276119   1.558   2.703  10.962 -0.2786  0.2812 -0.1337
18235TIP3    H176120   1.609   2.637  10.915  1.3647  0.9531  0.6416
18235TIP3    H276121   1.506   2.653  11.025 -1.2168 -0.4764 -1.4309
18236TIP3   OH276122   1.653   2.468   6.281  0.0844 -0.0826 -0.3753
18236TIP3    H176123   1.716   2.486   6.351  1.5841 -0.2790 -1.6538
18236TIP3    H276124   1.689   2.393   6.234 -1.6833 -0.9244 -0.4657
18237TIP3   OH276125   5.544   1.669   3.735  0.5286  0.3674 -0.4459
18237TIP3    H176126   5.578   1.614   3.805 -0.1040  0.9978  0.3674
18237TIP3    H276127   5.507   1.745   3.779 -1.1368  0.1344 -1.3688
18238TIP3   OH276128   3.908   2.078  15.087 -0.5150 -0.4110  0.2115
18238TIP3    H176129   3.827   2.030  15.074 -1.6442  1.1179  1.3741
18238TIP3    H276130   3.959   2.024  15.148 -0.5528 -1.4400 -0.6326
18239TIP3   OH276131   3.929   4.880  16.771  0.3286  0.5155  0.1339
18239TIP3    H176132   3.928   4.799  16.720  0.7135  0.2896  0.4784
18239TIP3    H276133   4.017   4.915  16.758  0.3346  0.6057  0.4175
18240TIP3   OH276134   3.876   4.120  10.867  0.1553  0.2081 -0.2923
18240TIP3    H176135   3.927   4.171  10.804  1.7905 -0.0395  0.7853
18240TIP3    H276136   3.871   4.176  10.944  1.4012 -0.9283  0.6704
18241TIP3   OH276137   4.205   1.259   5.837 -0.1279 -0.2292  1.0181
18241TIP3    H176138   4.124   1.210   5.824 -2.1244  2.7406  1.1418
18241TIP3    H276139   4.258   1.205   5.895 -1.7776 -2.4975  0.5454
18242TIP3   OH276140   6.400   6.101  12.574  0.9728 -0.0883  0.4797
18242TIP3    H176141   6.395   6.027  12.513 -0.2533  0.0492  0.3887
18242TIP3    H276142   6.483   6.144  12.553  0.4568  0.1108 -1.2811
18243TIP3   OH276143   3.507   4.185   1.634 -0.2115 -0.0167 -0.1627
18243TIP3    H176144   3.502   4.134   1.715  1.8992 -1.5043 -0.8769
18243TIP3    H276145   3.489   4.121   1.565  0.8464  0.5562 -0.9988
18244TIP3   OH276146   4.488   2.101   2.352  0.8204 -0.2856 -0.3190
18244TIP3    H176147   4.441   2.103   2.435 -3.8819 -0.8454 -2.6318
18244TIP3    H276148   4.454   2.024   2.306  0.1905  1.9635 -4.1287
18245TIP3   OH276149   2.446   6.542   1.346  0.2444 -0.4138 -0.1774
18245TIP3    H176150   2.360   6.580   1.328  0.1094 -0.8398 -0.4429
18245TIP3    H276151   2.428   6.464   1.398  0.5616  0.2099  0.9048
18246TIP3   OH276152   6.043   0.315   3.112 -0.2896  0.1201 -0.4644
18246TIP3    H176153   6.126   0.285   3.151 -0.8034  1.2672  1.6750
18246TIP3    H276154   5.982   0.244   3.129 -0.6215  0.7786  1.3886
18247TIP3   OH276155   3.972   1.275  13.780  0.2473 -0.0146  0.4890
18247TIP3    H176156   3.916   1.343  13.743  0.1553 -0.7437 -0.7643
18247TIP3    H276157   4.028   1.322  13.843 -1.5007  0.7825  1.5280
18248TIP3   OH276158   5.147   5.980  12.653 -0.7251 -0.3032 -0.4442
18248TIP3    H176159   5.062   6.024  12.658 -0.1216  0.8651  0.0825
18248TIP3    H276160   5.210   6.051  12.655  0.3182 -1.2185  1.1745
18249TIP3   OH276161   2.325   1.485  12.980 -0.6479  0.1743 -0.4983
18249TIP3    H176162   2.363   1.429  13.048  0.3953  0.7542 -0.5864
18249TIP3    H276163   2.308   1.426  12.907 -1.8020 -0.4629  0.2501
18250TIP3   OH276164   5.456   0.760   3.764 -0.4034 -0.1138  0.2190
18250TIP3    H176165   5.361   0.763   3.754 -0.2293  0.4083 -1.6326
18250TIP3    H276166   5.488   0.829   3.706  1.1798 -1.3256 -0.4079
18251TIP3   OH276167   6.751   2.721  17.058  0.0427 -0.3352  0.1646
18251TIP3    H176168   6.704   2.646  17.019 -0.5948 -0.8358  1.8076
18251TIP3    H276169   6.792   2.764  16.983 -0.2813 -1.8319 -0.9411
18252TIP3   OH276170   0.160   4.043  10.466  0.0588  0.3409  0.3784
18252TIP3    H176171   0.070   4.017  10.484  0.0032 -0.2923 -0.7512
18252TIP3    H276172   0.205   4.033  10.550 -1.0988  1.5073  1.1659
18253TIP3   OH276173   3.549   2.903   6.202  0.6175  0.4270  0.6727
18253TIP3    H176174   3.508   2.816   6.203 -0.5194  0.9253  2.6274
18253TIP3    H276175   3.641   2.886   6.223  0.1122 -0.2299  2.5465
18254TIP3   OH276176   4.574   5.900   1.288  0.1097 -0.3284 -0.3016
18254TIP3    H176177   4.633   5.976   1.293 -0.5844  0.2105 -0.2185
18254TIP3    H276178   4.487   5.938   1.276 -0.1539 -1.1430 -1.0220
18255TIP3   OH276179   5.798   6.287   2.998 -0.4004 -0.1075  0.4427
18255TIP3    H176180   5.829   6.359   3.053 -0.9219  0.6548 -0.2257
18255TIP3    H276181   5.871   6.271   2.937 -1.0026  1.2439 -0.7079
18256TIP3   OH276182   0.095   4.909  13.482  0.2300  0.8134  0.4064
18256TIP3    H176183   0.059   4.820  13.484 -0.9858  1.2609 -0.4846
18256TIP3    H276184   0.066   4.949  13.564 -2.0426  1.4061 -0.6094
18257TIP3   OH276185   4.256   2.329   2.129  0.1581 -0.0773  0.3733
18257TIP3    H176186   4.242   2.326   2.034  0.6959  3.0195  0.0905
18257TIP3    H276187   4.351   2.342   2.139  0.6139 -3.4027  1.5481
18258TIP3   OH276188   4.139   1.858  15.731 -0.5555  0.6947  0.1309
18258TIP3    H176189   4.224   1.899  15.715 -0.1566 -0.7014 -1.5956
18258TIP3    H276190   4.083   1.929  15.761  0.3980  2.2910 -1.6961
18259TIP3   OH276191   4.260   3.536   3.832 -0.3492  0.3662 -0.2603
18259TIP3    H176192   4.348   3.510   3.857 -0.4349 -0.4815 -0.7791
18259TIP3    H276193   4.221   3.456   3.797 -0.8599  1.0527 -1.3082
18260TIP3   OH276194   2.875   2.917  14.493 -0.1319 -0.2718  0.3900
18260TIP3    H176195   2.800   2.949  14.544  1.1375  2.1212  0.9275
18260TIP3    H276196   2.913   2.848  14.548 -2.2113 -1.9800 -0.1824
18261TIP3   OH276197   6.590   5.515  11.404  0.7459  0.7032 -0.2521
18261TIP3    H176198   6.495   5.505  11.397  0.7930  0.3605 -0.4448
18261TIP3    H276199   6.620   5.528  11.314  0.7441  2.1870 -0.0657
18262TIP3   OH276200   3.589   0.800  16.532  0.4460 -0.0181 -0.0163
18262TIP3    H176201   3.675   0.840  16.545  0.1580  0.5446  0.1927
18262TIP3    H276202   3.531   0.848  16.591 -0.3712  0.8697 -1.4700
18263TIP3   OH276203   4.576   5.414   0.575  0.0378  0.0400  0.3733
18263TIP3    H176204   4.491   5.458   0.562 -1.2036 -1.5802  2.4231
18263TIP3    H276205   4.561   5.324   0.546  0.7907 -0.4921  1.5787
18264TIP3   OH276206   5.740   0.127   4.735  0.0383 -0.5766 -0.1008
18264TIP3    H176207   5.774   0.040   4.712  3.0018  0.3830  0.1791
18264TIP3    H276208   5.785   0.149   4.817 -0.2622  1.3916 -0.4143
18265TIP3   OH276209   5.351   5.762  15.923  0.0215  0.1679  0.0739
18265TIP3    H176210   5.274   5.819  15.928 -0.7787 -0.9701  2.8805
18265TIP3    H276211   5.411   5.797  15.989  0.0117 -1.4562  0.9978
18266TIP3   OH276212   4.764   6.406  14.077 -0.8999  0.0959 -0.4338
18266TIP3    H176213   4.781   6.447  13.993 -1.1806  0.6539 -0.2252
18266TIP3    H276214   4.754   6.313  14.058 -0.6653  0.1810 -0.9708
18267TIP3   OH276215   1.000   4.194  11.961  0.1998 -0.2473  0.0045
18267TIP3    H176216   1.009   4.287  11.982 -0.6249 -0.1577 -0.0041
18267TIP3    H276217   1.074   4.175  11.904 -0.3034  0.7245 -1.0295
18268TIP3   OH276218   4.624   5.052  16.402 -0.4731 -0.8388  0.4568
18268TIP3    H176219   4.698   5.110  16.381 -0.7318 -0.9986 -0.9914
18268TIP3    H276220   4.614   5.059  16.497  1.2856 -0.6714  0.6650
18269TIP3   OH276221   0.087   3.613   3.072 -0.1039 -0.0720 -0.3291
18269TIP3    H176222   0.067   3.644   2.983  0.4154  0.7578 -0.1699
18269TIP3    H276223   0.114   3.522   3.061  1.5358  0.4809 -1.2480
18270TIP3   OH276224   5.342   3.119   1.035 -0.5609  0.0325  0.4038
18270TIP3    H176225   5.396   3.181   1.082 -1.9057  0.0355  2.0300
18270TIP3    H276226   5.366   3.033   1.071  0.6690 -0.3790 -1.2232
18271TIP3   OH276227   6.347   6.590   1.390  0.0864 -0.3032 -0.0954
18271TIP3    H176228   6.258   6.556   1.386 -0.4631  1.0022  0.6531
18271TIP3    H276229   6.399   6.528   1.338 -1.2322 -1.1194 -0.4638
18272TIP3   OH276230   4.723   6.633  14.216  0.2479 -0.1115 -0.3749
18272TIP3    H176231   4.781   6.622  14.291 -1.2523  0.5985  0.9388
18272TIP3    H276232   4.718   6.546  14.177 -0.1336 -0.8555  1.2618
18273TIP3   OH276233   6.408   6.446  15.655  0.1535 -0.5016 -0.1762
18273TIP3    H176234   6.502   6.431  15.643  0.0472 -1.6134  0.3076
18273TIP3    H276235   6.400   6.541  15.658  0.6729 -0.0272 -5.0443
18274TIP3   OH276236   4.363   3.301  14.025 -0.0580  0.5068 -0.0265
18274TIP3    H176237   4.400   3.319  13.938  0.0513 -0.1756 -0.1302
18274TIP3    H276238   4.405   3.365  14.083  1.8599 -0.7101 -0.0040
18275TIP3   OH276239   5.562   5.584   4.781  0.4573 -0.0939  0.3993
18275TIP3    H176240   5.541   5.621   4.866 -0.7614 -1.2388  0.6289
18275TIP3    H276241   5.570   5.490   4.797 -1.0954 -0.4948 -0.9496
18276TIP3   OH276242   6.139   3.657   3.438  0.2014 -0.0574 -0.6889
18276TIP3    H176243   6.058   3.681   3.394 -1.2114 -1.2862  1.0998
18276TIP3    H276244   6.188   3.739   3.444 -1.9163  1.2311  0.1577
18277TIP3   OH276245   5.275   4.326   5.548  0.6712  0.3308 -0.1509
18277TIP3    H176246   5.347   4.363   5.598  0.4253 -0.5464  0.8891
18277TIP3    H276247   5.202   4.386   5.563  0.5601  0.0024  0.6698
18278TIP3   OH276248   4.485   1.593   2.610 -0.2271 -0.1934  0.2075
18278TIP3    H176249   4.486   1.644   2.691 -2.3083  0.3063 -0.0136
18278TIP3    H276250   4.444   1.651   2.546  0.1098 -1.0837 -0.8459
18279TIP3   OH276251   4.661   5.438   2.055  0.7818  0.4152  0.4708
18279TIP3    H176252   4.667   5.458   2.148 -1.0769  1.0061  0.4964
18279TIP3    H276253   4.641   5.345   2.051  0.1131  0.5463  0.7006
18280TIP3   OH276254   3.792   0.341   2.628  0.2085 -0.3359  0.4866
18280TIP3    H176255   3.708   0.358   2.586  0.5267  2.8466  0.9224
18280TIP3    H276256   3.813   0.251   2.603 -2.8231 -0.9141 -0.4359
18281TIP3   OH276257   1.097   2.256   3.924 -0.1512 -0.0455  0.4897
18281TIP3    H176258   1.097   2.342   3.966 -1.4618 -0.6845  1.8534
18281TIP3    H276259   1.141   2.198   3.986 -2.5987 -1.1185  1.3494
18282TIP3   OH276260   6.586   6.218  16.782 -0.1294  0.1171 -0.2143
18282TIP3    H176261   6.553   6.208  16.693  2.5074 -0.0860 -1.2639
18282TIP3    H276262   6.662   6.159  16.786 -0.6791 -0.5455  2.4811
18283TIP3   OH276263   5.107   3.007   2.990  0.2748  0.3063 -0.2568
18283TIP3    H176264   5.092   3.078   3.052 -0.2568  0.1007 -0.1443
18283TIP3    H276265   5.078   2.928   3.036  0.4193  0.0791 -0.5523
18284TIP3   OH276266   6.357   2.522  16.313 -0.1359  0.0704 -0.4490
18284TIP3    H176267   6.376   2.612  16.285 -1.1475  0.6252  0.5696
18284TIP3    H276268   6.304   2.532  16.392  0.1248 -1.4365 -0.0524
18285TIP3   OH276269   1.169   4.813   0.894 -0.2686  0.6604  0.0418
18285TIP3    H176270   1.093   4.768   0.859 -0.5646  0.4555  0.9229
18285TIP3    H276271   1.242   4.784   0.839 -0.8344  0.9631 -0.8862
18286TIP3   OH276272   5.618   4.617  15.549  0.3170 -0.3672  0.5888
18286TIP3    H176273   5.595   4.630  15.457 -1.3973 -0.8987  0.9002
18286TIP3    H276274   5.624   4.705  15.586  1.2874 -0.1422 -0.0646
18287TIP3   OH276275   0.705   2.609   7.015  0.3118  0.6611 -0.2216
18287TIP3    H176276   0.760   2.547   6.966 -1.1624 -0.3179 -0.7014
18287TIP3    H276277   0.615   2.581   6.997 -0.3249  1.2327  1.8265
18288TIP3   OH276278   2.581   4.889   3.977 -0.1476  0.2152 -0.2270
18288TIP3    H176279   2.649   4.860   3.916 -2.1346  0.3997 -2.6682
18288TIP3    H276280   2.560   4.978   3.949 -3.2276 -0.7550 -1.3579
18289TIP3   OH276281   0.835   1.067  15.952 -0.0126  0.1959  0.1063
18289TIP3    H176282   0.743   1.077  15.978  0.6049  0.2791  2.4581
18289TIP3    H276283   0.881   1.136  15.999  1.2813  0.1868 -1.0828
18290TIP3   OH276284   5.358   5.173  15.062  0.1782  0.1093 -0.2610
18290TIP3    H176285   5.297   5.165  14.989 -0.9012  2.8170  0.2129
18290TIP3    H276286   5.376   5.267  15.068  2.3089 -0.3071  1.3372
18291TIP3   OH276287   3.049   0.478  11.166 -0.8620 -0.5338 -0.5088
18291TIP3    H176288   3.093   0.490  11.251 -1.0275  0.5857 -0.5739
18291TIP3    H276289   3.081   0.393  11.135 -0.8558 -0.9967  0.7013
18292TIP3   OH276290   1.827   0.691  15.622  0.7407 -0.0598  0.0074
18292TIP3    H176291   1.855   0.776  15.588  0.6914  0.1011  0.3620
18292TIP3    H276292   1.908   0.647  15.647  0.6749  0.7279  1.7934
18293TIP3   OH276293   2.487   4.757   2.100 -0.3798  0.5973  0.2850
18293TIP3    H176294   2.491   4.661   2.100 -2.2881  0.4521 -1.1864
18293TIP3    H276295   2.512   4.782   2.189 -1.0309 -1.3280  1.0743
18294TIP3   OH276296   1.388   6.501   1.632  0.2216 -0.3303  0.0485
18294TIP3    H176297   1.354   6.575   1.683  0.8451 -0.5251  0.7823
18294TIP3    H276298   1.312   6.447   1.613  0.1604 -1.0551  2.1354
18295TIP3   OH276299   0.173   1.468  14.619 -0.1009 -0.2388  0.1865
18295TIP3    H176300   0.219   1.552  14.615  1.5409 -1.0801  0.6003
18295TIP3    H276301   0.195   1.425  14.536 -3.5058  0.9330 -1.5117
18296TIP3   OH276302   2.964   6.350  11.737  0.0529 -0.1249 -0.4242
18296TIP3    H176303   2.968   6.321  11.646 -0.5104 -0.3313 -0.3893
18296TIP3    H276304   2.912   6.430  11.735  0.3205  0.0562 -0.3203
18297TIP3   OH276305   2.341   2.179  16.307 -0.5543 -0.1304 -0.0064
18297TIP3    H176306   2.432   2.185  16.336  0.0452  0.5807 -1.8640
18297TIP3    H276307   2.345   2.124  16.228 -1.7079  0.0314 -0.1885
18298TIP3   OH276308   4.586   0.397   5.204  0.1497 -0.6909 -0.3791
18298TIP3    H176309   4.532   0.476   5.203  1.1495  0.0204 -1.8995
18298TIP3    H276310   4.546   0.340   5.138  0.9814 -0.3151 -1.2382
18299TIP3   OH276311   4.096   4.717  10.672 -0.0068  0.0695  0.0076
18299TIP3    H176312   4.008   4.699  10.639  0.6943  0.6400 -2.3685
18299TIP3    H276313   4.081   4.755  10.759 -2.2351  1.8319 -1.0381
18300TIP3   OH276314   2.280   3.766   2.388  0.2116  0.0235  1.0729
18300TIP3    H176315   2.267   3.740   2.297 -1.4894  0.8650  1.0276
18300TIP3    H276316   2.335   3.698   2.426 -0.7818 -1.4579 -0.0487
18301TIP3   OH276317   4.943   6.138  14.068  0.3632  0.0820 -0.5118
18301TIP3    H176318   4.894   6.178  13.996 -0.3168 -1.4202 -0.9179
18301TIP3    H276319   4.876   6.101  14.125  0.9316  0.5459  0.4753
18302TIP3   OH276320   4.307   0.447  16.749 -0.3522  0.1677  0.0324
18302TIP3    H176321   4.269   0.395  16.820  1.1118 -1.0975 -0.0522
18302TIP3    H276322   4.248   0.434  16.676 -0.5315 -0.5983  0.3033
18303TIP3   OH276323   5.870   2.358  15.679 -0.6201 -0.0875 -0.1758
18303TIP3    H176324   5.847   2.429  15.739  0.8914  2.0625 -1.9965
18303TIP3    H276325   5.964   2.366  15.667 -0.7586 -0.8956 -2.2387
18304TIP3   OH276326   5.574   1.930   2.304 -0.0131  0.2437 -0.6950
18304TIP3    H176327   5.507   1.907   2.368  1.1470  3.7333  2.1193
18304TIP3    H276328   5.552   2.018   2.275  1.2184 -0.0699 -2.8753
18305TIP3   OH276329   1.747   3.054   3.937  0.4685  1.0817  0.5212
18305TIP3    H176330   1.824   3.072   3.883  0.0409  0.3151 -0.3669
18305TIP3    H276331   1.726   2.962   3.920 -2.0143  1.8422 -1.0840
18306TIP3   OH276332   1.707   2.706  12.159 -0.2996 -0.2919 -0.5203
18306TIP3    H176333   1.800   2.689  12.145 -0.8760 -2.2981 -2.2864
18306TIP3    H276334   1.706   2.786  12.212  2.4336 -1.1252  1.0012
18307TIP3   OH276335   2.516   2.368  13.007 -0.3216  0.4002 -0.5409
18307TIP3    H176336   2.468   2.437  12.961  0.6558 -0.2913 -2.7373
18307TIP3    H276337   2.589   2.413  13.049 -1.9532  1.2354  1.5721
18308TIP3   OH276338   4.006   4.761   0.226  0.0147  0.1968 -0.3140
18308TIP3    H176339   4.039   4.758   0.316 -0.5187 -3.1360 -0.0929
18308TIP3    H276340   4.061   4.825   0.182 -0.1888  2.5091  2.4971
18309TIP3   OH276341   3.810   4.957   0.492  0.1090 -0.3601 -0.1034
18309TIP3    H176342   3.734   4.970   0.435 -1.9218 -1.5298  2.1298
18309TIP3    H276343   3.844   5.045   0.508  1.1270 -0.0176 -3.4152
18310TIP3   OH276344   1.402   1.721   3.464 -0.4680 -0.1899  0.2093
18310TIP3    H176345   1.368   1.768   3.541  1.2035  0.4593  0.5807
18310TIP3    H276346   1.460   1.654   3.500 -1.6730 -1.6095 -0.3967
18311TIP3   OH276347   2.884   6.686   4.759  0.4623  0.0407  0.1094
18311TIP3    H176348   2.976   6.668   4.778  0.2142  0.6487  2.1306
18311TIP3    H276349   2.838   6.606   4.785  0.0183  1.1868  3.3435
18312TIP3   OH276350   6.072   4.616  11.992  0.0699 -0.1248  0.9478
18312TIP3    H176351   6.033   4.703  11.991 -1.3246 -0.7000 -1.0201
18312TIP3    H276352   6.089   4.598  12.084 -0.7913  1.7021  1.5108
18313TIP3   OH276353   1.023   6.415  15.250 -0.2900 -0.2791  0.4071
18313TIP3    H176354   0.987   6.500  15.225 -1.4996  0.8444  4.9936
18313TIP3    H276355   1.118   6.427  15.248 -0.4109  0.5619 -0.7224
18314TIP3   OH276356   0.168   5.571  13.421 -0.4588 -1.0709 -0.2514
18314TIP3    H176357   0.212   5.507  13.478 -1.9130 -1.9427 -0.0504
18314TIP3    H276358   0.157   5.524  13.338  0.9510 -0.0762 -1.0350
18315TIP3   OH276359   5.350   2.750   4.129  0.2568 -0.1264  0.7032
18315TIP3    H176360   5.317   2.674   4.177 -0.8336 -0.7510 -0.9119
18315TIP3    H276361   5.343   2.724   4.037 -0.4774  2.0448  0.0858
18316TIP3   OH276362   5.390   4.081   3.965  0.2785 -0.2196 -0.2508
18316TIP3    H176363   5.382   4.175   3.951  2.0775 -0.2647 -1.9828
18316TIP3    H276364   5.318   4.043   3.915  0.7352  0.1632 -1.2207
18317TIP3   OH276365   0.735   0.856  12.369 -0.0002 -0.3403 -0.1168
18317TIP3    H176366   0.825   0.853  12.336 -0.5134 -0.9627 -1.5397
18317TIP3    H276367   0.716   0.766  12.396 -0.6471 -0.5270 -1.1381
18318TIP3   OH276368   5.505   3.828   1.259  0.2664  0.1824  0.3855
18318TIP3    H176369   5.484   3.839   1.166 -1.5732  1.6895  0.9105
18318TIP3    H276370   5.597   3.801   1.260  0.5434  0.8450 -1.8331
18319TIP3   OH276371   1.240   4.217   3.249  0.8665 -0.0400  0.4549
18319TIP3    H176372   1.246   4.185   3.339  0.0770 -0.4690  0.3608
18319TIP3    H276373   1.208   4.307   3.257 -1.5563 -0.8630  0.5116
18320TIP3   OH276374   5.558   6.681   1.855  0.2046  0.0408 -0.2257
18320TIP3    H176375   5.520   6.769   1.851 -0.1258 -0.0618  0.4772
18320TIP3    H276376   5.648   6.695   1.884 -0.1165  0.0897  0.7844
18321TIP3   OH276377   6.064   0.839   0.369 -0.0712  0.0159 -0.2035
18321TIP3    H176378   5.991   0.797   0.415 -0.4003  2.1698  1.3919
18321TIP3    H276379   6.038   0.838   0.277 -1.3368 -0.7185  0.1288
18322TIP3   OH276380   6.545   6.560   1.629  0.2544 -0.1124 -0.2959
18322TIP3    H176381   6.559   6.638   1.683 -0.7511  0.4529 -0.8179
18322TIP3    H276382   6.584   6.583   1.544  1.6455 -0.9185  0.0933
18323TIP3   OH276383   0.042   5.693  16.562 -0.6027  0.4068 -0.0259
18323TIP3    H176384   0.012   5.783  16.556 -1.7824  0.0490  0.2589
18323TIP3    H276385   0.002   5.649  16.487 -1.5593 -0.2810  0.8628
18324TIP3   OH276386   1.453   4.192   0.461 -0.5266  0.5432  0.0656
18324TIP3    H176387   1.454   4.151   0.374 -1.5602  1.6876 -0.5156
18324TIP3    H276388   1.526   4.150   0.507 -0.9291 -1.2384 -0.7940
18325TIP3   OH276389   3.072   1.554  16.736 -0.0392  0.3162 -0.3768
18325TIP3    H176390   3.149   1.584  16.785 -0.9324  1.8374  0.1626
18325TIP3    H276391   3.026   1.635  16.712 -2.2899 -0.5851  0.6563
18326TIP3   OH276392   2.014   1.890  15.785 -0.2133  0.0032 -0.0599
18326TIP3    H176393   2.076   1.841  15.839  0.2575  1.1686  0.4880
18326TIP3    H276394   2.064   1.963  15.750 -1.2469  0.9327  0.3290
18327TIP3   OH276395   5.212   6.214   3.900  0.0697  0.1751  0.0366
18327TIP3    H176396   5.189   6.192   3.810 -0.1711 -1.0603  0.3811
18327TIP3    H276397   5.204   6.309   3.904 -0.0238  0.2434 -1.2088
18328TIP3   OH276398   5.844   3.762   3.722 -0.4141  0.7134  0.5661
18328TIP3    H176399   5.922   3.817   3.713 -2.3528  3.7504  0.6655
18328TIP3    H276400   5.780   3.818   3.766 -2.6831 -1.6266  0.5121
18329TIP3   OH276401   5.266   2.525   5.769 -0.2888  0.3585 -0.1990
18329TIP3    H176402   5.302   2.448   5.812 -1.0929  0.9096  1.5441
18329TIP3    H276403   5.192   2.492   5.717 -1.1348  0.0285  1.1668
18330TIP3   OH276404   5.826   2.176   3.784  0.2930 -0.1015  0.0915
18330TIP3    H176405   5.780   2.093   3.780  0.4504 -0.2406  1.0288
18330TIP3    H276406   5.798   2.223   3.705 -1.9253  0.0723  0.9248
18331TIP3   OH276407   5.290   6.421  15.210 -0.0379  0.0610  0.4177
18331TIP3    H176408   5.379   6.385  15.212  0.1644 -0.0947 -3.2498
18331TIP3    H276409   5.253   6.387  15.129 -3.0156  1.1754  1.1904
18332TIP3   OH276410   0.147   1.201   1.329 -0.0279  0.6235  0.9135
18332TIP3    H176411   0.193   1.278   1.362  0.3410  1.1064 -0.6800
18332TIP3    H276412   0.216   1.135   1.320 -0.0330  0.6582  0.6154
18333TIP3   OH276413   1.016   1.924  15.408 -0.5163 -0.5397  0.2620
18333TIP3    H176414   0.945   1.961  15.462  0.5788 -2.0228  2.8715
18333TIP3    H276415   0.971   1.885  15.333 -2.0618  2.0336 -0.2899
18334TIP3   OH276416   0.760   0.360   2.565 -0.1609 -0.7323  0.3883
18334TIP3    H176417   0.835   0.350   2.623  1.5148  0.0988 -1.5048
18334TIP3    H276418   0.796   0.352   2.477 -2.1041  0.7337 -0.6458
18335TIP3   OH276419   0.577   0.815   4.828 -0.1462  0.2565  0.2427
18335TIP3    H176420   0.668   0.814   4.799  0.1392 -0.7723  1.1041
18335TIP3    H276421   0.571   0.744   4.893 -1.0415  1.6604  1.7716
18336TIP3   OH276422   1.823   3.431  14.926 -0.9986  0.2182 -0.7558
18336TIP3    H176423   1.733   3.405  14.948 -1.1055 -0.3487 -1.8110
18336TIP3    H276424   1.825   3.432  14.830  0.7119 -1.9248 -0.8209
18337TIP3   OH276425   2.506   4.085   1.298 -0.3523 -0.1976 -0.2044
18337TIP3    H176426   2.545   4.047   1.377 -2.2809 -1.2589  0.3317
18337TIP3    H276427   2.421   4.119   1.328 -0.2196  1.3211 -1.4289
18338TIP3   OH276428   5.225   2.536   0.893  0.3025  0.6774  0.3146
18338TIP3    H176429   5.282   2.524   0.969  0.1578  2.2035  0.6965
18338TIP3    H276430   5.245   2.625   0.862 -1.3488  0.9901  0.0467
18339TIP3   OH276431   5.611   4.279   2.584  0.0736 -0.6590 -0.1936
18339TIP3    H176432   5.704   4.303   2.581 -0.3379  0.9972 -0.4285
18339TIP3    H276433   5.587   4.286   2.676 -0.2488  0.7673 -0.3607
18340TIP3   OH276434   2.521   5.342   2.596  0.0629 -0.2398 -0.0951
18340TIP3    H176435   2.604   5.385   2.618  0.5774  0.4414 -2.9353
18340TIP3    H276436   2.465   5.358   2.671  2.5910 -1.1204  2.1574
18341TIP3   OH276437   6.257   1.268  15.143 -0.2093 -0.1073 -0.3784
18341TIP3    H176438   6.288   1.178  15.135  1.6632  0.5785 -1.4345
18341TIP3    H276439   6.246   1.281  15.237  0.8630 -1.0074 -0.1012
18342TIP3   OH276440   3.312   2.970   4.374 -0.2413 -0.7905 -0.4312
18342TIP3    H176441   3.242   2.972   4.309  0.0813 -2.0782 -0.8398
18342TIP3    H276442   3.339   2.878   4.378  1.4451 -0.3201 -0.3037
18343TIP3   OH276443   4.668   3.281   3.477 -0.0237 -0.1205 -0.1214
18343TIP3    H176444   4.751   3.325   3.499 -0.5265  0.0233  1.6616
18343TIP3    H276445   4.602   3.350   3.484 -0.6441 -0.8246  1.3478
18344TIP3   OH276446   3.872   4.838  15.766  0.0762 -0.0082 -0.2967
18344TIP3    H176447   3.798   4.833  15.705  0.4960  1.0435 -0.9089
18344TIP3    H276448   3.835   4.808  15.849 -1.4103  1.7449 -0.2580
18345TIP3   OH276449   2.769   4.252   2.309 -1.1461  0.3198 -0.0760
18345TIP3    H176450   2.764   4.254   2.404 -2.0195 -1.0167 -0.0675
18345TIP3    H276451   2.837   4.315   2.287  0.7472 -1.0163  1.5670
18346TIP3   OH276452   5.220   1.078  11.421 -0.2929 -0.0915 -0.0998
18346TIP3    H176453   5.157   1.099  11.351 -0.4219  0.0072  0.0463
18346TIP3    H276454   5.256   1.163  11.447  0.4189 -0.2113 -0.6669
18347TIP3   OH276455   0.061   2.609  14.381  0.8242 -0.1969 -0.1834
18347TIP3    H176456   0.001   2.615  14.307  1.3713 -1.0241 -0.7160
18347TIP3    H276457   0.097   2.520  14.374  1.6306  0.0747  0.4914
18348TIP3   OH276458   5.991   5.140   4.377 -0.5224 -0.2679  0.2873
18348TIP3    H176459   6.040   5.159   4.298 -1.5264  0.3990 -0.2036
18348TIP3    H276460   5.983   5.044   4.378 -1.4035 -0.2419 -1.0178
18349TIP3   OH276461   2.837   5.756   2.447  0.4638 -0.1793 -0.0628
18349TIP3    H176462   2.843   5.850   2.433 -0.7264 -0.0008  0.4780
18349TIP3    H276463   2.840   5.746   2.542  4.1574 -1.0149 -0.1432
18350TIP3   OH276464   0.403   4.299  17.003  0.5022  0.2372  0.2454
18350TIP3    H176465   0.323   4.299  17.056  1.2858 -0.1290  1.4858
18350TIP3    H276466   0.454   4.373  17.036  2.3001 -1.6818  2.1683
18351TIP3   OH276467   2.459   5.088   5.399  0.2338  0.5728 -0.5977
18351TIP3    H176468   2.424   5.014   5.350 -2.1386  0.0004  1.7264
18351TIP3    H276469   2.536   5.053   5.443  0.2447  0.0429 -1.0289
18352TIP3   OH276470   5.757   6.008  13.735  0.2614  0.8626  0.1469
18352TIP3    H176471   5.799   5.922  13.742  0.0825  0.8361  1.0361
18352TIP3    H276472   5.809   6.055  13.670 -0.0758 -0.1667 -0.9133
18353TIP3   OH276473   3.219   4.086  16.534 -0.0564 -0.3170  0.4791
18353TIP3    H176474   3.188   4.160  16.482 -2.2954 -2.1149 -0.9454
18353TIP3    H276475   3.184   4.102  16.622 -1.9980 -0.4699 -0.2223
18354TIP3   OH276476   1.348   6.411  15.318  0.4289  0.5599 -0.0693
18354TIP3    H176477   1.365   6.413  15.224 -0.1594  1.7609 -0.1755
18354TIP3    H276478   1.316   6.499  15.338 -2.0410 -0.4318  0.7495
18355TIP3   OH276479   3.661   6.457   0.830  0.8948  0.1082  0.4938
18355TIP3    H176480   3.663   6.374   0.878 -0.6975  0.1379  0.6639
18355TIP3    H276481   3.672   6.432   0.738  1.3710 -0.2035  0.6375
18356TIP3   OH276482   3.483   4.829   0.352  0.3442  0.4784 -0.0872
18356TIP3    H176483   3.430   4.778   0.413  1.2621 -0.1165  0.2232
18356TIP3    H276484   3.453   4.801   0.266  2.1212 -2.0502  0.0214
18357TIP3   OH276485   2.926   3.826  13.828  0.4470 -0.5350  0.0051
18357TIP3    H176486   2.888   3.767  13.893  1.0023 -1.2039 -0.2714
18357TIP3    H276487   2.854   3.841  13.766  0.8513 -2.5918 -1.0626
18358TIP3   OH276488   4.189   3.068   3.740 -0.0148  0.0900 -0.1966
18358TIP3    H176489   4.272   3.046   3.696  0.4464  0.1536  0.6298
18358TIP3    H276490   4.192   3.019   3.822 -0.2723  1.0098  0.3652
18359TIP3   OH276491   0.405   4.070  13.900 -0.1903 -0.1236  0.2765
18359TIP3    H176492   0.474   4.133  13.878  0.5629 -0.1941  2.2723
18359TIP3    H276493   0.375   4.096  13.987  0.0368 -2.4205  1.1090
18360TIP3   OH276494   0.721   5.025  16.967  0.6450  0.0422  0.6244
18360TIP3    H176495   0.811   5.035  16.937  0.3123  0.9002 -0.1247
18360TIP3    H276496   0.719   5.071  17.051  1.3124 -1.4651  1.5140
18361TIP3   OH276497   1.484   0.979  15.602  0.3402 -0.0567  0.1426
18361TIP3    H176498   1.436   0.953  15.681 -0.8783  0.4150 -0.4349
18361TIP3    H276499   1.558   1.030  15.636 -0.7921  1.1202  0.9525
18362TIP3   OH276500   0.112   1.731  17.148  0.3417 -0.0174 -0.0423
18362TIP3    H176501   0.146   1.772  17.068  1.0680  0.7069  0.6128
18362TIP3    H276502   0.166   1.653  17.160  0.1712 -0.1760 -0.3084
18363TIP3   OH276503   0.693   0.013  14.240  0.2385  0.3771 -0.1458
18363TIP3    H176504   0.668  -0.026  14.324 -1.9200  0.9608 -0.4574
18363TIP3    H276505   0.788   0.024  14.246  0.1380  0.4862  2.2458
18364TIP3   OH276506   5.381   4.343  16.721 -0.3579 -0.2606  1.2031
18364TIP3    H176507   5.319   4.275  16.693  0.2627  0.3392 -2.0250
18364TIP3    H276508   5.462   4.321  16.676  0.4870  1.4216  1.8245
18365TIP3   OH276509   3.496   6.468  17.030  0.1085  0.0511  0.2228
18365TIP3    H176510   3.466   6.397  17.087 -2.7469  2.3033  1.8482
18365TIP3    H276511   3.582   6.492  17.064 -0.4054 -0.3946  1.9420
18366TIP3   OH276512   6.169   5.508   5.069 -0.7883 -0.4747  1.2827
18366TIP3    H176513   6.095   5.479   5.016  0.1365 -0.5404 -0.0429
18366TIP3    H276514   6.153   5.471   5.155 -2.8548  0.4791  1.3528
18367TIP3   OH276515   4.123   4.744  12.625  0.3413  0.5562  0.0477
18367TIP3    H176516   4.050   4.744  12.563 -0.0402 -0.7016  0.4608
18367TIP3    H276517   4.088   4.785  12.704 -0.2869 -1.0000  0.6149
18368TIP3   OH276518   4.481   6.056   3.328  0.3502  0.3149  0.3055
18368TIP3    H176519   4.422   6.115   3.374  0.5463  0.9051 -0.1894
18368TIP3    H276520   4.567   6.074   3.365  0.3594  0.0939  0.3934
18369TIP3   OH276521   6.629   3.859   3.875 -0.2604 -0.1058  0.0782
18369TIP3    H176522   6.573   3.838   3.951 -0.2926 -1.1655 -0.2244
18369TIP3    H276523   6.595   3.943   3.843  1.8197  2.1434  3.1807
18370TIP3   OH276524   4.912   0.230   4.615  0.0625  0.0189  0.2179
18370TIP3    H176525   4.978   0.244   4.547  1.6363  1.1531  1.8745
18370TIP3    H276526   4.959   0.186   4.686 -1.1915  0.0551  1.1047
18371TIP3   OH276527   3.272   6.429  12.837 -0.4388  0.3475  0.0473
18371TIP3    H176528   3.295   6.336  12.848 -1.4600  0.0813  0.0614
18371TIP3    H276529   3.300   6.450  12.748 -1.6392 -0.4359 -0.5391
18372TIP3   OH276530   4.568   0.534  10.322  0.0753  0.1138  0.1713
18372TIP3    H176531   4.490   0.480  10.336  0.5445 -0.3151  1.2586
18372TIP3    H276532   4.535   0.623  10.315 -0.4139  0.1413  2.2030
18373TIP3   OH276533   1.013   4.757   3.470  0.2435  0.1189  0.1884
18373TIP3    H176534   1.093   4.704   3.466 -0.0340 -0.2529 -0.6287
18373TIP3    H276535   1.012   4.805   3.388  0.7748  1.8576  1.1543
18374TIP3   OH276536   2.278   1.569   3.312  0.1241  0.2210 -0.3363
18374TIP3    H176537   2.338   1.642   3.330  0.0242  0.2667 -0.1896
18374TIP3    H276538   2.333   1.503   3.271  0.2672  0.2823 -0.2453
18375TIP3   OH276539   1.789   3.813   6.512 -0.2244  0.1916 -0.4887
18375TIP3    H176540   1.729   3.788   6.442  0.0779  0.0351 -0.6991
18375TIP3    H276541   1.737   3.809   6.592 -0.1030 -1.5060 -0.4567
18376TIP3   OH276542   5.324   5.183  11.971  0.7434 -0.3247  0.5919
18376TIP3    H176543   5.290   5.094  11.960 -1.8248  0.4300  1.7636
18376TIP3    H276544   5.381   5.178  12.048 -0.1760 -0.7938  1.2602
18377TIP3   OH276545   3.198   2.873   5.072  0.5736 -0.4307  0.1624
18377TIP3    H176546   3.172   2.791   5.030  0.1158 -0.0519 -0.3108
18377TIP3    H276547   3.119   2.928   5.068  1.0125  0.2042  0.0409
18378TIP3   OH276548   5.538   0.971   3.051  0.0607  0.3351 -0.5282
18378TIP3    H176549   5.445   0.991   3.060  0.1098 -0.0513  1.3313
18378TIP3    H276550   5.541   0.882   3.015 -0.3187  0.0256  0.1840
18379TIP3   OH276551   1.006   2.921  12.647  0.3398  0.1036  0.5242
18379TIP3    H176552   0.947   2.955  12.579 -0.1796 -0.0685  0.8801
18379TIP3    H276553   1.086   2.972  12.637 -0.0289  0.6556  0.3181
18380TIP3   OH276554   6.250   5.257  16.943  0.0468  0.8734  0.5061
18380TIP3    H176555   6.319   5.323  16.938 -0.4743  1.3592 -0.7812
18380TIP3    H276556   6.287   5.181  16.897 -0.4463  1.3220 -0.6746
18381TIP3   OH276557   6.731   1.055   4.562 -0.1770 -0.1277  0.3206
18381TIP3    H176558   6.670   1.104   4.618 -0.1850  0.1199  0.0944
18381TIP3    H276559   6.816   1.063   4.606  0.0111  0.8750 -0.1929
18382TIP3   OH276560   1.769   0.715  11.166  0.0464 -0.0083  0.5139
18382TIP3    H176561   1.800   0.653  11.101 -2.3654 -2.3345  1.4150
18382TIP3    H276562   1.760   0.798  11.117 -1.9689 -1.6974 -2.2865
18383TIP3   OH276563   3.932   5.512  11.934  0.0438  0.1347  0.1130
18383TIP3    H176564   3.997   5.443  11.949 -1.0288 -1.3168 -1.4926
18383TIP3    H276565   3.856   5.466  11.897 -0.6922  2.1909 -1.1141
18384TIP3   OH276566   3.828   6.404  15.605  0.2410 -0.2513  0.7709
18384TIP3    H176567   3.776   6.338  15.558 -0.0977  0.2705  0.3985
18384TIP3    H276568   3.905   6.417  15.550 -0.3111  0.5976  0.1743
18385TIP3   OH276569   3.421   3.784   5.160  0.6488 -0.0188 -0.2298
18385TIP3    H176570   3.456   3.722   5.224  0.4872  0.1533  0.0290
18385TIP3    H276571   3.330   3.797   5.188  0.2707 -0.7167 -1.0807
18386TIP3   OH276572   1.947   6.096   1.070  0.0107 -0.1229 -0.3043
18386TIP3    H176573   2.040   6.107   1.086 -0.0425 -0.4745  0.2625
18386TIP3    H276574   1.937   6.004   1.045 -0.4219 -0.6139  1.5007
18387TIP3   OH276575   0.507   5.812  15.782 -0.1094 -0.0337  0.7030
18387TIP3    H176576   0.556   5.893  15.769 -1.0836  0.5414  0.5164
18387TIP3    H276577   0.504   5.771  15.696 -0.1175  0.0342  0.6708
18388TIP3   OH276578   6.768   4.067  14.114  0.3477 -0.5095 -0.7273
18388TIP3    H176579   6.713   4.001  14.070 -1.2749 -0.2849  0.8536
18388TIP3    H276580   6.709   4.142  14.127 -0.3565 -1.6311  4.5392
18389TIP3   OH276581   0.935   6.374   5.444 -0.1791  0.2181 -0.2068
18389TIP3    H176582   0.869   6.306   5.431  1.0546 -0.9391 -0.6917
18389TIP3    H276583   0.939   6.385   5.539  0.5328 -1.3942 -0.0069
18390TIP3   OH276584   0.841   2.754  11.868 -0.6260 -0.2033  0.0582
18390TIP3    H176585   0.786   2.762  11.946  0.2383 -0.7990  0.7487
18390TIP3    H276586   0.915   2.701  11.896 -1.1870 -1.9890 -1.6455
18391TIP3   OH276587   4.090   5.178  12.739  0.3237  0.5807 -0.0338
18391TIP3    H176588   4.182   5.173  12.713  0.5190  1.4328  0.4491
18391TIP3    H276589   4.071   5.272  12.740 -0.0384  0.5192  1.5792
18392TIP3   OH276590   6.611   6.320  12.648 -0.9078 -0.1871 -0.6607
18392TIP3    H176591   6.583   6.377  12.720  0.3768  0.8165 -0.9257
18392TIP3    H276592   6.661   6.250  12.691  0.9938  1.1171 -0.6142
18393TIP3   OH276593   6.763   0.493  13.363  0.3413 -0.4937 -0.4260
18393TIP3    H176594   6.799   0.404  13.366 -0.4973 -0.9683 -2.5008
18393TIP3    H276595   6.819   0.538  13.300  0.2169  0.1773 -0.0555
18394TIP3   OH276596   1.023   2.036  15.017  0.1185  0.4413  0.7122
18394TIP3    H176597   1.084   1.979  14.970 -0.2446 -0.0495  0.8309
18394TIP3    H276598   0.938   1.993  15.008  0.0604  0.2715  1.9176
18395TIP3   OH276599   1.004   0.737  11.647 -0.1791  0.2044  0.0658
18395TIP3    H176600   1.070   0.806  11.650  1.0059 -0.9111  0.6751
18395TIP3    H276601   1.003   0.709  11.556  0.3597  0.0747  0.0979
18396TIP3   OH276602   1.580   1.946   0.853  0.8066  0.6624 -0.6517
18396TIP3    H176603   1.648   1.982   0.797  1.2442 -0.8370 -1.1465
18396TIP3    H276604   1.622   1.871   0.896  0.7306  2.1526  2.2984
18397TIP3   OH276605   5.035   1.986   3.310 -0.2111 -0.5420 -0.2305
18397TIP3    H176606   5.112   1.991   3.255 -0.2141 -1.3120 -0.3270
18397TIP3    H276607   5.069   1.988   3.399 -0.0347 -1.2962 -0.2720
18398TIP3   OH276608   0.893   4.038   2.755 -0.1529  0.2020 -0.0094
18398TIP3    H176609   0.818   4.087   2.790 -1.6456 -1.5027 -0.6696
18398TIP3    H276610   0.942   4.011   2.833 -0.4367  1.0146  0.4621
18399TIP3   OH276611   0.354   3.253   4.483 -0.1770 -0.1462  0.6697
18399TIP3    H176612   0.316   3.202   4.554 -0.7474 -0.7084 -0.0276
18399TIP3    H276613   0.279   3.298   4.443 -0.7809 -3.5948 -2.6521
18400TIP3   OH276614   3.537   3.214  13.657  0.4831 -0.0428  0.5320
18400TIP3    H176615   3.529   3.309  13.652 -1.5579 -0.2524 -2.5369
18400TIP3    H276616   3.615   3.194  13.605 -0.3955 -0.1305 -0.7924
18401TIP3   OH276617   3.988   5.131  16.404 -0.4524  0.4164  0.1567
18401TIP3    H176618   4.043   5.182  16.344 -1.4825  1.9337  0.4463
18401TIP3    H276619   3.923   5.090  16.347 -0.5359  0.6654  0.0680
18402TIP3   OH276620   0.110   5.947   3.474 -0.4669  0.6022 -0.8618
18402TIP3    H176621   0.192   5.898   3.468 -0.1442  0.3017  3.0993
18402TIP3    H276622   0.060   5.920   3.397  1.4440 -2.6445 -1.1578
18403TIP3   OH276623   3.525   0.388   1.613 -0.2767 -0.1667  0.1278
18403TIP3    H176624   3.570   0.438   1.545 -1.4258 -0.6263 -1.0132
18403TIP3    H276625   3.537   0.439   1.692 -1.3828  1.9277 -0.9731
18404TIP3   OH276626   2.778   3.457   0.610 -0.0646  0.3002 -0.0818
18404TIP3    H176627   2.861   3.480   0.570  0.5182  0.6109  1.2625
18404TIP3    H276628   2.755   3.533   0.663 -0.6865 -0.1930  0.3673
18405TIP3   OH276629   2.100   2.118  15.038  0.0881  0.2866  0.0430
18405TIP3    H176630   2.107   2.023  15.050  0.7323  0.3854  0.4600
18405TIP3    H276631   2.012   2.131  15.002  0.7583 -0.6630 -2.0702
18406TIP3   OH276632   2.319   1.535  11.732  0.0509  0.4065  0.1633
18406TIP3    H176633   2.270   1.605  11.775  0.1197 -0.4473  1.6696
18406TIP3    H276634   2.256   1.495  11.672 -0.8399 -0.0304  1.3516
18407TIP3   OH276635   4.537   0.151   5.782  0.2730 -0.4384  0.0559
18407TIP3    H176636   4.559   0.170   5.873  0.5220 -1.4082  0.2125
18407TIP3    H276637   4.616   0.171   5.733  0.0174  0.4567 -0.0139
18408TIP3   OH276638   1.960   0.924   5.023  0.1738  0.8739 -0.6126
18408TIP3    H176639   1.922   0.896   5.106  0.0991  1.5272 -0.4215
18408TIP3    H276640   2.020   0.994   5.047  1.0163  0.2872 -0.9869
18409TIP3   OH276641   4.868   4.219  16.386  0.1307 -0.0884  0.1925
18409TIP3    H176642   4.883   4.128  16.360 -0.8085  0.1440 -1.2913
18409TIP3    H276643   4.899   4.270  16.310 -0.6482  0.7516  0.4275
18410TIP3   OH276644   1.232   6.737  11.673 -0.2936 -0.8773 -0.3463
18410TIP3    H176645   1.303   6.683  11.708  0.1114 -0.2489 -0.1945
18410TIP3    H276646   1.152   6.687  11.692  0.1993 -2.4437 -2.0381
18411TIP3   OH276647   0.602   3.098  13.480  0.2588  0.7179 -0.0888
18411TIP3    H176648   0.508   3.086  13.491  0.6739 -1.1464  2.6105
18411TIP3    H276649   0.622   3.180  13.525  0.1538  0.0514  1.2048
18412TIP3   OH276650   3.579   6.092  12.656  0.3538  0.0544 -0.1342
18412TIP3    H176651   3.647   6.083  12.722 -0.1519  1.9538  0.7160
18412TIP3    H276652   3.625   6.083  12.572  1.2533 -0.8681  0.4387
18413TIP3   OH276653   4.810   3.874  14.113  0.1886 -0.5310 -0.0883
18413TIP3    H176654   4.884   3.933  14.123 -0.6289  0.3572  0.9732
18413TIP3    H276655   4.840   3.809  14.050  0.7264  1.6545 -2.2351
18414TIP3   OH276656   6.138   4.446   1.385 -0.3563 -0.1951  0.0111
18414TIP3    H176657   6.170   4.536   1.399  0.7195 -0.5453 -0.0734
18414TIP3    H276658   6.057   4.441   1.436  0.0225  0.5661  0.7246
18415TIP3   OH276659   4.848   6.050  15.230 -0.6299  0.1386  0.3164
18415TIP3    H176660   4.754   6.062  15.247 -0.8890 -0.0439 -0.9005
18415TIP3    H276661   4.882   6.138  15.217 -0.9960  0.0984 -0.9949
18416TIP3   OH276662   1.716   3.644  11.339 -0.0530 -0.2797  0.1583
18416TIP3    H176663   1.724   3.731  11.380 -1.3439 -0.8069  1.6581
18416TIP3    H276664   1.652   3.657  11.269 -0.1203  0.0168  0.2717
18417TIP3   OH276665   3.097   2.378  15.204  0.2413  0.0407 -0.0136
18417TIP3    H176666   3.139   2.406  15.285  0.3389  0.6564 -0.2726
18417TIP3    H276667   3.100   2.455  15.147 -1.2809  0.1236 -0.0224
18418TIP3   OH276668   1.159   2.431   4.147 -0.0175 -0.8583  0.1236
18418TIP3    H176669   1.082   2.475   4.182 -0.0374 -0.0767 -0.8575
18418TIP3    H276670   1.200   2.390   4.223 -0.6116 -0.0752  0.8877
18419TIP3   OH276671   0.217   0.937  11.912  0.1385 -0.2414  0.1986
18419TIP3    H176672   0.192   1.021  11.950  0.4130 -0.7111  1.4869
18419TIP3    H276673   0.169   0.932  11.830 -1.2264  0.4113  0.9249
18420TIP3   OH276674   4.653   5.873  14.592  0.6272  0.0975  0.2533
18420TIP3    H176675   4.642   5.952  14.540 -1.3067 -0.6677 -0.5971
18420TIP3    H276676   4.658   5.904  14.682  2.0243  1.3026 -0.1887
18421TIP3   OH276677   6.012   4.539  12.240 -0.4760  0.3026  0.0752
18421TIP3    H176678   5.959   4.618  12.229  0.3020  0.8563  0.2656
18421TIP3    H276679   6.050   4.548  12.327  0.3575  0.1695 -0.2735
18422TIP3   OH276680   1.868   3.933   5.707 -0.1232 -0.1001  0.6437
18422TIP3    H176681   1.949   3.981   5.692  0.3807 -0.9429  0.6401
18422TIP3    H276682   1.803   3.976   5.651 -0.2300  1.9508  2.2128
18423TIP3   OH276683   0.060   2.801  15.602 -0.3833  0.0272  0.4454
18423TIP3    H176684   0.019   2.781  15.517 -0.2108  1.8189 -0.1032
18423TIP3    H276685   0.150   2.770  15.592 -0.2750  0.5104 -0.1586
18424TIP3   OH276686   0.675   6.550  15.295 -0.4876 -0.0554  0.1712
18424TIP3    H176687   0.645   6.550  15.386  1.3654  0.6267  0.8303
18424TIP3    H276688   0.761   6.592  15.298 -0.3334 -0.1178 -1.8936
18425TIP3   OH276689   6.364   4.848  12.773  0.0683 -0.0696  0.3717
18425TIP3    H176690   6.413   4.836  12.854  0.5435  0.3981  0.1651
18425TIP3    H276691   6.279   4.882  12.801  1.0165  2.3393  0.5863
18426TIP3   OH276692   0.493   4.043   3.052  0.0689 -0.1134  0.5253
18426TIP3    H176693   0.467   4.121   3.101  0.6155  0.3464  0.0979
18426TIP3    H276694   0.471   3.970   3.110 -0.7438  0.3347  0.8017
18427TIP3   OH276695   6.203   3.968   2.456  0.2375  0.0301  0.0209
18427TIP3    H176696   6.247   3.884   2.473  0.2021 -0.3358 -1.5295
18427TIP3    H276697   6.226   3.989   2.365  0.6178  1.9439  0.5178
18428TIP3   OH276698   0.381   5.986   5.540  0.2923 -0.1204  0.0804
18428TIP3    H176699   0.475   6.006   5.535  0.5211 -0.4000  2.4829
18428TIP3    H276700   0.376   5.891   5.534 -0.2282 -0.0240 -3.7719
18429TIP3   OH276701   4.029   5.863  16.152  0.3444  0.0820 -0.2288
18429TIP3    H176702   4.075   5.840  16.071  0.5160 -0.1331 -0.0717
18429TIP3    H276703   4.090   5.838  16.221  0.2784  0.4473 -0.0382
18430TIP3   OH276704   5.931   2.217  12.802  0.0690 -0.1387  0.0239
18430TIP3    H176705   6.027   2.213  12.804  0.3324  2.2268 -2.2615
18430TIP3    H276706   5.904   2.191  12.891  2.6686 -2.3403  0.3249
18431TIP3   OH276707   3.244   3.395  11.685  0.2278  0.3626  0.3985
18431TIP3    H176708   3.168   3.352  11.646  0.3716  0.0867  0.4169
18431TIP3    H276709   3.312   3.328  11.684  0.1265  0.2200  1.4760
18432TIP3   OH276710   5.766   4.770   0.361  0.1489  0.0073  0.4113
18432TIP3    H176711   5.710   4.819   0.420 -2.2496 -1.3439 -0.5887
18432TIP3    H276712   5.772   4.825   0.282 -0.5803 -0.2451  0.1720
18433TIP3   OH276713   3.817   0.912  16.156 -0.3597 -0.2265 -0.5953
18433TIP3    H176714   3.833   1.000  16.121 -0.9055 -0.4216 -1.3886
18433TIP3    H276715   3.853   0.853  16.089  0.4179 -0.6109  0.1478
18434TIP3   OH276716   0.585   1.775  16.398 -0.1043 -0.1338 -0.6747
18434TIP3    H176717   0.622   1.843  16.455  0.4121  1.8937 -3.2683
18434TIP3    H276718   0.660   1.718  16.379 -0.2929 -0.8669  0.6314
18435TIP3   OH276719   1.206   6.080   4.169 -0.2529 -0.3418 -0.8063
18435TIP3    H176720   1.169   6.053   4.253 -0.5524  0.1917 -0.7635
18435TIP3    H276721   1.276   6.141   4.192  0.2139 -0.8274 -0.9152
18436TIP3   OH276722   5.708   6.310  11.458 -0.7281 -0.2715 -0.1063
18436TIP3    H176723   5.706   6.346  11.547  0.0340  0.7873 -0.4994
18436TIP3    H276724   5.715   6.215  11.471 -0.5871 -0.1308  0.9562
18437TIP3   OH276725   1.464   6.598   3.379 -0.4734  0.7322  0.5594
18437TIP3    H176726   1.457   6.503   3.369  1.0341  0.7328 -0.9117
18437TIP3    H276727   1.440   6.634   3.294  0.7859  1.5300  0.5000
18438TIP3   OH276728   0.112   0.024  13.338 -0.1917 -0.1687  0.4166
18438TIP3    H176729   0.077  -0.033  13.270 -0.1988 -0.6355  0.8116
18438TIP3    H276730   0.185  -0.025  13.376 -1.3288 -0.7061  1.9947
18439TIP3   OH276731   5.312   6.391  16.625 -0.2006 -0.2882  0.0344
18439TIP3    H176732   5.397   6.365  16.588  1.2465  0.0818  2.7995
18439TIP3    H276733   5.266   6.309  16.638 -0.5176 -0.4692 -1.8824
18440TIP3   OH276734   0.751   5.819  17.125 -0.8037  0.0130 -0.7178
18440TIP3    H176735   0.774   5.865  17.045 -2.1730  1.5808 -0.2569
18440TIP3    H276736   0.659   5.841  17.141 -0.6327 -0.4242  1.1641
18441TIP3   OH276737   4.932   3.239   2.381 -0.2603 -0.2747  0.3631
18441TIP3    H176738   4.871   3.312   2.389 -1.7553 -1.3299 -0.8350
18441TIP3    H276739   5.016   3.275   2.410 -0.2461  2.8630 -2.8147
18442TIP3   OH276740   2.861   2.851   1.454  0.3398  1.0116 -0.6110
18442TIP3    H176741   2.797   2.805   1.402  0.9113 -0.8728  0.2546
18442TIP3    H276742   2.817   2.869   1.537  0.5931  0.6145 -0.3845
18443TIP3   OH276743   2.109   0.036  13.945 -0.3825  0.1867  0.8889
18443TIP3    H176744   2.071   0.104  14.001  0.0757 -1.2084  3.0339
18443TIP3    H276745   2.202   0.035  13.968 -0.1127 -0.1841 -0.1841
18444TIP3   OH276746   5.063   5.975  15.844  0.3593  0.0788  0.3507
18444TIP3    H176747   4.996   6.040  15.865 -0.3872 -0.7891  0.7519
18444TIP3    H276748   5.146   6.018  15.863 -0.1505  0.6969  1.2343
18445TIP3   OH276749   4.804   2.548  13.618  0.2758  0.2092  0.0090
18445TIP3    H176750   4.716   2.548  13.580 -0.2600 -0.2276  1.2018
18445TIP3    H276751   4.863   2.540  13.543 -0.7036  0.4394 -0.7995
18446TIP3   OH276752   4.801   6.664  14.485 -0.3303  0.1454 -0.0275
18446TIP3    H176753   4.849   6.745  14.499  1.8206 -1.1597  0.6695
18446TIP3    H276754   4.712   6.682  14.516 -0.1391  2.4170 -0.6312
18447TIP3   OH276755   0.540   5.385  11.154 -0.2509 -0.2697  0.3366
18447TIP3    H176756   0.598   5.418  11.086 -1.3852  1.1788  0.0306
18447TIP3    H276757   0.585   5.405  11.236  0.5523 -0.9221  0.0753
18448TIP3   OH276758   1.293   4.849  15.896 -0.0234 -0.1598  0.1677
18448TIP3    H176759   1.346   4.785  15.847  1.5897  1.0950  0.2056
18448TIP3    H276760   1.293   4.816  15.986  1.7003  0.4098  0.4027
18449TIP3   OH276761   6.795   5.832  16.899  0.0090 -0.5248 -0.1091
18449TIP3    H176762   6.831   5.902  16.844  0.6187 -1.5349 -1.0652
18449TIP3    H276763   6.752   5.877  16.971  1.0645  0.8112 -0.2698
18450TIP3   OH276764   0.759   1.172   5.814 -0.5382 -0.1800  0.2722
18450TIP3    H176765   0.817   1.159   5.739 -1.1761  0.9456 -0.4390
18450TIP3    H276766   0.679   1.210   5.777 -2.4854 -3.1850  0.9370
18451TIP3   OH276767   0.832   4.390  13.734 -0.6055  0.4232 -0.4861
18451TIP3    H176768   0.850   4.456  13.801 -2.5962  1.6407 -1.0324
18451TIP3    H276769   0.916   4.350  13.715  0.6096  2.4844  0.2497
18452TIP3   OH276770   5.264   5.464  11.519  0.1797  1.0910  0.0992
18452TIP3    H176771   5.320   5.414  11.458  0.5247  0.8144  0.6344
18452TIP3    H276772   5.202   5.509  11.462  1.0633  1.5549 -0.5316
18453TIP3   OH276773   2.603   0.053  11.057  0.2358  0.0818  0.3175
18453TIP3    H176774   2.518   0.039  11.016  0.9291 -0.5855 -0.9561
18453TIP3    H276775   2.632   0.138  11.026  1.5555 -1.1525 -2.1899
18454TIP3   OH276776   6.644   1.637  14.980 -0.0480  0.1746 -0.5117
18454TIP3    H176777   6.559   1.599  14.959 -0.6781  1.8571 -1.2391
18454TIP3    H276778   6.625   1.704  15.045  1.0987 -1.0228  1.1330
18455TIP3   OH276779   4.364   5.969   4.938 -0.1661 -0.2066  0.1965
18455TIP3    H176780   4.378   5.881   4.904  0.5841 -0.4923  1.2209
18455TIP3    H276781   4.372   5.961   5.033 -2.2572  0.5799  0.4880
18456TIP3   OH276782   6.556   2.516   4.799  0.1634  0.1279  0.0914
18456TIP3    H176783   6.596   2.454   4.738 -0.4307 -0.2980  0.1276
18456TIP3    H276784   6.572   2.602   4.759  1.3081 -0.0094  0.2289
18457TIP3   OH276785   3.502   1.922   0.308  0.1897  0.2118  0.1150
18457TIP3    H176786   3.511   1.839   0.356  0.4881  0.8436  1.1876
18457TIP3    H276787   3.516   1.899   0.217  0.0274 -0.9652  0.3715
18458TIP3   OH276788   2.189   0.643  16.807 -0.0161  0.0469  0.5256
18458TIP3    H176789   2.116   0.631  16.747 -0.8054  1.4993  1.1279
18458TIP3    H276790   2.252   0.696  16.758  0.5231 -0.9648  0.1036
18459TIP3   OH276791   3.996   1.818  13.857 -0.0514 -0.1817 -0.7971
18459TIP3    H176792   3.934   1.891  13.851 -0.8668 -0.6806  0.9034
18459TIP3    H276793   3.941   1.740  13.863  0.6643 -0.5876  1.4221
18460TIP3   OH276794   3.846   0.092   2.516  0.2161  0.1055  0.4510
18460TIP3    H176795   3.935   0.056   2.507 -0.1401 -0.6782 -0.0703
18460TIP3    H276796   3.802   0.029   2.574 -0.5632 -0.6049 -0.8672
18461TIP3   OH276797   0.112   5.520  11.192 -0.1193  0.6406 -0.2582
18461TIP3    H176798   0.108   5.496  11.285 -0.7070  1.3123 -0.1020
18461TIP3    H276799   0.032   5.484  11.154 -0.9127  2.0971 -0.0633
18462TIP3   OH276800   6.718   4.326   3.771 -0.4854  0.2751  0.2880
18462TIP3    H176801   6.710   4.285   3.857  0.4114  1.0289  0.7474
18462TIP3    H276802   6.628   4.329   3.738 -0.7988 -0.3350  1.0494
18463TIP3   OH276803   6.509   1.023   5.428  0.3712 -0.6213  0.1045
18463TIP3    H176804   6.483   0.981   5.510 -0.6917 -2.1891 -0.9913
18463TIP3    H276805   6.444   0.994   5.364  1.4293  0.2052 -1.4096
18464TIP3   OH276806   0.711   2.446   1.203  0.3261 -0.2760 -0.1095
18464TIP3    H176807   0.793   2.464   1.248 -1.2951  1.1956  2.5545
18464TIP3    H276808   0.693   2.525   1.151  0.4329 -0.4737 -0.4520
18465TIP3   OH276809   3.299   0.665  12.846 -0.1505 -0.0644 -0.1298
18465TIP3    H176810   3.384   0.645  12.807  0.1066  0.9387 -0.1186
18465TIP3    H276811   3.304   0.631  12.935  0.2955  0.1189 -0.0830
18466TIP3   OH276812   4.692   4.456  10.727  0.3541  0.2071  0.2535
18466TIP3    H176813   4.603   4.459  10.691  0.9145  0.8593 -1.1563
18466TIP3    H276814   4.731   4.380  10.685  2.0699  2.7761 -3.3233
18467TIP3   OH276815   4.814   0.470  13.360  0.3844  0.2965  0.6112
18467TIP3    H176816   4.784   0.468  13.451 -0.1184 -0.0336  0.4448
18467TIP3    H276817   4.887   0.532  13.359 -0.2325  1.0411  1.0563
18468TIP3   OH276818   5.964   5.909  11.728 -0.3255  0.0017 -0.2048
18468TIP3    H176819   6.024   5.969  11.771 -0.3224  0.3700 -0.7275
18468TIP3    H276820   5.912   5.872  11.800  0.5085 -0.3216  0.2515
18469TIP3   OH276821   1.109   6.592   3.509  0.4762 -0.1057  0.4258
18469TIP3    H176822   1.043   6.578   3.442  0.8253 -1.2348  0.2985
18469TIP3    H276823   1.072   6.660   3.565 -0.6115 -0.4348  0.1290
18470TIP3   OH276824   3.878   2.587   2.614  0.2532 -0.2998 -0.1959
18470TIP3    H176825   3.885   2.679   2.641 -1.7405 -0.4300  0.9997
18470TIP3    H276826   3.917   2.537   2.685  0.8657 -0.4106 -0.6044
18471TIP3   OH276827   4.825   4.427  13.626 -0.0406 -0.1548  0.3569
18471TIP3    H176828   4.874   4.456  13.703  1.0235  0.3624 -0.4742
18471TIP3    H276829   4.767   4.358  13.659  0.1008  0.3237  1.6813
18472TIP3   OH276830   4.803   4.222  12.556 -0.0135 -0.6779  0.4126
18472TIP3    H176831   4.872   4.203  12.492 -0.8435 -1.9271 -0.1388
18472TIP3    H276832   4.731   4.256  12.505  0.4384  1.4503  1.0890
18473TIP3   OH276833   6.036   1.306  13.275 -0.0886 -0.7136 -0.1293
18473TIP3    H176834   5.958   1.359  13.256 -0.1145 -0.9864 -0.8021
18473TIP3    H276835   6.066   1.277  13.190  1.4111  0.3014  0.0169
18474TIP3   OH276836   1.244   6.303  14.062 -0.1144 -0.2776  0.1171
18474TIP3    H176837   1.301   6.294  13.985  0.2587  0.1940  0.3380
18474TIP3    H276838   1.158   6.273  14.031  0.0103 -0.0045 -0.5120
18475TIP3   OH276839   3.594   0.311   4.336 -0.5813  0.6301 -0.4211
18475TIP3    H176840   3.665   0.347   4.389  0.7612  0.5766 -2.0875
18475TIP3    H276841   3.631   0.304   4.248 -1.4471 -2.8014 -0.6647
18476TIP3   OH276842   3.398   3.690   0.444 -0.3569 -0.1281  0.2813
18476TIP3    H176843   3.320   3.706   0.390  0.2474  0.7421 -0.3646
18476TIP3    H276844   3.375   3.613   0.497 -1.7583  0.2926  0.3268
18477TIP3   OH276845   1.758   4.157  14.291  0.6211  0.4980  0.1720
18477TIP3    H176846   1.717   4.154  14.377 -0.8912 -2.2633 -0.5212
18477TIP3    H276847   1.826   4.090  14.293 -0.2041 -0.4331 -1.0742
18478TIP3   OH276848   5.678   4.357   5.032  0.4271 -0.6284  0.2097
18478TIP3    H176849   5.725   4.275   5.045 -0.3471 -1.2831 -0.9305
18478TIP3    H276850   5.587   4.331   5.015 -0.1614  0.5563  1.3501
18479TIP3   OH276851   4.849   2.502  11.215  0.4138 -0.3316 -0.0584
18479TIP3    H176852   4.917   2.531  11.154  0.7712 -1.6983 -0.3544
18479TIP3    H276853   4.880   2.416  11.245 -0.6130 -0.4445  0.7007
18480TIP3   OH276854   6.131   6.751  13.614  0.2812  1.0783  0.2781
18480TIP3    H176855   6.210   6.743  13.669 -0.7953  1.6554  2.0114
18480TIP3    H276856   6.073   6.809  13.665 -2.0004 -0.7886 -0.0340
18481TIP3   OH276857   2.133   2.358   0.345 -0.0105 -0.5134  0.0935
18481TIP3    H176858   2.213   2.346   0.396  0.2328 -0.9997 -0.3850
18481TIP3    H276859   2.161   2.346   0.254 -0.0372  2.2228 -0.3724
18482TIP3   OH276860   2.274   5.741  14.066  0.0977 -0.0306 -0.1928
18482TIP3    H176861   2.326   5.762  14.144  0.8649 -0.6044 -0.5398
18482TIP3    H276862   2.228   5.823  14.046  0.1800  0.2304  0.6400
18483TIP3   OH276863   4.755   0.460  15.644  0.2644 -0.4822  0.8429
18483TIP3    H176864   4.709   0.536  15.679  0.8246  1.3559 -2.0186
18483TIP3    H276865   4.731   0.458  15.551  3.0302 -1.6414  0.0452
18484TIP3   OH276866   1.371   5.013   1.963 -0.0286  0.2160  0.1522
18484TIP3    H176867   1.384   4.957   2.039 -1.6140 -1.2588 -0.6023
18484TIP3    H276868   1.391   4.957   1.888  1.2007  1.5499 -0.5789
18485TIP3   OH276869   6.314   4.635   2.062  0.6564  0.1642 -0.2878
18485TIP3    H176870   6.265   4.707   2.102 -2.1292 -0.0199 -2.9440
18485TIP3    H276871   6.398   4.673   2.037  1.3341  1.0197  2.8493
18486TIP3   OH276872   0.984   0.357  14.019 -0.0553  0.0153  0.0741
18486TIP3    H176873   1.064   0.339  13.969 -0.5324  2.6161 -1.8659
18486TIP3    H276874   1.010   0.421  14.085  0.2733 -2.4116  2.4847
18487TIP3   OH276875   1.514   3.098  15.345 -0.0293  0.0480  0.2589
18487TIP3    H176876   1.523   3.071  15.254  1.0491  1.0357  0.0422
18487TIP3    H276877   1.432   3.058  15.375  0.2320 -1.3117 -0.7629
18488TIP3   OH276878   3.754   5.781  16.192  0.1459  0.3076 -0.6503
18488TIP3    H176879   3.684   5.827  16.238 -0.9661 -0.4592 -1.5468
18488TIP3    H276880   3.833   5.831  16.213 -0.6561  1.1861  0.3709
18489TIP3   OH276881   1.549   5.257  12.479  0.3074  0.2140  0.7524
18489TIP3    H176882   1.517   5.338  12.440  3.4095  1.8655  1.2988
18489TIP3    H276883   1.576   5.281  12.567  2.0800 -1.1477  0.6524
18490TIP3   OH276884   5.766   3.618  13.863 -0.0011  0.2868  0.0315
18490TIP3    H176885   5.818   3.698  13.870  1.5543 -0.6819  0.1041
18490TIP3    H276886   5.682   3.647  13.828  1.2497  1.6946 -2.0609
18491TIP3   OH276887   3.164   6.008  11.440  0.3726  0.1271 -0.4639
18491TIP3    H176888   3.193   6.033  11.527  1.4648  1.6331 -1.2241
18491TIP3    H276889   3.241   6.018  11.384  0.1947 -2.4961 -1.3523
18492TIP3   OH276890   4.894   3.904  16.805  0.1787  0.2001 -0.1534
18492TIP3    H176891   4.974   3.893  16.754  0.4266 -2.8429  0.7163
18492TIP3    H276892   4.918   3.875  16.893 -1.4608  0.9184  0.5736
18493TIP3   OH276893   0.935   3.611  12.972  0.9858 -0.1095 -0.1515
18493TIP3    H176894   0.860   3.553  12.959  1.0464 -0.1179 -0.4632
18493TIP3    H276895   0.904   3.696  12.943  0.1588  0.5300  2.3292
18494TIP3   OH276896   4.413   2.913   2.783  0.3111  0.8759  0.4023
18494TIP3    H176897   4.493   2.866   2.805  0.3141  0.2523 -0.8281
18494TIP3    H276898   4.426   3.001   2.818  0.3457  0.0355  2.6820
18495TIP3   OH276899   2.970   1.264  15.232 -0.0916 -1.0782  0.6103
18495TIP3    H176900   2.979   1.170  15.248  0.4421 -0.9967  0.8147
18495TIP3    H276901   3.042   1.304  15.281 -0.4545 -0.5421  0.7168
18496TIP3   OH276902   1.012   5.916   0.103  0.4672  0.1147  0.0557
18496TIP3    H176903   0.998   5.868   0.021  0.5251 -0.0330  0.1337
18496TIP3    H276904   1.080   5.867   0.148  1.8677  1.2904 -0.6952
18497TIP3   OH276905   4.829   2.885  15.312 -0.5790 -0.3498 -0.9275
18497TIP3    H176906   4.742   2.900  15.349  0.3198 -0.1650  1.2387
18497TIP3    H276907   4.833   2.943  15.236 -1.6706  1.0429  0.0319
18498TIP3   OH276908   0.140   0.923  11.301 -0.3780 -0.1163  0.1598
18498TIP3    H176909   0.182   0.906  11.217  2.5891 -0.0619  1.5375
18498TIP3    H276910   0.106   1.012  11.292  0.2107  0.0242 -0.8560
18499TIP3   OH276911   5.363   3.828   6.389 -0.1106 -0.2560 -0.1726
18499TIP3    H176912   5.394   3.916   6.409 -0.5999  0.1698 -1.1908
18499TIP3    H276913   5.430   3.770   6.424  1.2526  0.5969 -1.2686
18500TIP3   OH276914   2.757   3.182   4.905 -0.0818  0.5458  0.0027
18500TIP3    H176915   2.725   3.233   4.831 -0.8461  0.3576  0.1937
18500TIP3    H276916   2.678   3.146   4.945  0.5047 -2.1448 -1.0871
18501TIP3   OH276917   5.903   0.736   3.434  0.0238  0.0223  0.3905
18501TIP3    H176918   5.866   0.721   3.521 -2.2765 -0.5494 -0.6151
18501TIP3    H276919   5.827   0.753   3.378  1.5822  2.8033 -1.0946
18502TIP3   OH276920   4.730   5.842  16.561 -0.3878  0.4568 -0.1514
18502TIP3    H176921   4.657   5.900  16.583 -0.8501 -0.5056  0.9569
18502TIP3    H276922   4.786   5.844  16.638  0.3485  0.5503 -0.6768
18503TIP3   OH276923   2.982   2.757   4.486 -0.3855 -0.4333  0.0171
18503TIP3    H176924   3.023   2.832   4.528 -0.0798 -0.4241 -0.3010
18503TIP3    H276925   2.888   2.776   4.491 -0.2603  1.1054 -2.1230
18504TIP3   OH276926   0.595   2.875  16.412  0.2755  0.0063 -0.0134
18504TIP3    H176927   0.595   2.932  16.335  2.5616 -0.4205 -0.3873
18504TIP3    H276928   0.542   2.799  16.385 -1.3992  1.1540 -0.0827
18505TIP3   OH276929   6.778   0.422   5.846  0.8024  0.1309 -0.4143
18505TIP3    H176930   6.826   0.454   5.769  1.2861 -0.1023 -0.2127
18505TIP3    H276931   6.759   0.330   5.825  1.2866 -0.0474 -0.0909
18506TIP3   OH276932   1.892   3.192   4.568 -0.0428  0.1050 -0.3654
18506TIP3    H176933   1.944   3.270   4.583 -1.2992  0.9871 -0.4392
18506TIP3    H276934   1.858   3.202   4.479 -1.4368  0.2423  0.1579
18507TIP3   OH276935   2.957   3.245   5.268  0.0869  0.0186  0.5553
18507TIP3    H176936   2.957   3.340   5.278  1.2604  0.0147  0.7226
18507TIP3    H276937   3.022   3.214   5.331 -1.2240 -1.0213  1.4628
18508TIP3   OH276938   5.974   1.448  14.195  0.4668  0.6557  0.4257
18508TIP3    H176939   5.981   1.531  14.241 -0.0754  0.0300  1.7103
18508TIP3    H276940   6.034   1.389  14.243 -2.2586 -0.8118  2.3182
18509TIP3   OH276941   1.967   2.604  12.150 -0.4055  0.3027  0.4021
18509TIP3    H176942   2.039   2.666  12.160 -0.8850  0.7006  1.4293
18509TIP3    H276943   1.973   2.546  12.226 -0.5128 -0.3587 -0.0781
18510TIP3   OH276944   5.966   2.764   3.607 -0.0756  0.1713 -0.2029
18510TIP3    H176945   5.974   2.682   3.655  0.9565  0.6842  0.5639
18510TIP3    H276946   5.916   2.821   3.665 -0.2875  0.2676 -0.4788
18511TIP3   OH276947   4.050   4.246  16.570 -0.3361  0.0412 -0.5907
18511TIP3    H176948   3.993   4.273  16.641 -0.3819 -0.4233 -0.4493
18511TIP3    H276949   4.014   4.163  16.539 -0.1244  0.0739 -0.9388
18512TIP3   OH276950   4.084   3.511   3.442 -0.5636  0.2950  0.0224
18512TIP3    H176951   4.038   3.508   3.527  0.7548 -0.7125  0.7437
18512TIP3    H276952   4.144   3.585   3.450  1.8470 -1.6350  1.2941
18513TIP3   OH276953   1.792   5.937   1.301 -0.0765  0.0917 -0.3016
18513TIP3    H176954   1.866   5.950   1.360 -0.1307 -3.3728  0.7529
18513TIP3    H276955   1.815   5.861   1.249 -1.6437  0.8029 -2.1596
18514TIP3   OH276956   3.748   2.251   5.745 -0.1219  0.8070 -0.2100
18514TIP3    H176957   3.701   2.274   5.825  0.2536 -0.4330  0.3994
18514TIP3    H276958   3.713   2.309   5.678  0.6093  2.9280  1.1552
18515TIP3   OH276959   6.401   2.101  11.551  0.3283  0.3397 -0.4185
18515TIP3    H176960   6.326   2.059  11.595  0.7469  0.6853  0.6748
18515TIP3    H276961   6.419   2.045  11.475 -0.7760  0.0250 -0.4629
18516TIP3   OH276962   4.185   3.855   2.260  0.2673 -0.2631 -0.0956
18516TIP3    H176963   4.189   3.919   2.188 -0.3973 -1.0387 -0.8429
18516TIP3    H276964   4.129   3.898   2.326 -1.2498 -0.5504 -1.1291
18517TIP3   OH276965   3.006   2.777   2.890 -0.1790  0.4574 -0.0436
18517TIP3    H176966   2.968   2.690   2.886  1.5780 -0.3845  0.6313
18517TIP3    H276967   3.016   2.795   2.983  0.0026  1.1403 -0.1879
18518TIP3   OH276968   3.736   1.203  12.432  0.0712 -0.0257  0.4499
18518TIP3    H176969   3.735   1.204  12.337  1.7907 -0.5586  0.3895
18518TIP3    H276970   3.645   1.189  12.458 -0.3153 -0.5042 -1.1166
18519TIP3   OH276971   3.165   1.207   4.772  0.7496 -0.4436  0.0118
18519TIP3    H176972   3.126   1.228   4.687  0.0368  1.1529  0.6966
18519TIP3    H276973   3.146   1.283   4.827  2.3378 -0.8669  1.2294
18520TIP3   OH276974   2.817   2.296  11.336 -0.1972  0.5297 -0.0855
18520TIP3    H176975   2.810   2.388  11.309 -1.6236  0.4039 -0.1917
18520TIP3    H276976   2.744   2.252  11.293  0.8303 -0.8062 -0.5377
18521TIP3   OH276977   3.788   0.927  15.482 -0.3441 -0.3998 -0.1671
18521TIP3    H176978   3.814   0.990  15.416 -0.9729 -1.7845 -1.8244
18521TIP3    H276979   3.709   0.965  15.521 -0.2741  0.1969 -0.5913
18522TIP3   OH276980   4.907   2.148   1.745  0.5336  0.3584 -0.5993
18522TIP3    H176981   4.950   2.088   1.806  1.7510  2.8075  1.1359
18522TIP3    H276982   4.935   2.118   1.658  1.2819 -1.3690  0.1849
18523TIP3   OH276983   5.717   0.763   5.075 -0.4770  0.7356  0.0879
18523TIP3    H176984   5.682   0.710   5.147 -1.0969  0.3667 -0.4709
18523TIP3    H276985   5.662   0.842   5.075 -3.8731 -1.2966 -2.9831
18524TIP3   OH276986   4.608   2.901  12.979 -0.0203  0.3567 -0.5101
18524TIP3    H176987   4.653   2.820  13.006 -3.1891 -1.4246 -0.1375
18524TIP3    H276988   4.646   2.969  13.035  1.2032 -1.2684  0.7362
18525TIP3   OH276989   2.001   3.738  12.428 -0.2598  0.3600 -0.1746
18525TIP3    H176990   1.938   3.670  12.403 -0.1027 -0.1058  0.6624
18525TIP3    H276991   2.061   3.695  12.488  0.3061  1.0482 -0.2266
18526TIP3   OH276992   6.030   6.450  12.261  0.0342  0.0112 -0.8453
18526TIP3    H176993   5.979   6.406  12.329  0.1938  1.2230  0.0827
18526TIP3    H276994   6.100   6.388  12.239 -1.0788 -1.1429 -1.2354
18527TIP3   OH276995   1.300   0.373   1.353  0.0671 -0.5845  0.5237
18527TIP3    H176996   1.320   0.411   1.267  0.0463 -0.5490  0.5349
18527TIP3    H276997   1.301   0.278   1.337  0.6760 -0.5961  0.6195
18528TIP3   OH276998   2.689   5.049  12.661  0.2497  0.1283 -0.3943
18528TIP3    H176999   2.742   4.980  12.700  2.7131 -0.0869 -3.7273
18528TIP3    H277000   2.634   5.004  12.596 -2.4107  0.6818  1.3154
18529TIP3   OH277001   6.380   2.680  13.817  0.1687 -0.1448 -0.5175
18529TIP3    H177002   6.307   2.707  13.762 -1.0053 -0.8612  0.6250
18529TIP3    H277003   6.346   2.685  13.907  2.0711  1.1560  0.1930
18530TIP3   OH277004   5.894   3.697  13.175 -0.6400  0.0877  0.3670
18530TIP3    H177005   5.889   3.621  13.117  1.0698  1.6476 -2.0468
18530TIP3    H277006   5.806   3.705  13.211 -0.5916 -3.6789  1.7563
18531TIP3   OH277007   4.259   3.691  11.984 -0.2682  0.6908  0.1714
18531TIP3    H177008   4.164   3.678  11.995 -0.4771  2.3361  0.6034
18531TIP3    H277009   4.293   3.692  12.074  0.4978 -1.7916 -0.0151
18532TIP3   OH277010   1.324   3.558   1.351  0.3705  0.3967  0.0473
18532TIP3    H177011   1.392   3.530   1.412  1.1083 -1.0634 -1.3856
18532TIP3    H277012   1.343   3.512   1.269 -2.4908 -0.2854 -0.3622
18533TIP3   OH277013   6.410   0.093   5.927  0.5694  0.2840  0.0703
18533TIP3    H177014   6.453   0.124   6.006  0.8875 -0.5273  0.2311
18533TIP3    H277015   6.456   0.137   5.855 -0.1011  1.4644  0.3440
18534TIP3   OH277016   6.784   3.006   5.632 -0.2390  0.2315 -0.5362
18534TIP3    H177017   6.834   2.930   5.661 -2.6957 -1.9685 -1.7098
18534TIP3    H277018   6.779   3.063   5.709  0.2617 -1.5742  0.8811
18535TIP3   OH277019   3.681   1.601  15.416 -0.4772  0.4157  0.1652
18535TIP3    H177020   3.712   1.540  15.483 -2.1639 -0.2155  0.4369
18535TIP3    H277021   3.652   1.545  15.344 -0.8699  0.9568 -0.1037
18536TIP3   OH277022   5.911   1.185  12.052  0.2631  0.6765 -0.2882
18536TIP3    H177023   5.845   1.174  11.984 -0.7567  0.4435  0.7057
18536TIP3    H277024   5.994   1.170  12.008 -0.3773  0.4606 -1.4587
18537TIP3   OH277025   1.261   5.766  15.773 -0.4876  0.6745 -0.3846
18537TIP3    H177026   1.254   5.674  15.747  0.0045  0.6209 -0.3354
18537TIP3    H277027   1.172   5.792  15.795 -0.5940  0.1405 -0.1858
18538TIP3   OH277028   4.157   4.730  14.903 -0.3833  0.1468 -0.1582
18538TIP3    H177029   4.180   4.795  14.836  1.2488 -0.3706 -0.1552
18538TIP3    H277030   4.067   4.750  14.927 -0.2200  1.8097 -0.8375
18539TIP3   OH277031   3.547   1.891   5.736 -0.0518  1.1999 -0.3220
18539TIP3    H177032   3.535   1.948   5.813 -0.0809  2.0030 -0.9098
18539TIP3    H277033   3.466   1.902   5.686 -1.1767 -1.3002  0.7666
18540TIP3   OH277034   3.556   2.294   5.227 -0.3676 -0.2999  0.0536
18540TIP3    H177035   3.566   2.206   5.262  1.0592 -0.2372 -0.1623
18540TIP3    H277036   3.627   2.304   5.164  0.1992  1.4009  0.9012
18541TIP3   OH277037   6.133   5.823  16.215  0.3261 -0.6034 -0.2641
18541TIP3    H177038   6.225   5.831  16.190  0.7596 -1.4895  0.9518
18541TIP3    H277039   6.135   5.777  16.299 -1.0905  1.5745  1.0546
18542TIP3   OH277040   1.998   2.313   5.650  0.2341 -0.3442 -0.6655
18542TIP3    H177041   2.068   2.362   5.691 -0.5641 -0.1128  0.4658
18542TIP3    H277042   1.975   2.364   5.572 -0.5639  1.0835  0.4658
18543TIP3   OH277043   1.507   3.973   4.644 -0.3741  0.1220  0.1122
18543TIP3    H177044   1.493   3.880   4.627  0.9965 -0.6223  2.6253
18543TIP3    H277045   1.420   4.007   4.663 -0.9158 -0.5527 -1.0400
18544TIP3   OH277046   5.265   0.209   6.663 -0.4401 -0.1388 -0.2983
18544TIP3    H177047   5.212   0.132   6.646 -0.2651  0.0293 -1.7332
18544TIP3    H277048   5.205   0.283   6.651 -0.3224 -0.0125 -0.1207
18545TIP3   OH277049   2.200   4.908   3.432 -0.2639  0.6535 -0.3743
18545TIP3    H177050   2.282   4.951   3.409 -1.5627  2.5062 -1.8968
18545TIP3    H277051   2.204   4.823   3.388  1.2925  0.2047  0.5640
18546TIP3   OH277052   4.698   5.246  12.743 -0.4340 -0.1542  0.0623
18546TIP3    H177053   4.683   5.281  12.831  0.8805 -3.8919  1.9907
18546TIP3    H277054   4.610   5.232  12.708 -1.0471 -0.2063  1.5304
18547TIP3   OH277055   2.440   5.186  14.118  0.2274 -0.0273  0.0933
18547TIP3    H177056   2.367   5.201  14.058 -0.7504  0.3981  1.3511
18547TIP3    H277057   2.410   5.114  14.174  0.8587  0.0068  0.4821
18548TIP3   OH277058   5.122   6.148   2.689 -0.0200 -0.5868 -0.2925
18548TIP3    H177059   5.033   6.138   2.723  0.5645 -1.1699  1.1590
18548TIP3    H277060   5.167   6.201   2.755  0.8953 -0.8714 -0.6701
18549TIP3   OH277061   6.654   0.335   0.227  0.3856 -0.5064  0.1081
18549TIP3    H177062   6.595   0.286   0.169 -3.0671  1.1044  1.9456
18549TIP3    H277063   6.681   0.270   0.293 -1.5542 -0.7863  0.7069
18550TIP3   OH277064   1.863   6.105  12.284  0.4738 -0.1458 -0.2134
18550TIP3    H177065   1.938   6.163  12.299  0.3046 -0.0070  0.1108
18550TIP3    H277066   1.786   6.162  12.288  0.2240 -0.5356  1.1624
18551TIP3   OH277067   1.702   4.392   2.909  0.4550 -0.1142  0.5774
18551TIP3    H177068   1.730   4.305   2.939  0.5250 -0.3663 -0.1977
18551TIP3    H277069   1.646   4.425   2.980 -1.2656 -1.6471  0.0261
18552TIP3   OH277070   1.923   3.774   5.319  0.3012 -0.0655 -0.1234
18552TIP3    H177071   1.912   3.869   5.312  1.4091  0.0469 -0.6214
18552TIP3    H277072   2.000   3.763   5.376  0.0985 -0.6628  0.0404
18553TIP3   OH277073   1.123   5.070   0.787 -0.7762  0.0472  0.2398
18553TIP3    H177074   1.082   4.996   0.831 -0.0007 -0.9688 -0.6883
18553TIP3    H277075   1.081   5.073   0.701  0.9013 -0.8963 -0.6554
18554TIP3   OH277076   6.794   1.581  13.005  0.1618  0.1600  0.0955
18554TIP3    H177077   6.726   1.542  13.058 -0.2416  0.8179  0.0726
18554TIP3    H277078   6.856   1.618  13.068  0.3347 -0.1512  0.1118
18555TIP3   OH277079   3.488   3.430   4.991  0.4595 -0.0051  0.1270
18555TIP3    H177080   3.531   3.487   4.927  0.9982 -0.6844 -0.1243
18555TIP3    H277081   3.488   3.343   4.951  0.2850 -0.3273  0.8037
18556TIP3   OH277082   4.408   3.834   4.011  0.2863  0.0791  0.4994
18556TIP3    H177083   4.363   3.842   4.095  0.5122 -0.3177  0.6598
18556TIP3    H277084   4.337   3.831   3.946  0.1322  1.2329  0.5993
18557TIP3   OH277085   0.808   2.402  13.461  0.5360 -0.5329 -0.3266
18557TIP3    H177086   0.842   2.455  13.389  0.9580  1.0844  0.9935
18557TIP3    H277087   0.725   2.367  13.428 -0.7977  2.5792 -0.6497
18558TIP3   OH277088   4.736   4.832   5.884 -0.3479 -0.0699  0.4560
18558TIP3    H177089   4.699   4.752   5.921 -1.5944  0.2079 -0.1739
18558TIP3    H277090   4.718   4.900   5.949  0.3795 -0.2113  0.8187
18559TIP3   OH277091   6.484   2.720  14.743 -0.9048 -0.0937  0.1472
18559TIP3    H177092   6.411   2.720  14.682 -1.8525 -0.3401  1.2512
18559TIP3    H277093   6.536   2.644  14.717 -1.2561 -0.1630 -0.3839
18560TIP3   OH277094   5.434   1.209  12.161  0.4783 -0.2823  0.1830
18560TIP3    H177095   5.403   1.299  12.147  2.7711  0.5291 -0.0747
18560TIP3    H277096   5.487   1.215  12.241  2.7778 -0.8037 -1.2332
18561TIP3   OH277097   1.484   1.214  15.904  0.8071  0.0628  0.1925
18561TIP3    H177098   1.422   1.268  15.954 -0.2346 -1.2664  0.3930
18561TIP3    H277099   1.433   1.138  15.877  2.0363 -0.4557 -0.7466
18562TIP3   OH277100   2.120   2.937   5.077  0.2857 -0.2586  0.1021
18562TIP3    H177101   2.133   2.877   5.150  0.4619 -0.7173 -0.2940
18562TIP3    H277102   2.198   2.992   5.078 -0.4964  0.8691  1.2833
18563TIP3   OH277103   0.697   0.414  11.338 -0.0040 -0.4337  0.0336
18563TIP3    H177104   0.779   0.411  11.288 -0.1347  0.9874 -0.3298
18563TIP3    H277105   0.719   0.378  11.424  1.1595  0.4373  0.1207
18564TIP3   OH277106   3.478   4.896  17.154 -0.6437 -0.0331  0.1463
18564TIP3    H177107   3.539   4.840  17.202  0.0065  0.0188 -0.5974
18564TIP3    H277108   3.528   4.975  17.136 -0.6628 -0.3071 -1.1682
18565TIP3   OH277109   1.875   5.238  16.757 -0.3087  0.1302 -0.1461
18565TIP3    H177110   1.924   5.319  16.741 -0.2668 -0.1722 -1.6622
18565TIP3    H277111   1.940   5.177  16.793 -0.5074  0.9688  1.7386
18566TIP3   OH277112   3.954   5.891  13.508  0.1915 -0.2172  0.3079
18566TIP3    H177113   3.971   5.834  13.433  2.3810 -0.3746  0.8702
18566TIP3    H277114   4.021   5.868  13.572  0.3121  2.0559  1.1002
18567TIP3   OH277115   2.418   0.915   5.356 -0.5792  0.3387  0.0273
18567TIP3    H177116   2.378   0.853   5.417 -2.2308 -0.3572 -1.6725
18567TIP3    H277117   2.408   1.000   5.399  0.0709 -0.3336  1.5733
18568TIP3   OH277118   5.737   5.167   1.684 -0.1302 -0.7492  0.2648
18568TIP3    H177119   5.672   5.236   1.691  0.3360 -0.3112  0.3443
18568TIP3    H277120   5.710   5.115   1.608 -0.1038 -0.0712 -0.2157
18569TIP3   OH277121   0.576   4.590   1.095  0.1515 -0.0585  0.1100
18569TIP3    H177122   0.578   4.517   1.033 -0.5132  0.6622 -0.7707
18569TIP3    H277123   0.488   4.626   1.087 -0.2214 -0.3961  2.0159
18570TIP3   OH277124   1.876   0.528   1.081 -0.3593  0.2295 -0.4871
18570TIP3    H177125   1.870   0.436   1.056 -2.1094  0.1999 -0.1086
18570TIP3    H277126   1.940   0.531   1.151 -1.1066 -0.9033  0.2710
18571TIP3   OH277127   0.783   0.202  14.615 -0.3582  0.3602  0.0927
18571TIP3    H177128   0.699   0.209  14.660 -0.4969  0.5633 -0.1934
18571TIP3    H277129   0.801   0.108  14.613 -0.2218  0.3663  0.8006
18572TIP3   OH277130   2.203   5.942  13.164  0.4758 -0.4347 -0.8012
18572TIP3    H177131   2.256   5.888  13.105  0.9008  1.0149 -1.8045
18572TIP3    H277132   2.178   6.018  13.110 -0.5879  0.0845  0.3853
18573TIP3   OH277133   4.556   3.631   2.933 -0.0451  0.1811 -0.5267
18573TIP3    H177134   4.463   3.609   2.924 -0.7320  2.6370 -0.3524
18573TIP3    H277135   4.556   3.703   2.996  2.2027 -0.9832  0.9146
18574TIP3   OH277136   4.494   6.768   1.718 -0.6896 -0.0343  0.0879
18574TIP3    H177137   4.508   6.682   1.681 -1.4434  0.2374 -0.8623
18574TIP3    H277138   4.405   6.765   1.754 -1.3288  0.7992 -1.3278
18575TIP3   OH277139   6.337   6.711  10.514 -0.9432  0.2097 -0.6830
18575TIP3    H177140   6.303   6.700  10.603  1.0741 -1.3977 -0.0642
18575TIP3    H277141   6.301   6.637  10.465  0.2319 -0.5129 -0.4670
18576TIP3   OH277142   2.311   2.574   1.130  0.3750  0.1118  0.3028
18576TIP3    H177143   2.267   2.551   1.048 -2.3409 -0.8959  1.8966
18576TIP3    H277144   2.354   2.493   1.157 -0.0121  0.0083  0.6100
18577TIP3   OH277145   1.043   5.385   1.009 -0.2617  0.1660 -0.2435
18577TIP3    H177146   1.108   5.315   1.003  0.5591  1.0063 -1.8054
18577TIP3    H277147   1.063   5.429   1.092  0.0888 -0.6003  0.0880
18578TIP3   OH277148   0.269   4.091   6.379  0.2327 -0.2098 -0.7894
18578TIP3    H177149   0.303   4.177   6.357  2.0681 -0.5944  0.3367
18578TIP3    H277150   0.339   4.049   6.428 -1.5109 -1.4559  0.8159
18579TIP3   OH277151   1.299   2.582  15.147  0.0272 -0.4078  0.0627
18579TIP3    H177152   1.272   2.649  15.211 -2.5715 -0.6859 -0.6280
18579TIP3    H277153   1.290   2.625  15.062  2.6397 -0.3097 -0.2330
18580TIP3   OH277154   4.441   4.463   3.491  0.5638 -1.1292 -0.2519
18580TIP3    H177155   4.416   4.547   3.453  2.0930 -0.6460 -0.2845
18580TIP3    H277156   4.416   4.398   3.426 -0.4157 -0.6789 -0.3304
18581TIP3   OH277157   4.016   2.634  16.945 -0.8006 -0.6021  0.1237
18581TIP3    H177158   4.037   2.727  16.947 -0.7795 -0.6192  1.0633
18581TIP3    H277159   4.094   2.591  16.981 -1.1830 -0.9062  0.6053
18582TIP3   OH277160   5.241   5.275   5.408 -0.3555  0.0812  0.3027
18582TIP3    H177161   5.187   5.321   5.343  1.0639  1.4532  0.0284
18582TIP3    H277162   5.211   5.185   5.403 -0.6361  0.2249 -1.9466
18583TIP3   OH277163   3.952   4.095  11.337 -0.5719 -0.4397  0.1574
18583TIP3    H177164   3.862   4.119  11.359 -0.4765  0.4393 -0.3525
18583TIP3    H277165   3.975   4.151  11.263  0.4842 -0.4445  0.4532
18584TIP3   OH277166   6.499   0.678   0.892  0.2728  0.1775  0.3497
18584TIP3    H177167   6.407   0.684   0.868  0.0801 -0.4639  0.8841
18584TIP3    H277168   6.540   0.755   0.851 -0.6641  0.9912  0.9080
18585TIP3   OH277169   1.769   0.059  16.899  0.0296 -0.3734 -0.4630
18585TIP3    H177170   1.793   0.125  16.964 -1.8617 -0.6610  0.5784
18585TIP3    H277171   1.720  -0.007  16.948 -1.4699 -0.5950 -2.1545
18586TIP3   OH277172   0.545   1.330  11.472  0.2306 -0.1638  0.2208
18586TIP3    H177173   0.499   1.247  11.464  0.8154 -0.3773 -1.2306
18586TIP3    H277174   0.476   1.395  11.486 -0.3547 -0.7204 -0.0391
18587TIP3   OH277175   0.811   5.268   3.571 -0.1400  0.5671 -0.1179
18587TIP3    H177176   0.810   5.173   3.583 -1.1798  0.7247  1.2824
18587TIP3    H277177   0.720   5.293   3.561 -0.0594  1.6040  1.3920
18588TIP3   OH277178   1.950   1.331  16.608  0.7378  0.9549 -0.5227
18588TIP3    H177179   1.954   1.236  16.616  1.6877  0.9525 -0.8825
18588TIP3    H277180   2.004   1.363  16.680 -0.4446  1.2603  0.2456
18589TIP3   OH277181   5.022   0.780  12.445  0.2532  0.4374  0.2186
18589TIP3    H177182   5.112   0.805  12.420 -0.4138  0.5851 -2.3401
18589TIP3    H277183   5.016   0.688  12.422  0.4711 -0.3147  2.8542
18590TIP3   OH277184   4.206   1.504  16.705 -0.0015 -0.6915 -0.2391
18590TIP3    H177185   4.250   1.462  16.632  1.5085 -1.0795  0.8558
18590TIP3    H277186   4.200   1.596  16.680  2.1483 -0.4848 -0.1176
18591TIP3   OH277187   3.269   6.711   0.864  0.2545  0.2517  0.0056
18591TIP3    H177188   3.268   6.796   0.906  1.2131  0.3746 -0.1824
18591TIP3    H277189   3.179   6.679   0.870  0.3820  0.1858  2.2700
18592TIP3   OH277190   1.837   1.342  16.203  0.0087  0.6869 -0.6432
18592TIP3    H177191   1.775   1.413  16.220 -0.9978 -0.8293  2.7494
18592TIP3    H277192   1.793   1.287  16.138 -1.1659  0.8880 -0.0398
18593TIP3   OH277193   6.709   3.022  15.229  0.8981 -0.0805 -0.0197
18593TIP3    H177194   6.759   2.999  15.150  0.5336  1.4626 -0.7352
18593TIP3    H277195   6.730   3.114  15.244 -1.4404  0.5196 -0.1299
18594TIP3   OH277196   1.622   6.462   1.739 -0.4225  0.4490  0.2441
18594TIP3    H177197   1.591   6.489   1.826  0.4791 -0.9055  1.0411
18594TIP3    H277198   1.544   6.460   1.685 -1.1407  0.5703  1.2394
18595TIP3   OH277199   4.391   2.487  11.318  0.2898 -0.4826 -0.3078
18595TIP3    H177200   4.474   2.499  11.271  0.6917 -1.8299  0.0083
18595TIP3    H277201   4.324   2.518  11.257  0.9663 -0.2361 -0.9331
18596TIP3   OH277202   0.973   1.565  11.657 -0.1014  0.2527  0.2383
18596TIP3    H177203   0.915   1.546  11.583  1.2589  1.5752 -1.2611
18596TIP3    H277204   0.955   1.657  11.678  0.1614  0.1439  0.9850
18597TIP3   OH277205   2.530   1.456  14.094 -0.3113 -0.2920  0.7500
18597TIP3    H177206   2.511   1.397  14.022  1.2555  0.8609 -0.7018
18597TIP3    H277207   2.567   1.400  14.162  0.2329 -1.1436 -0.2173
18598TIP3   OH277208   5.423   4.861   0.893  0.6387  0.2056  0.1141
18598TIP3    H177209   5.416   4.885   0.800 -3.1405  2.9327  0.8795
18598TIP3    H277210   5.498   4.911   0.925  1.0385  0.4399 -1.1333
18599TIP3   OH277211   6.421   4.229  11.202 -0.0010 -0.2478 -0.5759
18599TIP3    H177212   6.485   4.233  11.131 -0.9737  0.4935 -1.4468
18599TIP3    H277213   6.453   4.160  11.260  1.0361 -0.5842 -1.5223
18600TIP3   OH277214   2.432   4.389  16.200 -0.2993  0.6402  0.1281
18600TIP3    H177215   2.351   4.371  16.248  0.1811  0.3753  0.8710
18600TIP3    H277216   2.464   4.302  16.174 -0.1814  0.7327 -0.0357
18601TIP3   OH277217   6.123   6.801   2.138 -0.2892  0.2813 -0.4378
18601TIP3    H177218   6.213   6.812   2.109 -0.0666  0.9631  0.4764
18601TIP3    H277219   6.087   6.890   2.139 -1.1472 -0.0334 -1.2931
18602TIP3   OH277220   3.153   0.385   0.554 -0.0223 -0.7549 -0.6871
18602TIP3    H177221   3.173   0.306   0.605 -0.1687 -1.5977 -1.8850
18602TIP3    H277222   3.118   0.352   0.472 -1.4752  0.6024 -0.6643
18603TIP3   OH277223   2.959   0.053   2.635  0.7749  0.2561  0.0682
18603TIP3    H177224   2.875   0.061   2.680  0.3709  0.4328 -0.7108
18603TIP3    H277225   2.971   0.137   2.590  1.0232 -0.0400 -0.4237
18604TIP3   OH277226   3.237   0.884   4.365  0.3549 -0.1037 -0.5637
18604TIP3    H177227   3.165   0.872   4.304  0.8184 -1.7762 -0.8504
18604TIP3    H277228   3.196   0.884   4.451 -0.0757 -0.0735 -0.7669
18605TIP3   OH277229   6.718   4.384  12.375  0.1399 -0.4553 -0.1562
18605TIP3    H177230   6.780   4.397  12.446  1.2676 -3.3638 -0.4971
18605TIP3    H277231   6.641   4.435  12.401  1.5185  0.7614  1.7637
18606TIP3   OH277232   3.989   6.049   2.978  0.2041 -0.7272 -0.1480
18606TIP3    H177233   3.943   6.008   2.904 -1.2466  1.4619 -0.5691
18606TIP3    H277234   3.969   5.993   3.053 -1.0721 -1.2194 -0.8279
18607TIP3   OH277235   0.843   3.571   3.548 -1.1553 -0.0903  0.4866
18607TIP3    H177236   0.876   3.646   3.596 -0.3204 -0.1167 -0.0371
18607TIP3    H277237   0.751   3.593   3.530 -0.8184  0.9663  0.0077
18608TIP3   OH277238   6.749   3.832  13.704 -0.4970 -0.1591 -0.0352
18608TIP3    H177239   6.766   3.738  13.710 -2.0464 -0.4234  0.6367
18608TIP3    H277240   6.697   3.842  13.624 -1.0099 -0.0027  0.3095
18609TIP3   OH277241   1.038   0.849   4.453 -0.4653 -0.5116  0.3857
18609TIP3    H177242   1.095   0.868   4.378 -0.7351 -0.3260  0.2246
18609TIP3    H277243   1.076   0.770   4.492  1.1135  0.7414  1.5158
18610TIP3   OH277244   0.858   1.416  13.833  0.3152  0.5604  0.0708
18610TIP3    H177245   0.890   1.505  13.818  2.0748  0.2787  1.7333
18610TIP3    H277246   0.763   1.425  13.835  0.4687  2.5328  0.7558
18611TIP3   OH277247   0.569   6.087  13.560 -1.0956  0.2532  0.0535
18611TIP3    H177248   0.530   6.171  13.536 -2.6263 -0.3308  0.3291
18611TIP3    H277249   0.580   6.091  13.655 -0.6606  0.3427  0.0004
18612TIP3   OH277250   6.057   1.180  16.284 -0.9402 -0.4429 -0.0639
18612TIP3    H177251   6.141   1.134  16.279 -0.2673  0.8150 -0.9977
18612TIP3    H277252   6.077   1.261  16.332 -1.6472 -0.1959 -0.1719
18613TIP3   OH277253   3.955   4.751   5.917 -0.2990  0.1743  0.7469
18613TIP3    H177254   3.917   4.666   5.940  0.0759 -0.1523  0.1625
18613TIP3    H277255   3.881   4.812   5.924 -1.0231 -0.4995 -0.6760
18614TIP3   OH277256   5.503   4.374  14.996  0.3241  0.5881  0.4256
18614TIP3    H177257   5.523   4.390  14.904 -1.4422  0.6247  0.0119
18614TIP3    H277258   5.488   4.461  15.033  1.1723  0.5844  0.8020
18615TIP3   OH277259   1.494   6.311  14.448  0.4568 -0.1121 -0.6515
18615TIP3    H177260   1.473   6.269  14.532 -0.5537 -1.6237 -1.6115
18615TIP3    H277261   1.415   6.360  14.426  0.3390 -0.5283 -1.1783
18616TIP3   OH277262   6.799   4.540   3.222 -0.4619  0.2244  0.0378
18616TIP3    H177263   6.709   4.569   3.237 -1.3635 -2.0084 -0.6688
18616TIP3    H277264   6.830   4.511   3.307 -0.5958  0.4873  0.1779
18617TIP3   OH277265   0.117   4.066  13.008 -0.0585  0.2827 -0.0005
18617TIP3    H177266   0.205   4.063  13.046  0.3646  2.3295 -0.7521
18617TIP3    H277267   0.124   4.124  12.933 -1.9931  0.2234 -0.2815
18618TIP3   OH277268   6.366   3.701   6.627  0.3558 -0.0680  0.2939
18618TIP3    H177269   6.434   3.682   6.692 -0.2671 -1.4378  0.5817
18618TIP3    H277270   6.379   3.635   6.559  0.3899  0.7461 -0.4972
18619TIP3   OH277271   1.257   5.560  13.445 -0.3656  0.4754 -0.4601
18619TIP3    H177272   1.300   5.645  13.438 -1.5025  1.2309  1.1295
18619TIP3    H277273   1.163   5.580  13.445 -0.6519 -0.6558  0.9442
18620TIP3   OH277274   0.431   2.609   4.731  0.2033 -0.0888  0.3781
18620TIP3    H177275   0.350   2.660   4.734  0.4723  0.4868 -1.2978
18620TIP3    H277276   0.500   2.674   4.724  0.8325 -0.5869  1.6187
18621TIP3   OH277277   1.933   1.012   1.811 -0.0427  0.1200  0.1950
18621TIP3    H177278   1.910   0.970   1.728  0.4579 -0.2377  0.2323
18621TIP3    H277279   2.016   1.056   1.794 -0.7195  1.3872  0.0671
18622TIP3   OH277280   5.582   5.458  16.274 -0.2617 -0.1950 -0.1330
18622TIP3    H177281   5.594   5.548  16.243  0.3237  0.4557  1.8470
18622TIP3    H277282   5.670   5.425  16.287 -0.4848 -0.8952 -0.3773
18623TIP3   OH277283   4.721   2.635   1.479 -0.7357 -0.2289  0.3420
18623TIP3    H177284   4.809   2.612   1.451 -0.8168  0.4902 -0.5581
18623TIP3    H277285   4.733   2.678   1.564 -0.0586  1.1332 -0.4150
18624TIP3   OH277286   1.222   5.617  13.715 -0.6033  0.1561  0.3863
18624TIP3    H177287   1.243   5.539  13.664  0.7097 -0.7516  2.2045
18624TIP3    H277288   1.211   5.686  13.650 -0.2989 -1.2046 -1.1832
18625TIP3   OH277289   1.980   2.047  16.466 -0.4807 -0.3852 -0.0292
18625TIP3    H177290   2.073   2.035  16.445  0.2764  3.2964  0.5031
18625TIP3    H277291   1.933   2.005  16.393  1.5102 -2.5477 -0.1934
18626TIP3   OH277292   3.137   4.665   1.388  0.8292 -0.3025  0.3662
18626TIP3    H177293   3.173   4.733   1.331 -0.9511  1.4048  1.1638
18626TIP3    H277294   3.213   4.627   1.432  1.9422  0.5492 -0.7576
18627TIP3   OH277295   4.347   1.184  12.112  0.1513 -0.1951 -0.5924
18627TIP3    H177296   4.342   1.193  12.017 -2.0897  1.7659 -0.3828
18627TIP3    H277297   4.382   1.268  12.143  1.6013 -1.0870  0.3184
18628TIP3   OH277298   0.373   2.911   0.211  0.1082 -0.4492  0.0721
18628TIP3    H177299   0.301   2.861   0.172  1.7206 -1.9465 -1.1693
18628TIP3    H277300   0.373   2.885   0.303 -1.8606  0.7966  0.4863
18629TIP3   OH277301   1.325   5.544  17.096  0.2493  0.0727 -0.0675
18629TIP3    H177302   1.365   5.532  17.009 -0.0270 -0.1289 -0.1703
18629TIP3    H277303   1.260   5.474  17.101 -0.6418  0.8663 -0.2241
18630TIP3   OH277304   0.136   1.234  12.314  0.6663  0.1603  0.0668
18630TIP3    H177305   0.125   1.329  12.319 -0.5996  0.0106  0.6272
18630TIP3    H277306   0.156   1.207  12.404 -0.6866 -0.2615  0.2705
18631TIP3   OH277307   6.376   5.474   4.756 -0.2719 -0.4607 -0.0440
18631TIP3    H177308   6.396   5.450   4.666  1.8301  1.6778 -0.2523
18631TIP3    H277309   6.285   5.449   4.768 -1.3313  1.1464 -3.5089
18632TIP3   OH277310   1.067   0.051  16.434  0.0200  0.4658  0.1955
18632TIP3    H177311   1.006   0.123  16.416  0.9627  1.4051  0.6684
18632TIP3    H277312   1.062  -0.004  16.356 -0.5118  1.1945 -0.3014
18633TIP3   OH277313   0.239   0.749   3.989  0.1523  0.1600  0.2806
18633TIP3    H177314   0.232   0.756   3.894  0.2144 -1.6590  0.0946
18633TIP3    H277315   0.302   0.816   4.014 -0.2924  1.0464 -0.8814
18634TIP3   OH277316   2.281   1.430  11.973  0.2008 -0.4281  0.4162
18634TIP3    H177317   2.188   1.448  11.986  0.9602  2.9039  2.8044
18634TIP3    H277318   2.296   1.448  11.880 -1.4290 -0.4355  0.1165
18635TIP3   OH277319   0.255   3.222  15.502  0.0182  0.0365  0.5906
18635TIP3    H177320   0.312   3.227  15.425  0.8864  2.1506  1.2832
18635TIP3    H277321   0.299   3.158  15.559 -0.2332 -0.9822 -0.3217
18636TIP3   OH277322   5.707   4.530  14.702  0.4480 -0.2620  1.3507
18636TIP3    H177323   5.693   4.558  14.612 -2.2480 -3.1168  0.7221
18636TIP3    H277324   5.780   4.584  14.733  1.4182  0.8899 -2.4560
18637TIP3   OH277325   4.003   3.494  13.182  0.2995 -0.5773  0.0234
18637TIP3    H177326   4.054   3.418  13.154  0.7047  0.1676 -1.3681
18637TIP3    H277327   3.945   3.513  13.108 -0.8538 -0.4231  0.9455
18638TIP3   OH277328   5.506   4.526  14.409 -0.4721 -0.1047  0.0749
18638TIP3    H177329   5.429   4.573  14.442  0.6918  1.6141  0.4961
18638TIP3    H277330   5.501   4.535  14.314  0.0107  1.4426  0.1626
18639TIP3   OH277331   5.580   5.279  14.559 -0.1900  0.0086  0.0239
18639TIP3    H177332   5.522   5.292  14.633 -1.1807  1.5044 -0.9531
18639TIP3    H277333   5.536   5.322  14.486  1.7656  0.5054 -0.9446
18640TIP3   OH277334   5.868   1.061  13.701 -0.4599 -0.2849  0.2991
18640TIP3    H177335   5.923   1.136  13.720 -2.7363  1.1194  1.9407
18640TIP3    H277336   5.863   1.058  13.605  0.7978  0.7608  0.1737
18641TIP3   OH277337   5.407   5.947   3.207  0.4612 -0.5336  0.0840
18641TIP3    H177338   5.394   6.042   3.198 -1.0902 -0.7959 -0.8870
18641TIP3    H277339   5.338   5.909   3.152  1.8043 -2.2165 -0.4986
18642TIP3   OH277340   6.550   1.953  12.698 -0.6282  0.1656 -0.0748
18642TIP3    H177341   6.631   2.002  12.711  0.3942 -1.5341  0.2151
18642TIP3    H277342   6.509   1.995  12.622  1.2929  0.1226 -1.2206
18643TIP3   OH277343   1.125   5.482   2.795  0.8286  0.2375  0.4060
18643TIP3    H177344   1.102   5.532   2.717 -0.1891  1.1599  1.2556
18643TIP3    H277345   1.060   5.508   2.860  0.8574 -1.5015  1.1801
18644TIP3   OH277346   5.628   0.323   6.415 -0.1919 -0.4463 -0.1630
18644TIP3    H177347   5.712   0.279   6.397  0.1540 -0.7199  1.8703
18644TIP3    H277348   5.653   0.413   6.437 -0.4456 -0.4950  0.3219
18645TIP3   OH277349   5.850   5.190  13.539 -0.2019  0.7617 -0.1287
18645TIP3    H177350   5.777   5.250  13.544 -0.5069  0.3280  1.1677
18645TIP3    H277351   5.895   5.200  13.623  0.3067 -0.1084 -0.2819
18646TIP3   OH277352   3.524   6.687  13.259 -0.6180 -0.2200  0.0418
18646TIP3    H177353   3.492   6.605  13.298  0.2711 -0.5277  0.1335
18646TIP3    H277354   3.559   6.661  13.174  0.7429 -0.1428  0.5578
18647TIP3   OH277355   1.892   2.825  14.480  0.6004 -0.0352  0.1223
18647TIP3    H177356   1.984   2.832  14.506  0.8808 -2.5060 -0.0114
18647TIP3    H277357   1.894   2.802  14.388 -0.3011  3.2036 -0.8386
18648TIP3   OH277358   2.823   4.907  16.305  0.1168 -0.3965  0.1399
18648TIP3    H177359   2.819   4.942  16.394  2.2578 -0.8465  0.4653
18648TIP3    H277360   2.734   4.876  16.288 -0.8940  1.6896  1.2537
18649TIP3   OH277361   0.304   4.726   1.287 -0.4253 -0.6078 -0.3760
18649TIP3    H177362   0.373   4.793   1.286 -0.7102 -0.2518  1.3093
18649TIP3    H277363   0.222   4.774   1.279 -0.5425 -0.9866 -1.7570
18650TIP3   OH277364   4.473   5.750   2.220  0.1174  0.8326  0.1797
18650TIP3    H177365   4.543   5.814   2.208  1.9048 -1.3031 -1.4584
18650TIP3    H277366   4.518   5.668   2.240 -2.0620 -0.1560  1.4616
18651TIP3   OH277367   4.321   2.166  10.737  0.4589 -0.0002  0.2575
18651TIP3    H177368   4.405   2.199  10.706  0.3155  1.2337  1.1311
18651TIP3    H277369   4.333   2.071  10.742  1.2090 -0.0231 -1.3013
18652TIP3   OH277370   5.207   2.800   2.607 -0.0456 -1.0315 -0.0074
18652TIP3    H177371   5.181   2.891   2.615  2.3025 -0.2401 -0.4631
18652TIP3    H277372   5.191   2.763   2.694 -1.6103 -0.3787  0.0006
18653TIP3   OH277373   5.383   3.226   2.770 -0.1845 -0.0470  0.3668
18653TIP3    H177374   5.474   3.249   2.789 -0.6710  1.6229  0.7819
18653TIP3    H277375   5.356   3.173   2.844  0.1931  0.1665  0.6620
18654TIP3   OH277376   6.406   3.648   1.947 -0.1073  0.6350  0.2099
18654TIP3    H177377   6.328   3.704   1.951 -1.0591 -0.6478  0.6165
18654TIP3    H277378   6.445   3.655   2.034  0.1493  1.1669  0.0527
18655TIP3   OH277379   3.995   3.916   2.909  0.0548  0.1598  0.2411
18655TIP3    H177380   4.053   3.851   2.949  0.1887  0.8924  1.2875
18655TIP3    H277381   3.940   3.865   2.850  3.2339 -0.2875 -2.6560
18656TIP3   OH277382   1.381   1.036  14.989  0.4734  0.3777 -0.0266
18656TIP3    H177383   1.399   1.128  15.010 -1.3044  0.8010 -0.2023
18656TIP3    H277384   1.323   1.040  14.913  1.0664 -0.9325 -0.5650
18657TIP3   OH277385   1.857   0.857   4.764  0.0516 -0.4728  0.4366
18657TIP3    H177386   1.885   0.773   4.801 -1.7830 -0.6242  1.6276
18657TIP3    H277387   1.891   0.923   4.825 -0.0646 -0.4869  0.5174
18658TIP3   OH277388   0.487   3.381   5.551  0.5572 -0.1595 -0.3472
18658TIP3    H177389   0.562   3.358   5.606  1.6998  1.5327 -1.1126
18658TIP3    H277390   0.410   3.363   5.606  1.6051  0.2162  1.3245
18659TIP3   OH277391   1.145   3.061  10.408 -0.2349 -0.0197 -0.1497
18659TIP3    H177392   1.225   3.021  10.372 -0.4327  0.2628 -0.9128
18659TIP3    H277393   1.076   2.998  10.388  0.1623 -1.6905  3.0326
18660TIP3   OH277394   5.848   3.936  14.610  0.0524  0.1703 -0.0340
18660TIP3    H177395   5.799   3.859  14.581  1.6317 -0.3728 -1.4156
18660TIP3    H277396   5.851   3.929  14.705 -0.9833 -0.7222 -0.0515
18661TIP3   OH277397   0.028   5.777   1.899 -0.4515  0.9383  0.3303
18661TIP3    H177398  -0.052   5.808   1.856 -0.2662  1.5116  0.3937
18661TIP3    H277399   0.053   5.848   1.957 -1.2704 -0.2307  2.1925
18662TIP3   OH277400   3.513   6.209  13.121 -0.1219 -0.2443  0.1516
18662TIP3    H177401   3.499   6.150  13.047 -0.5287 -0.1870  0.1819
18662TIP3    H277402   3.432   6.203  13.172  0.0168 -0.0096  0.3998
18663TIP3   OH277403   5.439   1.973   1.126 -0.0324 -0.3887 -0.1238
18663TIP3    H177404   5.534   1.975   1.131  0.0220  0.1849 -1.2511
18663TIP3    H277405   5.414   1.895   1.177  0.8413  0.8572  2.3994
18664TIP3   OH277406   0.759   5.336  12.726 -0.1303 -0.2994 -0.4392
18664TIP3    H177407   0.689   5.304  12.668 -1.3005  1.1697  0.0995
18664TIP3    H277408   0.718   5.408  12.775  1.1417 -0.7744  1.4219
18665TIP3   OH277409   4.408   4.927   4.055  0.4838 -0.2470 -0.0569
18665TIP3    H177410   4.395   4.873   4.133  2.2313 -0.5395  0.0575
18665TIP3    H277411   4.353   4.886   3.989 -0.0700 -0.7291  0.6803
18666TIP3   OH277412   4.523   3.955  14.701 -0.1978 -0.1889  0.1737
18666TIP3    H177413   4.436   3.961  14.741 -0.5039 -1.7113 -0.1821
18666TIP3    H277414   4.553   3.867  14.725  0.6801 -0.1708 -0.8293
18667TIP3   OH277415   1.048   2.545  14.214 -0.4457  0.1396  0.3166
18667TIP3    H177416   0.972   2.507  14.258 -0.6495  0.6089  0.3752
18667TIP3    H277417   1.030   2.533  14.120  0.4639 -1.7879  0.3506
18668TIP3   OH277418   2.612   4.836  15.155  0.2058  0.1238 -0.2338
18668TIP3    H177419   2.656   4.771  15.101 -0.2043  0.1176 -0.5627
18668TIP3    H277420   2.655   4.919  15.133  0.7825 -0.0356  0.2436
18669TIP3   OH277421   1.883   0.670  11.558 -0.0273  0.7521  0.1518
18669TIP3    H177422   1.891   0.585  11.600 -2.7546 -0.7755 -2.0620
18669TIP3    H277423   1.794   0.699  11.580 -0.4902  1.2225 -2.0388
18670TIP3   OH277424   4.451   0.656   4.853  0.0562 -0.4464  0.3363
18670TIP3    H177425   4.516   0.643   4.783  0.3223 -2.0363  0.8339
18670TIP3    H277426   4.398   0.730   4.823  0.3393 -0.9055 -1.4374
18671TIP3   OH277427   2.821   4.876   6.426 -0.1602 -0.1105 -0.3289
18671TIP3    H177428   2.827   4.784   6.453 -0.0381 -0.1394 -0.4548
18671TIP3    H277429   2.820   4.873   6.330 -1.7734 -0.0930 -0.3427
18672TIP3   OH277430   2.393   4.796  14.737 -0.1704 -0.0598 -0.0860
18672TIP3    H177431   2.364   4.705  14.744  1.9158 -0.6795  1.3391
18672TIP3    H277432   2.480   4.797  14.777 -0.0419  2.5272 -0.2588
18673TIP3   OH277433   5.291   0.692   3.138 -0.0978 -0.2554 -0.2140
18673TIP3    H177434   5.377   0.654   3.155  0.0318  0.3266  0.4742
18673TIP3    H277435   5.231   0.645   3.197 -0.0029  0.3105  0.3489
18674TIP3   OH277436   3.668   2.325   6.027 -0.6844  0.1007  0.2843
18674TIP3    H177437   3.716   2.403   6.055  0.6544 -0.6069  0.0454
18674TIP3    H277438   3.597   2.316   6.090  0.3263  0.3865  1.4904
18675TIP3   OH277439   0.251   0.280  15.163  0.0559 -0.5127  0.0325
18675TIP3    H177440   0.196   0.299  15.239 -0.1677  1.7015 -0.6216
18675TIP3    H277441   0.331   0.243  15.201  0.0251  0.7098  1.3693
18676TIP3   OH277442   1.643   4.586   2.413 -0.5917  0.3267  0.1259
18676TIP3    H177443   1.639   4.498   2.378  2.4966  0.0740  0.0946
18676TIP3    H277444   1.696   4.578   2.493 -1.3787  1.9472  0.8622
18677TIP3   OH277445   6.531   4.765   1.950 -0.3313  0.1966 -0.2020
18677TIP3    H177446   6.605   4.818   1.979 -0.6995 -0.3041  1.8639
18677TIP3    H277447   6.510   4.798   1.863  1.6213  1.0697 -0.3972
18678TIP3   OH277448   3.210   6.150  14.112 -0.3631 -0.3148 -0.1868
18678TIP3    H177449   3.228   6.229  14.062 -0.7033 -0.1492 -0.0538
18678TIP3    H277450   3.204   6.179  14.203  0.9108 -0.7193  0.0401
18679TIP3   OH277451   5.330   4.217   2.260 -0.4891  0.1760 -0.1135
18679TIP3    H177452   5.375   4.189   2.340  0.5542  0.9603 -0.4002
18679TIP3    H277453   5.351   4.150   2.196  0.8602  0.8665 -0.4258
18680TIP3   OH277454   0.284   1.687  13.449 -0.0045 -0.6527  0.1631
18680TIP3    H177455   0.360   1.716  13.500  1.2811  0.4842 -2.2490
18680TIP3    H277456   0.264   1.600  13.483  2.4504 -1.0293  0.8223
18681TIP3   OH277457   0.282   0.035  12.837 -0.4797  0.7533 -0.3371
18681TIP3    H177458   0.198  -0.009  12.852 -0.4470  0.6301 -0.5177
18681TIP3    H277459   0.341  -0.004  12.903 -0.5180  0.7152 -0.3254
18682TIP3   OH277460   0.409   3.967   0.220  0.5921  0.0786  0.5219
18682TIP3    H177461   0.364   3.883   0.212  1.6451 -0.4037 -0.6990
18682TIP3    H277462   0.439   3.969   0.311  0.6834 -0.9339  0.5270
18683TIP3   OH277463   3.950   0.824   5.348 -0.1875  0.3517  0.1364
18683TIP3    H177464   3.880   0.760   5.335 -0.2119  0.1828  1.0415
18683TIP3    H277465   4.018   0.777   5.396  0.1229  0.7887  0.1355
18684TIP3   OH277466   6.194   2.581   4.322  0.0765 -0.1986 -0.0259
18684TIP3    H177467   6.273   2.634   4.334  0.0505 -0.3395  0.7994
18684TIP3    H277468   6.220   2.493   4.349 -0.3115 -0.2830  0.0719
18685TIP3   OH277469   5.485   6.586   2.420 -0.5986  0.1566  0.4513
18685TIP3    H177470   5.463   6.667   2.467 -1.4583 -0.7754  1.7021
18685TIP3    H277471   5.404   6.560   2.378 -0.4141 -0.2413  0.3396
18686TIP3   OH277472   6.691   4.779   0.569 -0.2847  0.5241 -0.0990
18686TIP3    H177473   6.710   4.861   0.522  0.1860  1.0288  0.9513
18686TIP3    H277474   6.770   4.726   0.556 -1.1415 -0.4142 -2.0315
18687TIP3   OH277475   4.747   6.365   5.141  0.4302  0.3290 -0.2247
18687TIP3    H177476   4.713   6.291   5.190  2.0319 -0.7067 -0.5911
18687TIP3    H277477   4.736   6.340   5.049  0.8368  0.6012 -0.3514
18688TIP3   OH277478   4.075   2.524  16.036 -0.1481 -0.1433  0.5078
18688TIP3    H177479   4.081   2.619  16.029 -0.8348  0.1660  3.1842
18688TIP3    H277480   4.165   2.493  16.020  0.2226  0.9979  0.3239
18689TIP3   OH277481   5.691   3.340  12.370  0.3471  0.5744  0.5284
18689TIP3    H177482   5.724   3.251  12.363  1.3118  0.9199  0.5054
18689TIP3    H277483   5.605   3.337  12.329  1.0280 -0.0035 -0.9433
18690TIP3   OH277484   2.001   5.682  11.624 -0.3972 -0.8881  0.3638
18690TIP3    H177485   2.059   5.745  11.581 -2.0153  0.5286  0.1439
18690TIP3    H277486   2.001   5.607  11.566 -0.5428 -0.0017 -0.8302
18691TIP3   OH277487   4.778   2.257   0.927  0.3446  0.2934 -0.8888
18691TIP3    H177488   4.686   2.271   0.952  0.4827 -0.0082 -0.2047
18691TIP3    H277489   4.775   2.247   0.831 -0.0733  2.4217 -1.1431
18692TIP3   OH277490   2.112   0.871  12.570  0.0876 -0.6521 -0.4647
18692TIP3    H177491   2.190   0.832  12.607 -1.2915 -1.7122  1.5176
18692TIP3    H277492   2.054   0.884  12.645 -2.0282 -0.8574 -1.9794
18693TIP3   OH277493   5.572   4.702   4.309  0.3052 -0.2387  0.2030
18693TIP3    H177494   5.580   4.780   4.255  0.6464 -0.5455 -0.2034
18693TIP3    H277495   5.663   4.673   4.323  0.2086 -0.2871  0.7566
18694TIP3   OH277496   5.403   1.153  16.201 -0.1334 -1.0204  0.5763
18694TIP3    H177497   5.471   1.176  16.265  0.7201 -0.9926 -0.3295
18694TIP3    H277498   5.331   1.121  16.255 -0.8533  2.2872  1.8576
18695TIP3   OH277499   1.358   0.894   2.722  0.2426  0.0420  0.4076
18695TIP3    H177500   1.392   0.877   2.634  2.9550 -3.9770  1.9525
18695TIP3    H277501   1.428   0.945   2.765 -0.5796  1.0319  0.6202
18696TIP3   OH277502   2.084   0.446   1.525  0.5747  0.5716 -0.1748
18696TIP3    H177503   2.053   0.356   1.516  0.0467  0.5703  1.3212
18696TIP3    H277504   2.164   0.438   1.578 -0.1909  1.0594  1.0987
18697TIP3   OH277505   6.422   0.323  15.236 -0.1777  0.0192 -0.8722
18697TIP3    H177506   6.413   0.393  15.301 -0.9249 -0.7590 -0.1085
18697TIP3    H277507   6.476   0.257  15.280 -0.4329 -0.3799 -1.1563
18698TIP3   OH277508   5.409   5.509  10.914 -0.0492  0.6769  0.1269
18698TIP3    H177509   5.465   5.440  10.952 -0.7591  0.6490  1.1493
18698TIP3    H277510   5.351   5.535  10.985 -1.7383  0.3123 -1.0633
18699TIP3   OH277511   2.832   2.626  16.378  0.2183  0.3408 -0.0124
18699TIP3    H177512   2.850   2.718  16.397  3.1441  0.1122 -1.1882
18699TIP3    H277513   2.881   2.607  16.298 -1.3094 -1.9519 -0.5103
18700TIP3   OH277514   1.980   4.407   1.704  0.2301 -0.0248  0.0374
18700TIP3    H177515   2.045   4.383   1.770  1.2295  1.5470 -0.3171
18700TIP3    H277516   1.977   4.332   1.645 -0.7312 -1.4962  1.8395
18701TIP3   OH277517   0.623   2.316   0.854 -0.3331  0.1534  0.1564
18701TIP3    H177518   0.544   2.311   0.799  0.4916  0.5150 -1.1083
18701TIP3    H277519   0.600   2.269   0.934 -1.7537  0.0579 -0.2791
18702TIP3   OH277520   5.288   2.324   0.458  0.2259  0.1954  0.0634
18702TIP3    H177521   5.349   2.265   0.414  0.0467  1.1173 -1.4976
18702TIP3    H277522   5.215   2.334   0.397 -1.4947 -0.7956  1.8296
18703TIP3   OH277523   4.205   6.659  10.670 -0.4815 -0.0965 -0.7682
18703TIP3    H177524   4.209   6.627  10.580  0.2508 -0.1316 -0.7282
18703TIP3    H277525   4.285   6.710  10.681  0.1035 -1.2073  0.2889
18704TIP3   OH277526   6.318   0.418  16.975  0.8931  0.7143  0.3970
18704TIP3    H177527   6.318   0.487  17.041 -1.4777  2.1497 -0.9418
18704TIP3    H277528   6.232   0.376  16.984  1.0438  0.0763 -0.8843
18705TIP3   OH277529   0.787   3.637   2.488  0.0860 -0.7536  0.3182
18705TIP3    H177530   0.790   3.684   2.404 -0.8292  1.9271  1.6533
18705TIP3    H277531   0.878   3.640   2.519  0.4099 -1.6583 -0.4848
18706TIP3   OH277532   3.782   4.183   1.931  0.1041 -0.0517 -0.2284
18706TIP3    H177533   3.791   4.256   1.993 -0.5074  0.4412 -0.7003
18706TIP3    H277534   3.859   4.190   1.875  1.3967 -1.3414  1.2974
18707TIP3   OH277535   6.709   2.731  11.195 -0.1320  0.6496  0.3728
18707TIP3    H177536   6.714   2.637  11.181  0.3305  0.6824  0.2967
18707TIP3    H277537   6.622   2.745  11.233 -1.1173  0.4739 -1.7170
18708TIP3   OH277538   3.546   1.838  11.990  0.3083  0.1981  0.5889
18708TIP3    H177539   3.456   1.871  11.998  0.6209  1.3906 -0.4779
18708TIP3    H277540   3.536   1.745  11.970 -0.7037  0.4111  0.0342
18709TIP3   OH277541   6.180   2.438  14.009  0.2563  0.5681  0.1162
18709TIP3    H177542   6.212   2.353  14.039  0.3565  0.5465 -0.0507
18709TIP3    H277543   6.205   2.498  14.079  1.7610  0.7637 -0.5487
18710TIP3   OH277544   0.547   5.487   2.643  0.0355 -0.6358 -0.6086
18710TIP3    H177545   0.454   5.482   2.664  0.0032  0.3768 -0.4406
18710TIP3    H277546   0.591   5.490   2.727  0.0025  1.8814 -0.6027
18711TIP3   OH277547   3.321   3.543  11.900  0.2014  0.7429  0.3023
18711TIP3    H177548   3.393   3.588  11.857  0.6424 -0.3141 -0.0841
18711TIP3    H277549   3.276   3.496  11.830  0.4215 -0.3226  0.8664
18712TIP3   OH277550   0.158   1.011   4.152  0.1843 -0.7578 -0.0460
18712TIP3    H177551   0.189   1.052   4.071 -0.2774  1.2857  0.7556
18712TIP3    H277552   0.063   1.021   4.150  0.2606  0.6525  1.3858
18713TIP3   OH277553   5.029   4.556  10.990  0.3362  0.2378 -0.3432
18713TIP3    H177554   5.115   4.581  11.022  0.2962  2.0156 -1.4916
18713TIP3    H277555   4.970   4.625  11.021 -0.2815  0.1867 -1.3519
18714TIP3   OH277556   1.962   0.312   1.997 -0.5676 -0.0174 -0.0696
18714TIP3    H177557   1.946   0.287   1.906 -0.0092 -0.6333 -0.0033
18714TIP3    H277558   2.022   0.386   1.991  1.9918 -1.9516 -0.1717
18715TIP3   OH277559   0.309   3.556  13.794 -0.7794  0.0977 -0.3961
18715TIP3    H177560   0.298   3.478  13.849 -2.4306 -0.0845 -0.9295
18715TIP3    H277561   0.299   3.629  13.854  2.3002 -0.0249  0.4004
18716TIP3   OH277562   0.979   5.197  16.076  0.2695 -0.1250  0.1726
18716TIP3    H177563   0.999   5.112  16.115 -0.3228  0.2095  1.2441
18716TIP3    H277564   0.900   5.227  16.122 -1.3148 -0.3101 -2.2386
18717TIP3   OH277565   3.418   0.158  11.598 -0.5227 -0.1458 -0.3806
18717TIP3    H177566   3.391   0.182  11.686  3.8934  0.5660  0.9902
18717TIP3    H277567   3.409   0.063  11.595  0.0401 -0.2662  1.1638
18718TIP3   OH277568   5.564   3.494   4.808  0.1813  0.4119 -0.5044
18718TIP3    H177569   5.603   3.521   4.725 -0.3863  2.8306 -0.0509
18718TIP3    H277570   5.611   3.544   4.875 -1.3392  0.7753  0.3466
18719TIP3   OH277571   2.539   6.247   0.392 -0.1752  0.0291 -0.4187
18719TIP3    H177572   2.445   6.259   0.377 -0.1993  2.0031  0.8523
18719TIP3    H277573   2.545   6.174   0.454 -0.9406  0.4428  0.1510
18720TIP3   OH277574   0.839   0.135  13.680  0.0881  0.0664 -0.0113
18720TIP3    H177575   0.890   0.116  13.602  1.0113 -0.7762  0.7630
18720TIP3    H277576   0.751   0.105  13.659  0.3087 -0.0865 -0.7508
18721TIP3   OH277577   1.405   4.534  16.730  0.0955 -0.2912  0.2390
18721TIP3    H177578   1.376   4.446  16.752 -0.0764 -0.2871  0.0316
18721TIP3    H277579   1.333   4.591  16.758  0.3751 -0.1791  0.7406
18722TIP3   OH277580   5.073   1.154  12.270  0.3467 -0.2723 -0.0756
18722TIP3    H177581   5.026   1.204  12.203 -0.1159 -2.7799 -1.7567
18722TIP3    H277582   5.026   1.071  12.276  1.5933 -0.9068  1.9419
18723TIP3   OH277583   3.227   5.726   4.481 -0.2350 -0.0356  0.1661
18723TIP3    H177584   3.215   5.789   4.410 -2.2640 -0.9297 -0.3520
18723TIP3    H277585   3.168   5.756   4.551 -1.6296 -1.5499 -0.2780
18724TIP3   OH277586   3.786   1.524   3.735 -0.2698 -0.1095  0.3149
18724TIP3    H177587   3.807   1.588   3.666  1.1865 -0.9832 -0.0819
18724TIP3    H277588   3.704   1.484   3.706  0.6644 -0.9476 -1.3008
18725TIP3   OH277589   3.872   5.565  16.766  0.1702  1.1109 -0.0168
18725TIP3    H177590   3.944   5.625  16.747  1.5467 -0.2496  0.6705
18725TIP3    H277591   3.858   5.574  16.860  0.8424 -0.0580  0.2248
18726TIP3   OH277592   6.213   2.781   5.193  0.4007  0.0469 -0.5919
18726TIP3    H177593   6.253   2.723   5.257 -1.0013 -0.0700  0.2410
18726TIP3    H277594   6.162   2.843   5.246 -0.3858  0.2705 -1.5719
18727TIP3   OH277595   4.348   0.104   4.806 -0.3263  0.2964 -0.1319
18727TIP3    H177596   4.440   0.087   4.786 -0.4204 -0.4023  0.0255
18727TIP3    H277597   4.313   0.145   4.727 -0.1482 -0.4173 -0.5808
18728TIP3   OH277598   6.489   6.465   3.301  0.3868  0.5766  0.9161
18728TIP3    H177599   6.420   6.401   3.285 -0.2884  1.1418  1.4863
18728TIP3    H277600   6.450   6.528   3.362  1.4334  0.8642  1.3172
18729TIP3   OH277601   3.295   4.528   2.252  0.0589 -0.1684 -0.2761
18729TIP3    H177602   3.270   4.620   2.257 -0.7262 -0.2394 -1.9168
18729TIP3    H277603   3.249   4.486   2.325 -0.2293  0.6059 -0.0062
18730TIP3   OH277604   5.515   5.176   3.749  0.4136  0.8093 -0.4745
18730TIP3    H177605   5.498   5.244   3.684  1.3405  0.6698 -0.8813
18730TIP3    H277606   5.442   5.115   3.740 -0.5322  1.8345  0.0306
18731TIP3   OH277607   4.641   5.602  13.863 -0.0180  0.0670  0.0195
18731TIP3    H177608   4.647   5.549  13.942  0.3704  0.3118  0.1588
18731TIP3    H277609   4.585   5.675  13.887 -0.9719 -0.5442 -0.3250
18732TIP3   OH277610   0.055   3.251   1.207 -0.3113  0.1290  0.0545
18732TIP3    H177611  -0.023   3.249   1.262  0.2976  0.2469  0.9449
18732TIP3    H277612   0.119   3.302   1.257  0.2359  0.3098 -0.7985
18733TIP3   OH277613   0.562   2.242  16.655  0.2522 -0.7004 -0.5116
18733TIP3    H177614   0.525   2.180  16.718 -1.0666 -0.2211 -0.7871
18733TIP3    H277615   0.582   2.187  16.578 -0.7339 -0.8339 -0.6859
18734TIP3   OH277616   0.626   3.085  12.770 -0.5237  0.1765  0.2821
18734TIP3    H177617   0.705   3.058  12.817 -0.1915  0.6770  0.0252
18734TIP3    H277618   0.553   3.057  12.826 -0.2369 -1.8713 -0.2843
18735TIP3   OH277619   1.294   3.440   1.770  0.2939  0.9267  0.0413
18735TIP3    H177620   1.261   3.529   1.782 -1.8960  0.3564 -1.2597
18735TIP3    H277621   1.301   3.429   1.675 -0.6018 -0.6480  0.1239
18736TIP3   OH277622   4.101   5.986  17.108 -0.2418 -0.1809 -0.1159
18736TIP3    H177623   4.015   6.019  17.133  0.1792  0.0663  1.0583
18736TIP3    H277624   4.163   6.037  17.160  0.5631 -1.0219 -0.2229
18737TIP3   OH277625   0.055   2.243   0.278 -0.4245  0.0435  0.4828
18737TIP3    H177626   0.029   2.154   0.253  1.7389 -0.8090  1.0578
18737TIP3    H277627   0.003   2.300   0.221 -2.4373 -1.5325  0.6262
18738TIP3   OH277628   5.347   3.205   1.514  0.2482 -0.0978 -0.3088
18738TIP3    H177629   5.336   3.289   1.470 -0.2858 -0.4017 -0.7720
18738TIP3    H277630   5.284   3.147   1.472 -1.3147 -0.0419  1.7549
18739TIP3   OH277631   4.752   2.328   2.509  0.3906  0.8242 -0.0472
18739TIP3    H177632   4.759   2.263   2.579  1.9457  0.5552 -0.4011
18739TIP3    H277633   4.670   2.374   2.526  0.2414  0.0859  1.3538
18740TIP3   OH277634   6.476   4.866   0.909  0.0034 -0.5090  0.7613
18740TIP3    H177635   6.406   4.876   0.973 -1.1382  0.3304 -0.5617
18740TIP3    H277636   6.478   4.772   0.890 -0.7032 -0.5444  0.8562
18741TIP3   OH277637   3.452   2.356  17.131  0.1873  0.0225  0.4905
18741TIP3    H177638   3.472   2.262  17.133  4.5605  0.7290 -0.6997
18741TIP3    H277639   3.422   2.376  17.220  2.4042 -1.9749  1.7957
18742TIP3   OH277640   4.430   6.651   0.127 -0.0892 -0.3029 -0.2343
18742TIP3    H177641   4.383   6.652   0.211 -0.0994  0.5453 -0.2428
18742TIP3    H277642   4.380   6.589   0.073 -0.9453  0.2480 -0.0949
18743TIP3   OH277643   3.900   5.396   3.288  0.3911 -0.4086  0.0894
18743TIP3    H177644   3.875   5.351   3.208  0.3502 -0.8347  0.3430
18743TIP3    H277645   3.975   5.451   3.262 -1.7087  2.1348 -1.0594
18744TIP3   OH277646   5.541   0.345  11.468 -0.1652 -0.3471  0.1654
18744TIP3    H177647   5.496   0.316  11.389  0.9460 -2.3693  0.2294
18744TIP3    H277648   5.544   0.268  11.524  0.3104  0.6778  1.6186
18745TIP3   OH277649   5.788   4.351  13.637  0.0164 -0.4010  0.3948
18745TIP3    H177650   5.852   4.394  13.581 -0.7605 -0.9595 -0.9692
18745TIP3    H277651   5.727   4.421  13.661 -0.2620 -0.3814 -0.3693
18746TIP3   OH277652   1.040   5.265  12.394 -0.3838 -0.2419 -0.0191
18746TIP3    H177653   1.079   5.329  12.453 -1.0095 -0.8724  1.1174
18746TIP3    H277654   1.067   5.180  12.430  0.9531 -0.6479 -1.8571
18747TIP3   OH277655   1.319   3.928   4.334 -0.2906  0.3696 -0.1192
18747TIP3    H177656   1.233   3.960   4.304 -0.6433 -0.0492  0.4268
18747TIP3    H277657   1.322   3.953   4.427 -0.2363 -0.4857  0.1130
18748TIP3   OH277658   3.852   6.392   0.372  0.3695  0.5180 -0.6234
18748TIP3    H177659   3.843   6.343   0.290 -0.5435 -2.2796  0.9961
18748TIP3    H277660   3.940   6.372   0.403 -0.2880 -0.8923  0.4475
18749TIP3   OH277661   3.098   5.528  15.189 -0.1793 -0.4643  0.7634
18749TIP3    H177662   3.062   5.507  15.102  0.8400  0.4706  0.0993
18749TIP3    H277663   3.021   5.539  15.244 -0.9126  0.4471 -0.3869
18750TIP3   OH277664   5.099   3.614   2.041  0.4780  0.1070  0.2957
18750TIP3    H177665   5.146   3.689   2.005 -1.1505  1.2426  0.4820
18750TIP3    H277666   5.148   3.591   2.120 -0.0209  2.1247  1.2348
18751TIP3   OH277667   5.593   4.841  15.720  0.1263 -0.2853  0.0742
18751TIP3    H177668   5.516   4.895  15.701 -0.9181 -1.7493 -0.0672
18751TIP3    H277669   5.583   4.815  15.811 -0.4006 -1.7334 -0.3664
18752TIP3   OH277670   4.317   2.107   2.570 -0.8603 -0.3556 -0.0124
18752TIP3    H177671   4.256   2.047   2.613 -1.0763 -1.3724 -1.6818
18752TIP3    H277672   4.264   2.184   2.550 -1.5610 -1.1001 -1.1542
18753TIP3   OH277673   0.483   4.175   2.360  0.5160  0.1406  0.0637
18753TIP3    H177674   0.405   4.152   2.411 -0.1111  0.4583 -0.7169
18753TIP3    H277675   0.536   4.096   2.361 -0.3361 -0.4596 -0.2954
18754TIP3   OH277676   4.448   5.486  14.487 -0.0492 -0.3370  0.1454
18754TIP3    H177677   4.353   5.476  14.491 -0.1325 -0.0162 -0.8062
18754TIP3    H277678   4.461   5.579  14.468  0.4864 -0.2118  1.0510
18755TIP3   OH277679   2.354   5.733  11.317  0.0477 -0.2116 -0.2535
18755TIP3    H177680   2.424   5.798  11.306 -0.5347  0.6907  1.0728
18755TIP3    H277681   2.388   5.673  11.382 -0.0833 -0.2650 -0.2358
18756TIP3   OH277682   5.176   2.865  11.868 -0.5381  0.4493  0.2911
18756TIP3    H177683   5.268   2.865  11.843 -0.2255 -0.7499  1.3435
18756TIP3    H277684   5.168   2.937  11.932  0.1297 -0.6775  1.6905
18757TIP3   OH277685   4.875   5.940   6.042  1.0437  0.1278  0.3947
18757TIP3    H177686   4.914   6.022   6.073  0.2665 -0.2577  2.5980
18757TIP3    H277687   4.789   5.967   6.008  1.1993  0.3435  0.1638
18758TIP3   OH277688   6.031   1.816  15.835  0.0444  0.0153  0.2333
18758TIP3    H177689   6.095   1.783  15.898 -0.2326  0.0202  0.5214
18758TIP3    H277690   5.998   1.896  15.875 -0.6700 -0.3702  0.4299
18759TIP3   OH277691   0.778   3.654   0.320 -0.3838  0.0713 -0.2883
18759TIP3    H177692   0.782   3.683   0.229 -0.1404  0.3220 -0.1990
18759TIP3    H277693   0.703   3.594   0.323  0.1274 -0.6069 -0.8405
18760TIP3   OH277694   5.933   5.853   5.243  0.1307 -0.2114  0.0614
18760TIP3    H177695   5.865   5.816   5.300 -0.1386 -0.4951 -0.4342
18760TIP3    H277696   5.915   5.814   5.157  0.2484  0.5690 -0.3239
18761TIP3   OH277697   3.891   3.429  13.452 -0.0673  0.2340 -0.0975
18761TIP3    H177698   3.918   3.500  13.509 -0.2886  0.5227 -0.3469
18761TIP3    H277699   3.940   3.444  13.370  0.6784 -0.4932  0.1934
18762TIP3   OH277700   0.208   1.385   3.165 -0.1520 -0.5807 -0.6640
18762TIP3    H177701   0.212   1.380   3.069 -1.8484 -0.0350 -0.7990
18762TIP3    H277702   0.148   1.457   3.182  0.6105 -0.2748  0.8381
18763TIP3   OH277703   4.976   3.083  13.613 -0.4739 -0.5628 -0.4044
18763TIP3    H177704   5.052   3.093  13.669  0.1168 -2.5865 -0.7842
18763TIP3    H277705   4.908   3.136  13.656 -0.0792 -2.0433  2.2708
18764TIP3   OH277706   5.845   1.190  15.949 -0.0089  0.0017  0.8495
18764TIP3    H177707   5.775   1.183  15.884  0.7985  1.8316 -0.3160
18764TIP3    H277708   5.917   1.139  15.911  0.6693  1.5598 -0.0716
18765TIP3   OH277709   2.739   5.141  14.211 -0.3977 -0.3784  0.7341
18765TIP3    H177710   2.647   5.158  14.192 -0.5144 -1.1620  0.5657
18765TIP3    H277711   2.783   5.145  14.126 -0.4205 -0.8321  0.6957
18766TIP3   OH277712   3.804   6.220  14.154 -0.7443  0.4364  0.5722
18766TIP3    H177713   3.848   6.207  14.238  0.7057 -0.4388 -0.2825
18766TIP3    H277714   3.750   6.298  14.167  0.7134  1.2949  1.8272
18767TIP3   OH277715   3.092   4.878  13.346 -1.0588  0.5263  0.3516
18767TIP3    H177716   3.098   4.808  13.281  2.0741  0.7105  0.3205
18767TIP3    H277717   3.060   4.954  13.297 -2.5707 -0.3254 -0.0356
18768TIP3   OH277718   1.265   1.246  15.447 -0.6090  0.0927  0.0813
18768TIP3    H177719   1.242   1.331  15.408 -0.8179 -0.0435 -0.0934
18768TIP3    H277720   1.210   1.183  15.401  0.4825 -0.3135 -0.7310
18769TIP3   OH277721   1.036   1.445  14.781 -0.0284  0.4345 -0.8685
18769TIP3    H177722   1.117   1.481  14.743  0.4235  0.1310 -0.2250
18769TIP3    H277723   0.984   1.521  14.804  0.8219  0.7024  0.2689
18770TIP3   OH277724   3.420   6.468  13.367  0.0197  0.6712 -0.5784
18770TIP3    H177725   3.437   6.454  13.461 -1.2870  0.6854 -0.3122
18770TIP3    H277726   3.377   6.387  13.339 -1.3542  1.4120 -0.6875
18771TIP3   OH277727   3.060   0.340   1.368 -0.0793  0.0019 -0.2414
18771TIP3    H177728   2.969   0.350   1.395  0.5491  2.3683  1.3701
18771TIP3    H277729   3.108   0.327   1.450  1.1032 -0.8676 -1.0301
18772TIP3   OH277730   6.609   4.049   0.475 -0.0954 -0.1250  0.0489
18772TIP3    H177731   6.543   4.118   0.464  0.7475  0.6409 -0.3159
18772TIP3    H277732   6.558   3.971   0.494 -1.0335  0.7488  1.3037
18773TIP3   OH277733   4.964   1.597  15.462 -0.6202 -0.2906  0.7171
18773TIP3    H177734   4.976   1.631  15.551 -0.8144 -2.9113  1.8127
18773TIP3    H277735   4.903   1.525  15.472  0.6538 -1.7397 -1.2818
18774TIP3   OH277736   1.978   5.421  12.883  0.4223 -0.0435 -0.2893
18774TIP3    H177737   2.058   5.371  12.900  0.3034  0.0452  0.6049
18774TIP3    H277738   1.946   5.387  12.800  0.2799 -1.5622  0.3438
18775TIP3   OH277739   2.713   6.223  16.711  0.1558  0.2106  0.7853
18775TIP3    H177740   2.697   6.254  16.800  0.9332 -1.6569  1.6365
18775TIP3    H277741   2.626   6.209  16.675 -0.1893 -0.1086  1.6954
18776TIP3   OH277742   6.058   2.756  14.131  0.2976 -0.0155  0.5762
18776TIP3    H177743   6.027   2.841  14.162 -0.8723 -0.0453 -0.4491
18776TIP3    H277744   6.042   2.758  14.037  1.2006 -0.9927  0.3911
18777TIP3   OH277745   3.656   6.772   1.545 -0.3028 -0.5799  0.2206
18777TIP3    H177746   3.684   6.832   1.614 -1.1854  0.3416 -0.2117
18777TIP3    H277747   3.583   6.816   1.502  0.4924 -0.9509 -1.5857
18778TIP3   OH277748   1.095   3.321  13.495 -0.7494  0.3778 -0.3827
18778TIP3    H177749   1.174   3.332  13.549 -1.7937  0.5334  1.1866
18778TIP3    H277750   1.088   3.403  13.447  0.4711  0.0553 -1.1653
18779TIP3   OH277751   6.039   3.939  16.522  0.0053  0.1871  0.0017
18779TIP3    H177752   6.090   3.868  16.484  0.3171  1.2969 -1.7703
18779TIP3    H277753   5.957   3.939  16.471 -1.5462 -1.0837  2.2960
18780TIP3   OH277754   3.059   4.320  11.760 -0.6946 -0.9904 -0.1489
18780TIP3    H177755   2.977   4.342  11.717 -0.0422  1.0062 -0.4892
18780TIP3    H277756   3.127   4.352  11.700  0.2518  0.6798  1.6886
18781TIP3   OH277757   5.879   4.595  11.427  0.1316 -0.9059  0.0629
18781TIP3    H177758   5.885   4.568  11.519 -0.0132 -3.9016 -0.7030
18781TIP3    H277759   5.795   4.641  11.422 -0.2263 -1.3630  1.2939
18782TIP3   OH277760   4.315   3.095  15.268  0.5904  0.1887 -0.5121
18782TIP3    H177761   4.321   3.011  15.223 -0.5957  0.6938 -1.6811
18782TIP3    H277762   4.261   3.077  15.345 -0.7175  0.1147 -1.4220
18783TIP3   OH277763   5.224   0.442  15.279  0.1225  0.4959 -0.0090
18783TIP3    H177764   5.244   0.533  15.258  0.2241  0.5385  0.2693
18783TIP3    H277765   5.302   0.410  15.325 -1.0092  1.1370  2.5221
18784TIP3   OH277766   5.799   4.579   4.393 -0.3355 -0.9084 -0.5199
18784TIP3    H177767   5.871   4.532   4.350 -0.0282 -0.3215 -0.6591
18784TIP3    H277768   5.797   4.543   4.482 -0.9597 -2.1107 -0.9888
18785TIP3   OH277769   3.913   0.670  15.490  0.5531 -0.3338  0.1302
18785TIP3    H177770   3.941   0.745  15.438 -0.6100  0.1240  0.1263
18785TIP3    H277771   3.922   0.595  15.431  0.2701  0.0286 -0.3867
18786TIP3   OH277772   0.346   3.151   0.098 -0.1588  0.1049 -0.2211
18786TIP3    H177773   0.336   3.213   0.170 -0.5472 -0.0875 -0.1094
18786TIP3    H277774   0.356   3.066   0.141 -2.1460 -0.2626 -0.4127
18787TIP3   OH277775   0.089   2.083   2.640 -0.1291 -0.0498 -0.3763
18787TIP3    H177776   0.128   2.080   2.552 -0.1542 -1.3181 -0.3697
18787TIP3    H277777   0.031   2.159   2.638 -1.4303 -0.9881 -2.0702
18788TIP3   OH277778   4.660   3.673   3.313 -0.3998 -0.2675 -0.3484
18788TIP3    H177779   4.675   3.719   3.395  1.3197 -0.6726 -0.3950
18788TIP3    H277780   4.674   3.740   3.245  1.4141 -0.6203 -0.3891
18789TIP3   OH277781   2.624   6.120  17.137 -0.1310 -0.4258 -0.8227
18789TIP3    H177782   2.577   6.187  17.087  0.2095 -0.5844 -1.3650
18789TIP3    H277783   2.667   6.168  17.208 -0.3860 -0.1567 -0.8521
18790TIP3   OH277784   2.896   2.867  15.558 -0.4726 -0.6080 -0.1589
18790TIP3    H177785   2.951   2.895  15.631  0.2334 -1.9487 -0.1465
18790TIP3    H277786   2.872   2.948  15.514  0.1952  0.1205  0.7759
18791TIP3   OH277787   4.879   1.826  15.081 -0.0724 -0.3749  0.0623
18791TIP3    H177788   4.826   1.840  15.159 -1.0535 -0.3251 -0.5968
18791TIP3    H277789   4.918   1.911  15.062  0.1286 -0.3756  0.4625
18792TIP3   OH277790   6.660   5.169   1.837 -0.4938  0.2540 -0.2993
18792TIP3    H177791   6.727   5.213   1.786 -0.4543  0.3297 -0.1823
18792TIP3    H277792   6.703   5.089   1.869 -0.6926 -0.0809 -0.8605
18793TIP3   OH277793   6.755   0.565  11.760 -0.0510 -0.5768 -0.3952
18793TIP3    H177794   6.847   0.546  11.744  0.0428 -3.0394  2.1207
18793TIP3    H277795   6.722   0.485  11.802 -3.2721  0.3226 -0.9675
18794TIP3   OH277796   6.664   0.043  15.675 -0.7338  0.0859 -0.6193
18794TIP3    H177797   6.712   0.015  15.598  0.8274  0.9747 -0.0200
18794TIP3    H277798   6.668   0.139  15.672 -0.4233  0.1265  0.6910
18795TIP3   OH277799   1.070   0.814  13.280 -0.1556 -0.3321 -0.9216
18795TIP3    H177800   1.146   0.873  13.273  0.7957 -1.4559 -0.4255
18795TIP3    H277801   1.087   0.763  13.359  0.3469 -3.0274 -2.6604
18796TIP3   OH277802   4.545   6.416  16.219  0.7569 -0.7830  0.4434
18796TIP3    H177803   4.458   6.444  16.191  0.4360  0.8270  2.8084
18796TIP3    H277804   4.533   6.323  16.242 -0.5223 -0.4445  1.3014
18797TIP3   OH277805   5.117   2.287  12.456 -0.6912  0.0188 -0.3625
18797TIP3    H177806   5.042   2.278  12.398  0.5163  1.5037 -2.2709
18797TIP3    H277807   5.192   2.298  12.397  0.9894 -0.9861  1.4710
18798TIP3   OH277808   6.617   5.649   2.485 -0.3012 -0.3482  0.1505
18798TIP3    H177809   6.638   5.740   2.507  0.8796 -0.3944 -0.6787
18798TIP3    H277810   6.568   5.655   2.403 -1.4838 -0.3990  0.8237
18799TIP3   OH277811   2.349   3.846  16.541  0.2894  0.3400  0.1994
18799TIP3    H177812   2.423   3.791  16.516 -1.2843 -1.3415 -1.0665
18799TIP3    H277813   2.272   3.791  16.523 -1.2685  2.0718  1.2966
18800TIP3   OH277814   2.156   1.907  16.245 -0.1230  0.0207 -0.6179
18800TIP3    H177815   2.100   1.837  16.278  0.3685 -1.3539 -2.5055
18800TIP3    H277816   2.216   1.926  16.316  0.6033 -2.4715 -0.4800
18801TIP3   OH277817   3.062   2.031  16.986 -0.1807 -0.0560 -0.1752
18801TIP3    H177818   2.982   2.076  17.014  1.3311  2.6280  0.1731
18801TIP3    H277819   3.111   2.017  17.068  0.4915  0.0304 -0.5545
18802TIP3   OH277820   1.391   4.462   3.408 -0.1564  0.2626 -0.1868
18802TIP3    H177821   1.336   4.501   3.476 -1.0297  0.4870 -0.9789
18802TIP3    H277822   1.412   4.375   3.440 -1.4527 -0.0329 -0.0793
18803TIP3   OH277823   4.445   1.938   5.143 -0.5357  0.4792 -0.1045
18803TIP3    H177824   4.401   2.022   5.155  1.1100  1.6523 -1.6835
18803TIP3    H277825   4.464   1.934   5.049  1.6644 -0.4438  0.3183
18804TIP3   OH277826   1.181   0.495  11.757  0.1574 -0.1631  0.3778
18804TIP3    H177827   1.188   0.543  11.674 -0.6274 -0.8964 -0.1266
18804TIP3    H277828   1.206   0.406  11.736 -2.7669 -1.0655  0.2089
18805TIP3   OH277829   1.256   0.145  12.555 -0.3094  0.5336  0.8132
18805TIP3    H177830   1.307   0.083  12.503 -1.1151  1.5395 -1.2505
18805TIP3    H277831   1.315   0.219  12.569 -0.6317  0.9665 -0.0997
18806TIP3   OH277832   6.021   3.279   0.935  0.1751 -0.3528 -0.3473
18806TIP3    H177833   6.016   3.275   0.840  1.4142  0.4073 -0.4694
18806TIP3    H277834   6.088   3.346   0.953 -0.6136  0.1138  1.0636
18807TIP3   OH277835   5.913   1.827  15.543  0.4097 -0.1126 -0.2819
18807TIP3    H177836   6.003   1.796  15.531  0.4962 -0.0954  0.3202
18807TIP3    H277837   5.922   1.917  15.574  0.1782  0.0162 -0.5818
18808TIP3   OH277838   2.422   3.106   5.429 -0.2208  0.2058 -0.1218
18808TIP3    H177839   2.365   3.039   5.391 -2.8675 -1.3780  5.5537
18808TIP3    H277840   2.497   3.057   5.463 -0.7624  0.4440  1.5407
18809TIP3   OH277841   6.110   4.684  10.926 -0.8128  0.0834  0.0879
18809TIP3    H177842   6.091   4.692  10.833 -1.0031 -0.5163  0.0716
18809TIP3    H277843   6.204   4.668  10.931 -0.4290  2.0701  0.1161
18810TIP3   OH277844   5.707   5.265   0.929 -0.3868 -0.2884  0.2809
18810TIP3    H177845   5.759   5.290   0.853 -1.4862  0.1212 -0.3618
18810TIP3    H277846   5.771   5.253   0.999  0.4250  2.5196  0.1384
18811TIP3   OH277847   0.903   6.525  12.250 -0.2907 -0.4856 -0.2946
18811TIP3    H177848   0.893   6.620  12.246 -0.2340 -0.4489  0.3583
18811TIP3    H277849   0.855   6.493  12.174 -1.6004 -0.0232  0.3008
18812TIP3   OH277850   4.553   0.480   2.547 -0.5086  0.0144  0.1807
18812TIP3    H177851   4.518   0.568   2.563 -0.5375  0.0578 -0.1105
18812TIP3    H277852   4.508   0.424   2.611 -2.7421 -0.3163 -1.5272
18813TIP3   OH277853   0.619   3.345  15.508  0.0140 -0.8497 -0.4108
18813TIP3    H177854   0.701   3.394  15.515 -1.6344  1.9283  1.5595
18813TIP3    H277855   0.585   3.367  15.421  1.1147 -1.7190 -1.0896
18814TIP3   OH277856   1.410   0.252   5.307  0.0569 -0.1668 -0.0515
18814TIP3    H177857   1.354   0.288   5.238 -0.1585 -1.4916 -0.6046
18814TIP3    H277858   1.442   0.328   5.355  2.4130  1.0890 -3.2612
18815TIP3   OH277859   1.541   1.487   3.775  0.4389 -0.3845 -0.2756
18815TIP3    H177860   1.607   1.487   3.706 -1.0661 -1.3888 -1.7732
18815TIP3    H277861   1.484   1.413   3.754 -1.8187  1.0981  0.3107
18816TIP3   OH277862   5.610   0.974   6.449  0.1378 -0.1191  1.1215
18816TIP3    H177863   5.582   1.019   6.369  0.4541 -0.8163  0.6068
18816TIP3    H277864   5.564   0.890   6.446  1.3387 -0.7899  0.8739
18817TIP3   OH277865   2.308   5.758   4.748  0.1448  0.1984 -0.3388
18817TIP3    H177866   2.246   5.797   4.809  0.8416  1.3835 -0.3586
18817TIP3    H277867   2.360   5.832   4.716  0.8971 -0.6299 -1.0851
18818TIP3   OH277868   0.939   0.366  16.635 -0.5074 -0.0512  0.0047
18818TIP3    H177869   1.001   0.332  16.571 -0.0117 -1.9066  1.3758
18818TIP3    H277870   0.854   0.358  16.592 -0.1158 -0.5730 -0.7031
18819TIP3   OH277871   0.034   3.912   2.753 -0.4504  0.8634  0.0638
18819TIP3    H177872   0.087   3.943   2.827 -0.9814 -1.9342  1.7475
18819TIP3    H277873   0.092   3.923   2.677  0.7785  2.1818  1.1177
18820TIP3   OH277874   3.969   2.035   6.620 -0.7829  0.1463 -0.0177
18820TIP3    H177875   4.059   2.043   6.652 -0.5870 -0.6227 -0.3586
18820TIP3    H277876   3.946   2.124   6.592 -0.6930  0.6819  1.5092
18821TIP3   OH277877   2.168   3.290   6.970  0.4691 -0.2857 -0.5422
18821TIP3    H177878   2.249   3.238   6.972  1.0131  0.4545 -1.8259
18821TIP3    H277879   2.104   3.233   6.928  0.5744 -0.5538 -0.3427
18822TIP3   OH277880   1.406   3.374  15.029  0.3270 -0.7652  0.1613
18822TIP3    H177881   1.355   3.454  15.045 -0.8082 -1.3760 -0.3107
18822TIP3    H277882   1.467   3.398  14.959 -0.4652 -0.4955 -0.4470
18823TIP3   OH277883   4.635   6.002  15.992  0.3711  0.1860  0.3115
18823TIP3    H177884   4.627   6.001  15.896  0.8601  1.0891  0.2556
18823TIP3    H277885   4.578   5.930  16.021  3.3723 -2.9800 -0.8696
18824TIP3   OH277886   1.980   5.748   4.018 -0.0162 -0.0783 -0.2287
18824TIP3    H177887   1.890   5.753   4.050  0.2109  1.5429  0.2234
18824TIP3    H277888   2.033   5.786   4.089  0.9204 -0.0924 -0.8983
18825TIP3   OH277889   6.305   2.430  12.947  0.0093 -0.4131  0.1228
18825TIP3    H177890   6.388   2.458  12.987  0.1128 -0.1202 -0.2853
18825TIP3    H277891   6.239   2.445  13.015  0.0250  1.0470 -0.1390
18826TIP3   OH277892   2.197   6.387   1.072  0.2764  0.0243 -0.3326
18826TIP3    H177893   2.210   6.317   1.135  0.7077  0.0089 -0.4339
18826TIP3    H277894   2.159   6.459   1.123 -1.5977 -0.7805 -0.5203
18827TIP3   OH277895   4.601   0.879  11.295  0.2218  0.2743  0.2909
18827TIP3    H177896   4.643   0.794  11.312  1.4826  0.6145 -1.0308
18827TIP3    H277897   4.609   0.926  11.378 -0.6181 -0.9205  1.0890
18828TIP3   OH277898   1.299   5.548  13.986  0.5566  0.3382 -0.4264
18828TIP3    H177899   1.283   5.570  13.894 -0.9708  0.4202 -0.1660
18828TIP3    H277900   1.273   5.456  13.993  1.5732  0.0472 -0.2680
18829TIP3   OH277901   5.041   6.719  10.797 -0.9605  0.1231  0.3103
18829TIP3    H177902   5.070   6.710  10.706 -2.5603  0.6805 -0.2887
18829TIP3    H277903   5.120   6.745  10.844 -0.2394  0.4870 -1.0348
18830TIP3   OH277904   5.740   3.734  14.477  0.0976  0.4924  0.1140
18830TIP3    H177905   5.741   3.646  14.516  0.2210  0.4579  0.0335
18830TIP3    H277906   5.657   3.738  14.430  0.8370 -0.2258 -1.3397
18831TIP3   OH277907   6.625   4.544  12.733 -0.8439  0.1248 -0.2791
18831TIP3    H177908   6.544   4.501  12.762 -0.5145 -0.1215  0.2833
18831TIP3    H277909   6.688   4.525  12.802 -0.3019  0.3189 -0.7185
18832TIP3   OH277910   0.748   0.522   4.940 -0.0890  0.1686  0.1623
18832TIP3    H177911   0.811   0.507   4.869  0.8556  0.8862  0.8220
18832TIP3    H277912   0.712   0.436   4.959  0.7990 -0.2867 -0.1452
18833TIP3   OH277913   1.141   3.157   1.585  0.6609 -0.2297 -0.4048
18833TIP3    H177914   1.150   3.170   1.680  2.3381  1.9528 -0.7781
18833TIP3    H277915   1.215   3.101   1.562 -0.0815 -1.2426 -0.3682
18834TIP3   OH277916   5.148   0.693  15.439  0.0042  0.5157  0.0278
18834TIP3    H177917   5.109   0.622  15.491 -0.7010  0.0803 -1.0602
18834TIP3    H277918   5.234   0.707  15.479 -0.5068  0.1943  1.3057
18835TIP3   OH277919   1.351   5.556   5.820 -0.2256  0.0295 -0.5321
18835TIP3    H177920   1.264   5.546   5.780 -0.5097 -0.0371  0.1036
18835TIP3    H277921   1.397   5.475   5.797  0.1915  0.6679 -2.1244
18836TIP3   OH277922   1.050   5.694   2.219 -0.3515 -1.0167  0.2597
18836TIP3    H177923   0.963   5.676   2.256 -1.3978  0.8709 -1.1275
18836TIP3    H277924   1.090   5.755   2.281 -1.4351  0.8302 -0.7970
18837TIP3   OH277925   5.653   3.639   5.012 -0.7160  0.6840  0.5764
18837TIP3    H177926   5.747   3.649   5.027 -0.5631  1.1155 -0.5767
18837TIP3    H277927   5.613   3.659   5.097  0.1762  1.4997  0.8229
18838TIP3   OH277928   6.731   5.069  11.619  0.3271  0.1840  0.0014
18838TIP3    H177929   6.672   5.034  11.686 -0.2316 -0.7171 -0.9412
18838TIP3    H277930   6.791   4.997  11.599 -0.0591  0.1419 -1.0795
18839TIP3   OH277931   6.252   2.599   1.360  0.3732 -0.3792  0.3722
18839TIP3    H177932   6.300   2.675   1.392 -1.0722  0.5614  0.4329
18839TIP3    H277933   6.160   2.624   1.369 -0.1425 -2.2102  0.5296
18840TIP3   OH277934   3.422   2.130   5.629  0.1797 -0.0948  0.1022
18840TIP3    H177935   3.327   2.118   5.631  0.3088 -1.0512  1.2853
18840TIP3    H277936   3.447   2.133   5.721  1.3252 -0.0371 -0.2069
18841TIP3   OH277937   5.363   0.773   2.403 -0.2211  0.5135 -0.6094
18841TIP3    H177938   5.419   0.847   2.378 -0.6298  0.6485 -1.1448
18841TIP3    H277939   5.349   0.726   2.321  1.6437 -1.2951  0.0362
18842TIP3   OH277940   6.591   4.665  14.518 -0.2196  0.0902 -0.2443
18842TIP3    H177941   6.606   4.579  14.480  1.2638  1.3905 -2.8948
18842TIP3    H277942   6.509   4.695  14.480 -0.5799  0.0041  0.4402
18843TIP3   OH277943   5.312   4.797  16.206  0.4443  0.1438 -0.2151
18843TIP3    H177944   5.359   4.726  16.251 -1.2299 -0.6427  0.3617
18843TIP3    H277945   5.225   4.762  16.189  0.6373  0.8382 -3.1271
18844TIP3   OH277946   4.181   5.080   1.312 -0.1120  0.2941 -0.4464
18844TIP3    H177947   4.124   5.064   1.387 -0.4337  0.2196 -0.7080
18844TIP3    H277948   4.201   5.174   1.316  0.4717  0.1549  0.1556
18845TIP3   OH277949   1.952   1.456  11.252 -0.0516  0.2356 -0.6991
18845TIP3    H177950   2.033   1.410  11.270 -0.4882  0.2590  1.5895
18845TIP3    H277951   1.944   1.521  11.322 -1.9063  0.3980 -0.9897
18846TIP3   OH277952   3.348   0.544  15.349  0.7303 -0.2780 -0.4469
18846TIP3    H177953   3.371   0.584  15.265 -1.2558  0.1181 -0.8476
18846TIP3    H277954   3.372   0.610  15.414  2.1734 -0.5403 -0.6771
18847TIP3   OH277955   0.584   0.119  17.101 -0.2414 -0.1231 -0.5769
18847TIP3    H177956   0.504   0.080  17.135 -0.6086 -1.0989 -2.4230
18847TIP3    H277957   0.650   0.098  17.167 -1.1892 -0.6725  0.2261
18848TIP3   OH277958   4.368   1.137  11.851  0.7532  0.2063 -0.9478
18848TIP3    H177959   4.444   1.194  11.837  1.2069 -0.5104 -1.5219
18848TIP3    H277960   4.403   1.064  11.903  0.6224 -0.4399 -1.7404
18849TIP3   OH277961   1.699   1.478   2.524  0.3254 -0.4032  0.0803
18849TIP3    H177962   1.645   1.468   2.445  0.3921  0.8878 -0.1429
18849TIP3    H277963   1.740   1.392   2.536 -0.4793 -0.9085 -0.7041
18850TIP3   OH277964   5.707   5.550  13.938 -0.0107  0.1088 -0.5317
18850TIP3    H177965   5.803   5.556  13.946  0.0148 -1.6536  1.1657
18850TIP3    H277966   5.675   5.568  14.026 -1.0809 -1.5234 -0.5550
18851TIP3   OH277967   4.418   4.218  14.381 -0.3557 -0.0595  0.2713
18851TIP3    H177968   4.506   4.217  14.416 -0.9597 -0.4436  1.8671
18851TIP3    H277969   4.400   4.310  14.361 -0.4754  0.4065  2.3375
18852TIP3   OH277970   5.067   2.414  14.604  0.2547  0.3144 -0.5273
18852TIP3    H177971   5.113   2.488  14.644  1.2781 -0.4222 -0.2933
18852TIP3    H277972   5.008   2.383  14.672 -1.3827  1.8910 -1.1598
18853TIP3   OH277973   1.147   1.030  16.822  0.1259  0.0250 -0.3963
18853TIP3    H177974   1.157   0.965  16.891 -1.9438 -0.9433 -0.9437
18853TIP3    H277975   1.195   0.994  16.747  0.6274  0.0996 -0.1196
18854TIP3   OH277976   0.838   2.575   1.893  0.1096  0.4024  0.2359
18854TIP3    H177977   0.767   2.526   1.852 -1.3661  1.2943  1.6162
18854TIP3    H277978   0.829   2.559   1.987 -1.2802  4.1614  0.9325
18855TIP3   OH277979   4.580   4.953  16.151  0.2084 -0.2896  0.3189
18855TIP3    H177980   4.594   5.035  16.104 -1.4975  0.2928  0.7625
18855TIP3    H277981   4.579   4.977  16.243  0.3272 -0.9106  0.4880
18856TIP3   OH277982   2.643   4.646   5.169 -0.1557  0.1703 -0.0974
18856TIP3    H177983   2.594   4.576   5.212  0.9117 -1.7154 -1.7776
18856TIP3    H277984   2.734   4.633   5.197  0.1339  0.5816 -0.8048
18857TIP3   OH277985   6.410   5.482  14.300  0.1279  0.4195 -0.1527
18857TIP3    H177986   6.337   5.464  14.359  0.3493 -0.3390 -0.0909
18857TIP3    H277987   6.478   5.521  14.356 -0.2204  1.1192 -0.2101
18858TIP3   OH277988   0.511   5.626  13.257 -0.1868 -0.0910  0.2512
18858TIP3    H177989   0.566   5.672  13.320 -0.8245  0.7614  0.1973
18858TIP3    H277990   0.444   5.689  13.232 -1.7663 -1.3772  1.0087
18859TIP3   OH277991   0.080   5.578   0.470 -0.4574 -0.4468 -0.2630
18859TIP3    H177992   0.035   5.500   0.438 -1.8061  0.1221  0.1601
18859TIP3    H277993   0.169   5.548   0.490 -0.8431 -1.7891 -0.4447
18860TIP3   OH277994   4.396   1.212   0.907  0.6400  0.0131  0.1511
18860TIP3    H177995   4.467   1.254   0.859  0.6721  2.3521  2.0619
18860TIP3    H277996   4.322   1.273   0.898  0.6221  0.4816  2.8794
18861TIP3   OH277997   1.101   5.672   5.154 -0.5567 -0.0086  0.5097
18861TIP3    H177998   1.044   5.596   5.162  1.1021 -1.3505  0.0849
18861TIP3    H277999   1.121   5.677   5.061  0.1123  0.3754  0.6685
18862TIP3   OH278000   5.705   1.448   3.216  0.1502 -0.4620 -0.4715
18862TIP3    H178001   5.696   1.530   3.166  0.2836  0.7022  1.3185
18862TIP3    H278002   5.672   1.381   3.157 -1.2878  1.0562 -1.4982
18863TIP3   OH278003   3.818   2.440  12.798 -0.0692 -0.3962 -0.0223
18863TIP3    H178004   3.886   2.379  12.771  0.4860 -0.6927  1.8899
18863TIP3    H278005   3.857   2.527  12.789  0.5188 -0.5560  0.8732
18864TIP3   OH278006   0.081   4.438  12.909 -0.2914  0.1643 -0.0133
18864TIP3    H178007   0.141   4.388  12.854 -1.4108 -0.6683 -0.5215
18864TIP3    H278008   0.088   4.398  12.996 -0.4491 -0.2404 -0.1846
18865TIP3   OH278009   0.376   2.805   6.094  0.1691  0.0349 -0.1370
18865TIP3    H178010   0.355   2.818   6.186 -1.8137 -1.7804 -0.2536
18865TIP3    H278011   0.350   2.887   6.051  0.4924  0.6466  0.8216
18866TIP3   OH278012   0.270   5.575   3.168  0.1685  0.3124  0.0738
18866TIP3    H178013   0.287   5.483   3.188 -3.4860 -1.1323 -2.4756
18866TIP3    H278014   0.333   5.596   3.099  1.1708 -0.1509  0.8190
18867TIP3   OH278015   5.444   0.211   1.352  0.5063 -0.4174 -0.0657
18867TIP3    H178016   5.534   0.187   1.373 -0.0253 -1.1487  1.5506
18867TIP3    H278017   5.413   0.257   1.430 -0.5782 -0.3166 -0.5390
18868TIP3   OH278018   3.082   4.776   5.943 -0.3908 -0.1013 -0.4974
18868TIP3    H178019   3.114   4.848   5.997  0.1944  0.9638 -2.1807
18868TIP3    H278020   3.135   4.781   5.863  0.0088 -2.7143 -0.4963
18869TIP3   OH278021   2.080   2.032   0.490 -0.2498  0.2485 -0.4770
18869TIP3    H178022   2.165   2.066   0.517 -1.6216  0.9379  3.6229
18869TIP3    H278023   2.021   2.108   0.493 -1.4922 -0.6530 -0.8983
18870TIP3   OH278024   2.961   0.945   0.756 -0.1526  0.1632  0.3013
18870TIP3    H178025   2.880   0.919   0.799 -0.0118 -0.3109  0.2806
18870TIP3    H278026   2.934   1.008   0.689 -0.4533  0.3310  0.5801
18871TIP3   OH278027   2.037   0.825  14.314 -0.4435  0.2340 -0.8160
18871TIP3    H178028   1.960   0.768  14.313  0.9517 -1.8227  0.6510
18871TIP3    H278029   2.102   0.778  14.261  0.7155  0.5100  0.3184
18872TIP3   OH278030   0.018   4.284  14.418  0.0844  0.5259 -0.0690
18872TIP3    H178031  -0.031   4.206  14.392 -1.6718  1.4669  0.2824
18872TIP3    H278032   0.097   4.249  14.460 -0.8486 -1.0836  0.4515
18873TIP3   OH278033   1.584   5.554   2.549  0.1443 -0.0580  0.3027
18873TIP3    H178034   1.679   5.548   2.537  0.4675  2.4658  1.1524
18873TIP3    H278035   1.566   5.491   2.620  1.2184 -0.3494  0.3438
18874TIP3   OH278036   0.576   3.810  10.138 -0.1237 -0.8933 -0.1208
18874TIP3    H178037   0.654   3.794  10.190  0.1110  0.9261  0.1712
18874TIP3    H278038   0.508   3.833  10.202 -0.9988 -2.6518 -0.3534
18875TIP3   OH278039   0.922   4.742   3.752  0.6922 -0.1103  0.1580
18875TIP3    H178040   0.939   4.698   3.668 -1.9350 -1.9423  0.4460
18875TIP3    H278041   0.865   4.680   3.800 -1.3156  2.6260  1.5762
18876TIP3   OH278042   4.970   6.702  14.046  0.0854  0.5563  0.4024
18876TIP3    H178043   4.940   6.634  13.985 -0.1541  1.7397 -0.8488
18876TIP3    H278044   4.893   6.721  14.100 -0.0724  0.3509  0.2503
18877TIP3   OH278045   2.976   5.880   3.931 -0.4441  0.4145 -0.5269
18877TIP3    H178046   3.010   5.800   3.971 -0.0888 -0.4232 -2.3921
18877TIP3    H278047   3.015   5.951   3.982  0.7286 -0.5722 -0.0030
18878TIP3   OH278048   3.108   3.478   1.088 -0.1055 -0.1076 -0.6267
18878TIP3    H178049   3.175   3.533   1.048  2.6562 -1.0611  2.2735
18878TIP3    H278050   3.061   3.537   1.147  3.1418 -0.5880  2.8198
18879TIP3   OH278051   5.495   4.700  12.084  0.0719 -0.9873 -0.0951
18879TIP3    H178052   5.548   4.635  12.038  1.8462  1.8599 -2.5214
18879TIP3    H278053   5.445   4.743  12.014  0.3507  1.3814  1.0545
18880TIP3   OH278054   2.213   4.327  13.802  0.3912 -0.1216  0.4464
18880TIP3    H178055   2.120   4.345  13.788  0.3420  0.2694  1.2618
18880TIP3    H278056   2.215   4.242  13.845  0.4865 -0.7610 -0.7838
18881TIP3   OH278057   2.525   1.834  14.677 -0.2856  0.0330  0.1265
18881TIP3    H178058   2.542   1.776  14.751 -3.2167 -1.2287 -0.0504
18881TIP3    H278059   2.512   1.775  14.603 -0.3936  1.1148 -0.7409
18882TIP3   OH278060   0.024   6.712   4.253 -0.3021 -0.0982 -0.9347
18882TIP3    H178061   0.072   6.652   4.195 -0.4320 -1.6283  0.4611
18882TIP3    H278062  -0.067   6.685   4.245 -0.3557 -0.1283 -0.2286
18883TIP3   OH278063   6.350   2.332  14.415  0.1474 -0.0556 -0.1596
18883TIP3    H178064   6.433   2.364  14.450 -0.6863  1.1336  0.8194
18883TIP3    H278065   6.303   2.412  14.388 -0.2148 -0.7799 -1.8099
18884TIP3   OH278066   3.975   0.957   2.961 -0.2720 -0.0472 -0.1780
18884TIP3    H178067   3.964   0.892   2.891  0.5079 -0.8961  0.4672
18884TIP3    H278068   3.990   0.905   3.040  1.9379  0.8789  0.0963
18885TIP3   OH278069   2.209   4.140  16.035  0.1960  0.0355  0.4134
18885TIP3    H178070   2.273   4.163  15.968 -0.3417 -0.0906 -0.1549
18885TIP3    H278071   2.203   4.218  16.090 -2.3497  1.7910 -2.0613
18886TIP3   OH278072   3.931   4.852   6.192  0.3900  0.3631  0.0856
18886TIP3    H178073   3.975   4.785   6.244 -0.6906 -1.8707 -1.6704
18886TIP3    H278074   3.865   4.889   6.250  0.0523 -1.1510  0.7165
18887TIP3   OH278075   6.334   4.094   3.207  0.3611  0.2242 -0.4023
18887TIP3    H178076   6.418   4.141   3.210  1.0803 -0.6557 -3.4503
18887TIP3    H278077   6.353   4.016   3.155 -2.3017 -0.1450 -0.9150
18888TIP3   OH278078   1.376   5.940   2.557  0.6777 -0.8900 -0.5152
18888TIP3    H178079   1.403   5.910   2.643 -0.6603  1.0831  0.6772
18888TIP3    H278080   1.436   6.011   2.535 -0.0416 -0.2253 -0.3896
18889TIP3   OH278081   2.351   0.623   0.215  0.0506 -0.2569 -0.0043
18889TIP3    H178082   2.298   0.629   0.136 -0.8681  1.0501  0.6642
18889TIP3    H278083   2.407   0.547   0.201 -1.2025 -1.0067 -1.2260
18890TIP3   OH278084   2.641   3.262   2.489 -0.0241 -0.0336 -0.1913
18890TIP3    H178085   2.722   3.213   2.473  0.7371  0.5125  1.7544
18890TIP3    H278086   2.645   3.336   2.428  0.6133 -0.3834 -0.5763
18891TIP3   OH278087   4.120   1.144   1.160  0.4503  0.3575  0.1131
18891TIP3    H178088   4.190   1.166   1.222  0.5889  1.7022 -0.4746
18891TIP3    H278089   4.132   1.051   1.142 -0.6171 -0.5638  3.3614
18892TIP3   OH278090   5.288   1.006   1.693 -0.2648 -0.4716  0.2808
18892TIP3    H178091   5.228   0.933   1.707  0.5678 -1.2949 -0.3360
18892TIP3    H278092   5.289   1.020   1.598  1.5951 -1.4455  0.1086
18893TIP3   OH278093   2.479   1.478  11.308 -0.0818 -0.0814  0.0560
18893TIP3    H178094   2.538   1.544  11.345 -0.9870  0.1740  1.0789
18893TIP3    H278095   2.522   1.395  11.328 -0.0905  0.0990  0.8508
18894TIP3   OH278096   5.773   4.992  11.016 -0.5960  0.2952  0.2129
18894TIP3    H178097   5.699   4.948  11.059  0.3317 -2.4356 -0.7341
18894TIP3    H278098   5.732   5.048  10.950 -1.9057 -1.2442 -0.3681
18895TIP3   OH278099   1.179   6.174  12.606 -0.2647  0.4174  0.1260
18895TIP3    H178100   1.160   6.142  12.518  0.6670 -0.5747  0.2622
18895TIP3    H278101   1.275   6.179  12.609 -0.3046  0.7861  0.9667
18896TIP3   OH278102   5.315   6.498  10.729 -0.3173  0.0751 -0.3184
18896TIP3    H178103   5.384   6.482  10.665  0.2948 -0.5404  0.4685
18896TIP3    H278104   5.234   6.479  10.683  0.0526  0.4867 -1.1573
18897TIP3   OH278105   3.973   5.569  12.847 -0.0889  0.1520 -0.5478
18897TIP3    H178106   3.890   5.549  12.805  0.2648 -0.2932 -1.0541
18897TIP3    H278107   4.039   5.542  12.783  0.4478  0.2913 -0.0612
18898TIP3   OH278108   2.403   1.032  13.663 -0.1977 -0.2861  0.5204
18898TIP3    H178109   2.374   1.121  13.643 -0.3277 -0.2800  0.7314
18898TIP3    H278110   2.498   1.038  13.671 -0.0818 -0.4004 -0.6651
18899TIP3   OH278111   0.513   0.323   4.772  0.3176 -0.3929  0.0574
18899TIP3    H178112   0.478   0.248   4.726 -0.1590  0.7576 -1.5523
18899TIP3    H278113   0.545   0.381   4.703  0.0935  1.1589  1.1962
18900TIP3   OH278114   0.943   4.928  15.452 -0.2852 -0.2428 -0.7194
18900TIP3    H178115   0.886   4.934  15.528  0.9620 -2.6899  0.5386
18900TIP3    H278116   0.918   4.847  15.409  1.0624 -0.4834 -1.1125
18901TIP3   OH278117   1.105   3.430   4.676 -0.2771  0.2977 -0.0759
18901TIP3    H178118   1.012   3.453   4.666 -0.1200  0.8034 -0.4039
18901TIP3    H278119   1.130   3.466   4.761 -0.4808 -0.2027  0.2067
18902TIP3   OH278120   1.422   3.593   5.514 -0.0615 -0.0186 -0.1405
18902TIP3    H178121   1.490   3.545   5.467 -0.2633 -0.8460  0.4042
18902TIP3    H278122   1.394   3.534   5.584 -2.3790 -0.3249 -1.2198
18903TIP3   OH278123   2.511   4.631   4.408  0.0580  0.3661  0.3100
18903TIP3    H178124   2.417   4.618   4.396  0.1392  0.9145 -1.1235
18903TIP3    H278125   2.539   4.556   4.460 -1.0652 -0.1293  0.2350
18904TIP3   OH278126   2.064   0.577  15.892 -0.2011  0.2794  0.3645
18904TIP3    H178127   2.144   0.629  15.890 -0.5623  0.8137 -0.6157
18904TIP3    H278128   2.085   0.499  15.840 -0.4398  0.6363 -0.2917
18905TIP3   OH278129   1.041   6.014  15.602 -0.0662 -0.1824  0.1768
18905TIP3    H178130   1.059   6.044  15.513 -0.6163 -0.8201 -0.1638
18905TIP3    H278131   1.005   5.926  15.590 -0.6764 -0.0543  0.9955
18906TIP3   OH278132   4.008   6.185   0.202 -0.3299  0.2854 -0.2900
18906TIP3    H178133   3.978   6.097   0.221 -1.6432  0.7137 -0.2821
18906TIP3    H278134   4.098   6.188   0.235 -0.9232 -0.4438  1.5099
18907TIP3   OH278135   4.335   2.833   5.311  0.1442  0.6037  0.3710
18907TIP3    H178136   4.303   2.921   5.292  0.9672  0.7406 -0.4505
18907TIP3    H278137   4.323   2.785   5.229  1.7052  0.5745  0.1322
18908TIP3   OH278138   6.298   1.717  15.184  0.1333 -0.2975 -0.1095
18908TIP3    H178139   6.234   1.692  15.250  0.5068  0.0086  0.3768
18908TIP3    H278140   6.373   1.660  15.200  0.1132 -0.4211 -0.4570
18909TIP3   OH278141   5.377   2.376   3.561  0.0877  0.5422  0.7395
18909TIP3    H178142   5.328   2.378   3.479  1.1421 -0.7614  0.0348
18909TIP3    H278143   5.455   2.429   3.544  0.7439 -0.4420  0.5688
18910TIP3   OH278144   6.797   3.044  15.895 -0.5036 -0.7883  0.3680
18910TIP3    H178145   6.833   2.986  15.828 -0.0704  2.1016 -2.1039
18910TIP3    H278146   6.715   3.002  15.922 -1.1927 -1.6443 -2.7190
18911TIP3   OH278147   4.403   1.995   4.841  0.4173  0.5098 -0.5450
18911TIP3    H178148   4.461   2.040   4.778 -1.3098  3.3520 -0.2845
18911TIP3    H278149   4.338   2.061   4.864 -0.5086 -1.2529  2.3426
18912TIP3   OH278150   5.881   0.761  14.225  0.2760 -0.2590 -0.9893
18912TIP3    H178151   5.792   0.797  14.227 -0.4348 -1.9375 -0.0341
18912TIP3    H278152   5.868   0.666  14.219  2.0196 -0.5088 -1.2690
18913TIP3   OH278153   5.896   4.715   4.993 -0.1026  0.1256  0.6088
18913TIP3    H178154   5.802   4.707   5.009  0.3447 -0.7559  3.1198
18913TIP3    H278155   5.920   4.632   4.952  0.0665 -0.9386  2.7802
18914TIP3   OH278156   4.493   4.035  12.639 -0.1260 -0.3105  0.0580
18914TIP3    H178157   4.510   4.110  12.696 -1.2942 -0.5731  0.7819
18914TIP3    H278158   4.402   4.047  12.611 -0.2138 -1.2761 -0.1003
18915TIP3   OH278159   1.223   5.388   3.206  0.5610 -0.1102  0.0251
18915TIP3    H178160   1.271   5.387   3.123  1.7805 -0.0548  0.6992
18915TIP3    H278161   1.193   5.479   3.214  1.3449  0.1579  0.1181
18916TIP3   OH278162   0.836   2.625   4.007 -0.2452  0.5322 -0.1842
18916TIP3    H178163   0.748   2.662   4.008  0.4203  2.1705 -0.0784
18916TIP3    H278164   0.856   2.610   3.915 -0.7781 -0.2403 -0.1818
18917TIP3   OH278165   1.877   6.532  14.422 -0.0539 -0.4688  0.7083
18917TIP3    H178166   1.824   6.608  14.398  0.8002 -0.2700 -0.6748
18917TIP3    H278167   1.821   6.457  14.405 -0.2160 -0.2255  0.1561
18918TIP3   OH278168   4.053   4.134  12.960  0.5984 -0.0641  0.1031
18918TIP3    H178169   4.025   4.178  13.041  2.5287 -0.7389  1.2119
18918TIP3    H278170   4.120   4.191  12.924  1.2679 -0.8024  0.1516
18919TIP3   OH278171   3.149   1.783  12.483  0.5092 -0.2824  0.2858
18919TIP3    H178172   3.172   1.869  12.518 -0.1106 -0.0285  0.0784
18919TIP3    H278173   3.127   1.730  12.560 -1.0426  0.3289  0.3042
18920TIP3   OH278174   3.487   3.340  10.867  0.0674  0.9025  0.2262
18920TIP3    H178175   3.542   3.418  10.865  1.2294  0.1095 -1.4868
18920TIP3    H278176   3.398   3.373  10.855  0.5264  1.9937 -0.3498
18921TIP3   OH278177   2.152   2.944   3.489 -0.7207 -0.1008 -0.5017
18921TIP3    H178178   2.126   2.862   3.447  0.3658 -0.8533  0.2372
18921TIP3    H278179   2.148   2.925   3.583 -0.1058  0.5710 -0.3334
18922TIP3   OH278180   1.306   6.104   2.308  0.2739 -0.0524 -0.3242
18922TIP3    H178181   1.358   6.027   2.332  0.6138 -0.2514 -1.6362
18922TIP3    H278182   1.261   6.079   2.227 -1.4797  0.3085  0.4844
18923TIP3   OH278183   5.492   2.911   4.309 -0.0756 -0.0482  0.2331
18923TIP3    H178184   5.580   2.874   4.316  0.1624  0.2726 -0.9492
18923TIP3    H278185   5.450   2.862   4.239 -0.9928 -0.4714  1.0586
18924TIP3   OH278186   4.546   3.503  16.675  0.5954  0.5464 -0.2829
18924TIP3    H178187   4.483   3.524  16.745  2.5875 -0.1909  1.8534
18924TIP3    H278188   4.596   3.583  16.663  0.0010  0.7955 -1.2072
18925TIP3   OH278189   1.465   0.809  14.843 -0.1314 -0.2586  0.1129
18925TIP3    H178190   1.414   0.845  14.915  0.0097  0.1770 -0.0028
18925TIP3    H278191   1.401   0.764  14.788 -0.5659  1.1530 -0.5811
18926TIP3   OH278192   3.804   0.674  11.721  0.0991 -0.0018  0.4725
18926TIP3    H178193   3.872   0.621  11.680 -0.6278  0.0116 -0.8005
18926TIP3    H278194   3.830   0.764  11.702  0.7286  0.0819  1.6516
18927TIP3   OH278195   5.361   0.395   5.932 -0.3778 -0.2578 -0.3230
18927TIP3    H178196   5.337   0.430   5.846  0.5599  3.2962  0.7077
18927TIP3    H278197   5.435   0.449   5.960  2.8441 -4.6237  0.6348
18928TIP3   OH278198   5.840   2.149   0.901  0.3392 -0.1786 -0.0705
18928TIP3    H178199   5.909   2.153   0.967 -0.3874 -0.3241  0.7200
18928TIP3    H278200   5.861   2.071   0.849 -0.2807 -1.3713  1.3942
18929TIP3   OH278201   3.898   2.250   1.410  0.4390  0.0625  0.5650
18929TIP3    H178202   3.821   2.198   1.387  0.4731  0.1891  0.1653
18929TIP3    H278203   3.925   2.215   1.495  0.0558 -0.1124  0.6190
18930TIP3   OH278204   2.908   1.612   1.611 -0.7807  0.2547  0.6872
18930TIP3    H178205   2.980   1.656   1.566  0.1943 -0.1032  1.8696
18930TIP3    H278206   2.950   1.553   1.673 -2.0987  0.2830  1.6450
18931TIP3   OH278207   1.723   3.337   3.952  0.2929  0.5077  0.1840
18931TIP3    H178208   1.738   3.244   3.936  2.6339  0.7445  0.6035
18931TIP3    H278209   1.645   3.358   3.902 -0.3611 -1.7046  0.1971
18932TIP3   OH278210   0.218   0.762   3.722 -0.8919  0.2474  0.0578
18932TIP3    H178211   0.288   0.804   3.672 -0.0008 -0.9605  0.2400
18932TIP3    H278212   0.142   0.767   3.664 -0.3779  0.6190 -0.6092
18933TIP3   OH278213   5.602   1.155  14.761 -0.1481  0.0086 -0.4436
18933TIP3    H178214   5.568   1.121  14.678 -0.5954 -0.0343 -0.2481
18933TIP3    H278215   5.558   1.239  14.772 -1.1442 -0.5812  0.4011
18934TIP3   OH278216   1.102   0.413   0.134 -0.2313  0.2036 -0.3636
18934TIP3    H178217   1.172   0.408   0.199  1.7533 -0.2938 -2.4158
18934TIP3    H278218   1.085   0.321   0.111 -1.0371  0.3630 -0.4373
18935TIP3   OH278219   6.092   6.298   5.784 -0.8068 -0.6271  0.1924
18935TIP3    H178220   6.147   6.313   5.707 -0.1249 -0.9263  0.6015
18935TIP3    H278221   6.146   6.328   5.857 -0.9859 -1.4022  0.6498
18936TIP3   OH278222   4.085   0.373  13.503 -0.2669 -0.4049  0.4265
18936TIP3    H178223   4.144   0.443  13.531 -1.7189  1.8052 -1.6948
18936TIP3    H278224   4.134   0.325  13.436 -1.0260  2.0483 -2.0767
18937TIP3   OH278225   4.527   6.230  15.813  0.0808 -0.4905 -0.0868
18937TIP3    H178226   4.474   6.182  15.877  1.2064  0.2911  1.5052
18937TIP3    H278227   4.578   6.291  15.866  3.4524 -1.9789 -1.3390
18938TIP3   OH278228   4.606   5.629  12.063  0.3967 -0.3473 -0.8200
18938TIP3    H178229   4.660   5.706  12.045  1.1516 -0.5232  0.5645
18938TIP3    H278230   4.668   5.556  12.069  0.2315 -0.3454  2.1226
18939TIP3   OH278231   0.931   5.049  12.761 -0.2037  0.6575 -0.5848
18939TIP3    H178232   0.886   4.970  12.732  0.2387  0.9577 -2.1944
18939TIP3    H278233   0.866   5.118  12.753 -0.1451  0.7031 -0.6765
18940TIP3   OH278234   4.732   3.288  16.707 -0.4133 -0.2903 -0.4344
18940TIP3    H178235   4.691   3.260  16.625 -0.4935  2.0493 -1.2668
18940TIP3    H278236   4.710   3.381  16.715  0.8459 -0.0951  1.4951
18941TIP3   OH278237   6.174   0.129  11.345  0.0492  0.2449 -0.4326
18941TIP3    H178238   6.264   0.114  11.372 -0.7762 -1.7120  1.6227
18941TIP3    H278239   6.147   0.208  11.392  0.0894 -0.3933  0.7025
18942TIP3   OH278240   6.666   0.074  15.986  0.3817 -0.0088 -0.2768
18942TIP3    H178241   6.692   0.118  15.905  0.1494 -1.1315 -0.9829
18942TIP3    H278242   6.573   0.054  15.973  0.4672 -0.6502  0.0463
18943TIP3   OH278243   5.761   3.836  14.188 -0.4306  0.8093 -0.2335
18943TIP3    H178244   5.764   3.799  14.277 -0.2524  0.7718 -0.2543
18943TIP3    H278245   5.737   3.927  14.201 -0.3309  0.8228 -0.1409
18944TIP3   OH278246   0.443   3.451  12.293 -0.1714  0.1990 -0.0217
18944TIP3    H178247   0.349   3.446  12.309  0.0078  0.0138  1.1294
18944TIP3    H278248   0.458   3.395  12.217 -0.7488 -1.4602  1.0183
18945TIP3   OH278249   4.289   0.367   0.434  0.7832 -0.3401  0.0686
18945TIP3    H178250   4.380   0.389   0.412  0.0552 -0.5797 -3.8938
18945TIP3    H278251   4.293   0.276   0.462  1.6281 -0.9051 -1.7381
18946TIP3   OH278252   0.603   3.181   4.997 -0.2749 -0.0703 -0.6157
18946TIP3    H178253   0.675   3.137   4.952  1.5526  0.2902  1.8106
18946TIP3    H278254   0.630   3.272   5.004 -1.7592  0.4441 -1.1322
18947TIP3   OH278255   1.837   3.524   3.345 -0.0541 -0.0726  0.4208
18947TIP3    H178256   1.855   3.572   3.426  0.6339 -1.1745  0.9521
18947TIP3    H278257   1.800   3.441   3.375  0.2449 -0.5116 -0.3976
18948TIP3   OH278258   3.393   3.455   2.400  0.3834 -0.2880 -0.6602
18948TIP3    H178259   3.340   3.489   2.328 -0.9430 -0.7861  0.0574
18948TIP3    H278260   3.422   3.369   2.370 -0.0518 -0.4370 -0.6515
18949TIP3   OH278261   1.265   6.775  14.366 -0.2462  0.1366  0.1254
18949TIP3    H178262   1.291   6.787  14.275  0.2297 -3.0014 -0.2647
18949TIP3    H278263   1.337   6.725  14.405 -1.0571  0.2663  1.8704
18950TIP3   OH278264   0.823   3.557   4.673 -0.1620 -0.2617  0.4201
18950TIP3    H178265   0.802   3.604   4.754 -0.6327 -0.0301  0.1641
18950TIP3    H278266   0.747   3.570   4.617  0.2440 -0.2640 -0.1367
18951TIP3   OH278267   3.940   2.859   4.816 -0.1234  0.2935 -0.2956
18951TIP3    H178268   3.874   2.879   4.883 -0.7717 -0.3704 -0.7213
18951TIP3    H278269   3.924   2.768   4.792  0.8942  0.1522 -0.4814
18952TIP3   OH278270   2.866   2.181   2.960  0.0786  0.3950  0.1959
18952TIP3    H178271   2.882   2.089   2.939 -1.4560 -0.3591  1.9910
18952TIP3    H278272   2.903   2.230   2.886 -0.5610 -1.7355 -1.6472
18953TIP3   OH278273   4.866   4.928   4.999  0.6243 -0.0331  0.5522
18953TIP3    H178274   4.871   4.847   4.949 -1.9291 -0.2248  0.4714
18953TIP3    H278275   4.813   4.986   4.944 -1.8281 -0.0761  2.7193
18954TIP3   OH278276   4.848   0.616  12.960  0.0855 -0.0471  0.5797
18954TIP3    H178277   4.914   0.579  12.902  0.0325 -0.3755  0.7248
18954TIP3    H278278   4.805   0.684  12.908 -0.0664 -0.4425  0.1827
18955TIP3   OH278279   2.153   3.818  15.596  0.0084 -0.4320  0.5753
18955TIP3    H178280   2.079   3.759  15.607 -1.0811  0.6169 -0.7361
18955TIP3    H278281   2.207   3.775  15.530 -0.5018 -0.2368  0.0229
18956TIP3   OH278282   0.958   5.936  10.730 -0.3645  0.5519 -0.5160
18956TIP3    H178283   0.893   5.990  10.685  0.1741  0.8256 -0.9791
18956TIP3    H278284   0.982   5.870  10.665 -0.0381  0.5679 -0.4083
18957TIP3   OH278285   0.508   4.877  13.158  0.2413  0.4321 -0.3453
18957TIP3    H178286   0.416   4.865  13.182 -1.0317  1.5606 -3.9786
18957TIP3    H278287   0.530   4.800  13.107  0.3198  1.4120 -1.8729
18958TIP3   OH278288   1.592   2.262  12.981  0.2810  0.3357 -0.4394
18958TIP3    H178289   1.606   2.186  12.925  0.8947 -0.8317  1.2090
18958TIP3    H278290   1.656   2.252  13.051  0.8596  2.7777 -0.5481
18959TIP3   OH278291   6.001   6.127  16.538  0.0841  0.4878  0.1852
18959TIP3    H178292   6.059   6.200  16.563  0.8543 -0.0461  0.0031
18959TIP3    H278293   6.048   6.048  16.565  0.2092 -0.0361 -1.4401
18960TIP3   OH278294   2.517   6.149  13.391 -0.3357  0.2252 -0.1614
18960TIP3    H178295   2.591   6.206  13.413  0.9105 -1.0227 -0.9200
18960TIP3    H278296   2.556   6.081  13.335 -2.1255 -0.3194 -0.7942
18961TIP3   OH278297   6.599   2.494  16.965  0.2125  0.3721 -0.1975
18961TIP3    H178298   6.663   2.425  16.977 -0.2466 -0.4217 -1.9775
18961TIP3    H278299   6.550   2.468  16.887 -0.8226  2.0592 -0.1628
18962TIP3   OH278300   2.023   4.115   0.391 -0.2604 -0.0074 -0.9571
18962TIP3    H178301   2.090   4.065   0.437 -0.2982 -0.1677 -1.0758
18962TIP3    H278302   2.065   4.198   0.370 -0.4210  0.2944 -0.1328
18963TIP3   OH278303   0.949   1.832  12.599 -0.4106 -0.1063 -0.4216
18963TIP3    H178304   0.902   1.749  12.599  0.8095 -0.8570  0.8500
18963TIP3    H278305   0.957   1.855  12.692  1.5816  0.0169 -0.5699
18964TIP3   OH278306   5.977   2.592  11.815 -0.1443  0.2996 -0.5194
18964TIP3    H178307   5.902   2.556  11.862  0.5932  0.6428  0.9802
18964TIP3    H278308   6.026   2.515  11.787  0.0312  0.0839  0.3442
18965TIP3   OH278309   5.428   1.919  15.389 -0.0491  0.2988 -0.3319
18965TIP3    H178310   5.437   1.955  15.300 -2.5263 -1.3399 -1.3699
18965TIP3    H278311   5.336   1.894  15.395  0.0468  0.3258  2.7553
18966TIP3   OH278312   4.911   0.575  14.237 -0.6359  0.0942 -0.2705
18966TIP3    H178313   4.819   0.566  14.260 -1.1744  2.5145 -1.0957
18966TIP3    H278314   4.910   0.636  14.162  1.6469  0.4175 -0.0963
18967TIP3   OH278315   4.343   4.900   5.840  0.1454  0.5419  0.3946
18967TIP3    H178316   4.366   4.930   5.928  2.1604  1.2695 -0.3340
18967TIP3    H278317   4.426   4.893   5.793 -0.8951  0.6996 -1.6238
18968TIP3   OH278318   3.363   6.256   1.939  0.0334 -0.2077  0.6355
18968TIP3    H178319   3.455   6.231   1.935  0.2464  0.6102 -0.0171
18968TIP3    H278320   3.365   6.349   1.961 -0.6298 -0.1721  0.5560
18969TIP3   OH278321   5.908   2.136   6.323 -0.2451  0.0511 -0.6098
18969TIP3    H178322   5.900   2.134   6.227 -1.2887 -3.3206 -0.5790
18969TIP3    H278323   5.955   2.055   6.344  0.6976  1.1392  1.7303
18970TIP3   OH278324   1.188   4.295   5.239 -0.4256  0.1887  0.0920
18970TIP3    H178325   1.171   4.272   5.330 -1.2481  0.0198 -0.0961
18970TIP3    H278326   1.102   4.310   5.201  0.0024  2.2041 -0.1763
18971TIP3   OH278327   6.775   3.916  15.896  0.1356  0.0557 -0.2911
18971TIP3    H178328   6.824   3.903  15.977  1.4206 -0.5308 -1.1287
18971TIP3    H278329   6.689   3.946  15.924  0.2163 -1.1491  1.3435
18972TIP3   OH278330   6.618   6.750   4.848  0.1873  0.2223  0.2642
18972TIP3    H178331   6.632   6.707   4.932  1.0715  1.4046  0.7397
18972TIP3    H278332   6.612   6.677   4.785  0.6493 -0.6275  1.1802
18973TIP3   OH278333   4.812   4.367   3.868 -0.1965  0.3083 -0.1906
18973TIP3    H178334   4.759   4.446   3.866 -1.1563 -0.2798  0.9092
18973TIP3    H278335   4.864   4.375   3.947 -0.5786 -0.3332  0.1292
18974TIP3   OH278336   3.061   3.607  11.071 -0.2068  0.2289  0.2406
18974TIP3    H178337   3.011   3.684  11.042  0.0151 -0.2677 -1.6015
18974TIP3    H278338   3.021   3.534  11.024  0.6933 -0.5240  0.6228
18975TIP3   OH278339   0.420   2.577   1.672 -0.2063  0.9417 -0.0253
18975TIP3    H178340   0.426   2.481   1.673  0.0809  0.9523 -0.3799
18975TIP3    H278341   0.329   2.595   1.647  0.2749  0.7454 -2.1377
18976TIP3   OH278342   2.877   3.635  12.660 -0.2771  0.2324  0.2711
18976TIP3    H178343   2.830   3.600  12.583  0.2444 -0.7346  0.3733
18976TIP3    H278344   2.820   3.704  12.693 -1.4420 -0.6143  0.1341
18977TIP3   OH278345   0.945   4.782   5.060 -0.3076  0.6074  0.1968
18977TIP3    H178346   1.035   4.814   5.071 -0.4900  1.9208 -1.7405
18977TIP3    H278347   0.896   4.823   5.131 -0.0776  3.0035 -0.9128
18978TIP3   OH278348   6.267   3.421  13.896 -0.0017 -0.3342  0.0449
18978TIP3    H178349   6.287   3.389  13.985 -0.0527  1.1299  0.6181
18978TIP3    H278350   6.245   3.342  13.847  2.1094 -1.4644  0.7490
18979TIP3   OH278351   1.001   6.601  14.926 -0.2528 -0.5210  0.1309
18979TIP3    H178352   1.038   6.667  14.985  0.8715 -1.2195  0.2556
18979TIP3    H278353   1.045   6.616  14.842 -0.8613 -0.3695 -0.1620
18980TIP3   OH278354   2.189   0.542  12.727  0.1015  0.4396  0.0126
18980TIP3    H178355   2.221   0.631  12.712 -1.4147  0.6592 -2.4034
18980TIP3    H278356   2.095   0.553  12.740  0.3941 -0.4517  4.2463
18981TIP3   OH278357   0.822   6.629   5.305 -0.2312  0.0360 -0.2527
18981TIP3    H178358   0.845   6.540   5.277  1.2375  0.4783 -0.5814
18981TIP3    H278359   0.861   6.638   5.392 -0.4798  0.3228 -0.1691
18982TIP3   OH278360   0.371   0.794  12.083 -0.2074  0.0079  0.4707
18982TIP3    H178361   0.354   0.707  12.048  0.9921  0.3711 -1.1856
18982TIP3    H278362   0.328   0.853  12.021 -1.0141  0.6121  1.5762
18983TIP3   OH278363   3.729   2.160   0.057 -0.2965 -0.1167  0.0343
18983TIP3    H178364   3.710   2.249   0.086  0.7406  0.0212  0.3398
18983TIP3    H278365   3.648   2.130   0.015 -1.1775  0.3890  1.3226
18984TIP3   OH278366   2.817   2.117  14.319  0.2511  0.1525 -0.3246
18984TIP3    H178367   2.911   2.114  14.334  0.0523  1.3765  1.4633
18984TIP3    H278368   2.800   2.207  14.288 -0.3594  0.0365 -0.3461
18985TIP3   OH278369   4.267   0.827  16.065  0.2168  0.8359 -0.1291
18985TIP3    H178370   4.229   0.743  16.093  2.2253 -0.0409  0.2137
18985TIP3    H278371   4.280   0.818  15.971 -0.0574  0.9766 -0.1805
18986TIP3   OH278372   4.393   2.941   5.030  0.8855  0.2631 -0.2440
18986TIP3    H178373   4.408   2.979   4.943 -0.0410  1.0196 -0.0969
18986TIP3    H278374   4.417   2.849   5.021  3.4388  0.9078 -0.5461
18987TIP3   OH278375   1.164   1.611  11.962  0.1439  0.0528  0.2647
18987TIP3    H178376   1.131   1.554  11.892  0.1398 -0.1939  0.4668
18987TIP3    H278377   1.148   1.562  12.043 -2.3053  1.4231  0.7114
18988TIP3   OH278378   2.186   1.979  11.939  0.4649 -0.5840  0.7261
18988TIP3    H178379   2.276   2.009  11.951  1.1281 -2.8793  1.9545
18988TIP3    H278380   2.163   2.009  11.851  1.8701  1.2971  0.9154
18989TIP3   OH278381   6.780   4.474   0.627  0.2584  1.0127  0.0445
18989TIP3    H178382   6.706   4.534   0.618  0.1703  0.8627 -0.2304
18989TIP3    H278383   6.740   4.388   0.636  0.4082  0.8683 -0.6294
18990TIP3   OH278384   6.642   0.320   5.100 -0.2126  0.0007  0.1401
18990TIP3    H178385   6.568   0.362   5.144 -1.4091 -2.1381  0.2870
18990TIP3    H278386   6.622   0.330   5.007 -0.0947  0.4047  0.1548
18991TIP3   OH278387   0.660   1.306   2.957 -0.1101 -0.5843 -0.2044
18991TIP3    H178388   0.592   1.320   3.023 -0.9067  0.0739 -1.1472
18991TIP3    H278389   0.714   1.385   2.961  1.0348 -1.3879  1.0073
18992TIP3   OH278390   4.441   3.330  15.829  0.1028  0.0060  0.8737
18992TIP3    H178391   4.385   3.382  15.771 -1.4897 -0.1889  2.1626
18992TIP3    H278392   4.476   3.261  15.773 -0.1836  0.6961 -0.1843
18993TIP3   OH278393   5.238   4.976  16.676 -0.1445 -0.5071  0.4557
18993TIP3    H178394   5.310   5.040  16.674  0.0895 -0.7847 -0.6028
18993TIP3    H278395   5.282   4.891  16.669 -0.6004 -0.6369 -1.2952
18994TIP3   OH278396   3.109   2.837  11.531  0.2332 -0.2919 -0.3805
18994TIP3    H178397   3.195   2.875  11.512  0.3995  0.3759  1.4745
18994TIP3    H278398   3.046   2.898  11.492  0.5640  0.6697  0.5517
18995TIP3   OH278399   5.307   1.463  12.066 -0.3271 -0.1695 -0.1014
18995TIP3    H178400   5.359   1.491  11.991 -0.4731 -0.3546 -0.2713
18995TIP3    H278401   5.320   1.533  12.131  0.3687 -0.3642 -0.0293
18996TIP3   OH278402   4.926   2.556   1.696 -0.1650 -0.1225 -0.2554
18996TIP3    H178403   4.844   2.585   1.736 -1.2511 -2.2729 -0.8114
18996TIP3    H278404   4.993   2.613   1.735 -1.8632  1.5877  0.3193
18997TIP3   OH278405   1.564   0.118  14.538 -0.3718 -0.4854  0.0189
18997TIP3    H178406   1.635   0.119  14.473  0.0255 -0.7818  0.4364
18997TIP3    H278407   1.512   0.195  14.518 -1.1690 -1.4243 -1.6349
18998TIP3   OH278408   4.431   4.369  12.784 -0.1445  0.4169 -0.0609
18998TIP3    H178409   4.366   4.392  12.718 -0.2787 -2.2129 -0.9530
18998TIP3    H278410   4.380   4.327  12.854  0.1221  2.2901  1.3506
18999TIP3   OH278411   5.022   2.312  16.134  0.2705 -0.1381 -0.4171
18999TIP3    H178412   4.990   2.241  16.190 -0.8782  0.6068 -0.1054
18999TIP3    H278413   5.112   2.327  16.164  0.2028 -0.8130  0.1487
19000TIP3   OH278414   5.593   2.602   4.468  0.4831  0.2320 -0.3638
19000TIP3    H178415   5.592   2.519   4.515  0.6775  0.7195  0.5263
19000TIP3    H278416   5.512   2.645   4.494  0.9673  0.8474  0.1882
19001TIP3   OH278417   0.410   3.753   5.317 -0.0974  0.0767 -0.0196
19001TIP3    H178418   0.413   3.786   5.406  0.6808 -0.4661  0.1661
19001TIP3    H278419   0.464   3.674   5.318  0.9704  0.7409 -1.2454
19002TIP3   OH278420   0.838   6.518  11.978  0.0647  0.0832  0.7059
19002TIP3    H178421   0.879   6.596  11.942 -0.2115 -0.1980 -0.2312
19002TIP3    H278422   0.899   6.447  11.960  0.4779  0.1162  1.8621
19003TIP3   OH278423   6.739   1.849   4.693  0.3731 -0.4517  0.0186
19003TIP3    H178424   6.686   1.770   4.694 -1.4827  0.7283  1.6783
19003TIP3    H278425   6.728   1.885   4.604 -0.6334 -0.8531 -0.0258
19004TIP3   OH278426   1.176   2.729   2.371  0.4918  0.2616 -0.1672
19004TIP3    H178427   1.222   2.668   2.313  0.3622  0.7579 -0.8006
19004TIP3    H278428   1.089   2.690   2.382  0.7406 -0.1861  0.2609
19005TIP3   OH278429   3.078   6.102  13.093 -0.0616  0.3593  0.2430
19005TIP3    H178430   3.073   6.021  13.042 -0.7867 -1.6551  3.2588
19005TIP3    H278431   2.986   6.123  13.113  0.1343  1.8278 -0.2570
19006TIP3   OH278432   1.968   0.857   0.107  0.0117  0.3337 -0.3199
19006TIP3    H178433   2.001   0.850   0.017 -2.7774 -2.1766 -1.2911
19006TIP3    H278434   1.983   0.770   0.145  0.8776  1.2652  1.6128
19007TIP3   OH278435   2.040   6.330  16.170 -0.0421  0.2987 -0.2693
19007TIP3    H178436   2.116   6.385  16.152  0.5401 -0.3948  0.0116
19007TIP3    H278437   1.981   6.346  16.097 -0.7409  2.7305  0.7347
19008TIP3   OH278438   4.849   6.239   2.349 -0.3731  0.1007 -0.1820
19008TIP3    H178439   4.903   6.179   2.400 -0.3946 -0.6761 -1.0559
19008TIP3    H278440   4.764   6.239   2.393 -0.2696 -0.2377  0.0201
19009TIP3   OH278441   3.314   6.620   3.027  0.5156 -0.4937  0.1907
19009TIP3    H178442   3.252   6.668   3.082  0.0053  0.3242 -1.0425
19009TIP3    H278443   3.399   6.659   3.048  0.0487  1.3592 -1.1354
19010TIP3   OH278444   3.892   0.755   6.361 -0.2483  0.0646  0.1589
19010TIP3    H178445   3.955   0.734   6.430 -0.8223 -0.5792  0.4967
19010TIP3    H278446   3.830   0.815   6.403  0.7254  1.5828 -0.4750
19011TIP3   OH278447   2.268   2.745  15.765 -0.0277  0.0933  0.1168
19011TIP3    H178448   2.240   2.810  15.701  0.3500  0.4915  0.3437
19011TIP3    H278449   2.355   2.719  15.737 -0.9687 -1.8845 -1.1556
19012TIP3   OH278450   4.573   0.941   4.690 -0.1295  0.0622  0.2673
19012TIP3    H178451   4.498   0.911   4.741 -0.7260  0.7455 -0.2094
19012TIP3    H278452   4.648   0.894   4.729 -0.7079 -0.1623  1.1302
19013TIP3   OH278453   6.472   0.921  14.399 -0.1709  0.1047 -0.7213
19013TIP3    H178454   6.399   0.866  14.371  0.0025 -0.6608  0.2834
19013TIP3    H278455   6.537   0.912  14.329  0.1906 -1.6570 -0.2187
19014TIP3   OH278456   1.685   5.029   2.225  0.4740  0.5173  0.3855
19014TIP3    H178457   1.745   4.955   2.212  1.5248  0.8945  2.5286
19014TIP3    H278458   1.605   5.004   2.179  1.4687 -1.0548 -0.5972
19015TIP3   OH278459   2.860   0.912   0.042  0.1686 -0.0747  0.0485
19015TIP3    H178460   2.805   0.990   0.032  1.7218  1.0213 -0.3315
19015TIP3    H278461   2.840   0.879   0.130  0.3171  1.4462  0.6770
19016TIP3   OH278462   3.438   5.042  13.217 -0.3183 -0.0269 -0.0030
19016TIP3    H178463   3.444   5.135  13.238  2.3964 -0.4173  1.3186
19016TIP3    H278464   3.426   4.998  13.301  1.9984 -1.0519 -0.1425
19017TIP3   OH278465   4.094   4.160  13.947  0.2865  0.1190 -0.0813
19017TIP3    H178466   4.168   4.211  13.914 -0.0213  1.3191  0.9860
19017TIP3    H278467   4.059   4.212  14.020  0.0906 -1.7410  1.2382
19018TIP3   OH278468   1.751   1.225  15.253  0.0817  0.4565 -0.0179
19018TIP3    H178469   1.797   1.283  15.315 -1.0604  1.2334  0.1324
19018TIP3    H278470   1.669   1.203  15.297  0.2494 -0.8299 -0.3277
19019TIP3   OH278471   1.927   0.302  12.307  0.1666  0.0948  0.3280
19019TIP3    H178472   1.907   0.389  12.338 -1.4689  0.1178 -0.7039
19019TIP3    H278473   1.880   0.294  12.224  2.1508 -0.9317 -0.7919
19020TIP3   OH278474   4.879   1.689   4.110  0.1563  0.4376 -0.1513
19020TIP3    H178475   4.898   1.782   4.094 -1.2284  0.8290  0.3831
19020TIP3    H278476   4.831   1.661   4.032 -0.3453  0.4607  0.1437
19021TIP3   OH278477   5.693   2.590  12.331  0.0180  0.7286  0.1826
19021TIP3    H178478   5.638   2.566  12.257  2.2965 -1.9773 -0.8287
19021TIP3    H278479   5.752   2.656  12.296  1.0530 -0.5031 -0.4933
19022TIP3   OH278480   2.157   2.880   0.111  0.1523 -0.4743  0.5790
19022TIP3    H178481   2.229   2.871   0.173  1.0242 -0.7611 -0.4477
19022TIP3    H278482   2.142   2.792   0.078 -1.3434 -0.6038  1.4688
19023TIP3   OH278483   5.300   3.480   2.233 -0.6667  0.4703 -0.1441
19023TIP3    H178484   5.360   3.555   2.228 -0.3937  0.1801 -1.7151
19023TIP3    H278485   5.336   3.417   2.171 -0.5355 -1.2411  1.6037
19024TIP3   OH278486   1.372   2.400   1.451 -0.6756  0.4651  0.2377
19024TIP3    H178487   1.433   2.445   1.510  1.9306 -1.3441 -0.8633
19024TIP3    H278488   1.344   2.468   1.390 -0.1320  1.4687  1.0706
19025TIP3   OH278489   4.510   5.336   2.766 -0.6438 -0.2390 -0.3910
19025TIP3    H178490   4.429   5.366   2.725 -0.4584 -2.1810 -2.3807
19025TIP3    H278491   4.574   5.337   2.695  0.4062 -1.2315  0.5110
19026TIP3   OH278492   0.943   3.259   1.068 -0.3695  0.4720 -0.2090
19026TIP3    H178493   1.033   3.288   1.083  0.2710 -1.3034 -0.3996
19026TIP3    H278494   0.923   3.288   0.979  0.4784 -0.1985 -0.6315
19027TIP3   OH278495   5.851   5.467  14.602  0.1984 -0.3974 -0.1850
19027TIP3    H178496   5.765   5.455  14.642  0.6764 -0.5078  0.8405
19027TIP3    H278497   5.833   5.514  14.520 -0.6998  0.9830  0.7575
19028TIP3   OH278498   2.623   5.272   6.022  0.6825  0.1882 -0.1382
19028TIP3    H178499   2.548   5.244   6.075  1.9249 -2.3823  0.4532
19028TIP3    H278500   2.616   5.367   6.018 -1.4342  0.1867  1.6552
19029TIP3   OH278501   6.056   0.811   2.002  0.2546 -0.2440  0.0084
19029TIP3    H178502   6.145   0.833   2.029 -0.6004  2.0531  1.3164
19029TIP3    H278503   6.041   0.865   1.924  0.1623 -1.0112 -0.5103
19030TIP3   OH278504   5.093   0.892  11.054 -0.2075 -0.1039  0.2053
19030TIP3    H178505   5.054   0.886  10.967  0.4752 -2.2359 -0.0060
19030TIP3    H278506   5.027   0.855  11.113  0.0208 -0.2526  0.3677
19031TIP3   OH278507   4.263   1.350   0.549 -0.3027 -0.3681  0.0933
19031TIP3    H178508   4.259   1.445   0.562 -1.5448  0.2656 -3.6330
19031TIP3    H278509   4.356   1.330   0.546 -0.0146  0.5844  1.3610
19032TIP3   OH278510   2.123   6.701   0.549 -0.0503 -0.1737 -0.1572
19032TIP3    H178511   2.053   6.636   0.555  0.0839 -0.3842 -0.8308
19032TIP3    H278512   2.181   6.681   0.622  0.2440 -1.1059 -0.6374
19033TIP3   OH278513   4.303   3.218   0.240  0.2446 -0.7774  0.5241
19033TIP3    H178514   4.219   3.187   0.207  0.4165 -1.5954  0.8189
19033TIP3    H278515   4.367   3.154   0.207  0.7662 -0.1044  0.2087
19034TIP3   OH278516   2.744   2.801  13.115 -0.0899  0.0048  0.8343
19034TIP3    H178517   2.723   2.862  13.044  0.3388  0.3858  1.0384
19034TIP3    H278518   2.836   2.818  13.135  0.4303 -1.5904  0.0033
19035TIP3   OH278519   0.603   1.456   5.900 -0.0718  0.4858 -0.2697
19035TIP3    H178520   0.536   1.391   5.918 -1.1791  1.1281 -1.9153
19035TIP3    H278521   0.572   1.504   5.824  1.1689  2.3194  0.2877
19036TIP3   OH278522   3.941   4.242   1.034 -0.4438 -0.0230  0.2297
19036TIP3    H178523   3.865   4.210   1.083 -0.9899  0.6930 -0.1279
19036TIP3    H278524   3.918   4.225   0.942 -0.3287  0.5128  0.0981
19037TIP3   OH278525   0.158   6.226   3.510  0.0772  0.7108 -0.1972
19037TIP3    H178526   0.244   6.197   3.478  0.9601  0.7821  1.9301
19037TIP3    H278527   0.110   6.144   3.525  0.6944  0.5267  0.9113
19038TIP3   OH278528   6.322   0.596   3.950  0.3986  1.1518  0.2584
19038TIP3    H178529   6.255   0.544   3.905  1.8011 -1.0454  0.5238
19038TIP3    H278530   6.371   0.638   3.879  0.2710  0.7432 -0.0776
19039TIP3   OH278531   5.821   5.718   5.050 -0.6190  0.4607  0.2396
19039TIP3    H178532   5.740   5.758   5.018 -0.6075  0.2280 -0.0857
19039TIP3    H278533   5.817   5.627   5.019 -0.5193  0.2794  0.7432
19040TIP3   OH278534   1.267   0.528  16.076  0.0580 -0.7573 -0.2357
19040TIP3    H178535   1.255   0.449  16.130  1.9770 -0.0681  1.3187
19040TIP3    H278536   1.268   0.496  15.986  0.8735 -2.5273  0.3670
19041TIP3   OH278537   5.705   1.560   1.819  0.6734 -0.0451  0.3701
19041TIP3    H178538   5.683   1.542   1.728  0.7911 -0.5844  0.4427
19041TIP3    H278539   5.700   1.475   1.862  0.6095  0.2079  0.8713
19042TIP3   OH278540   5.835   0.335  16.831  0.5517 -0.4768  0.0350
19042TIP3    H178541   5.890   0.372  16.900  0.9710 -0.5275 -0.2667
19042TIP3    H278542   5.831   0.241  16.851 -1.2567 -0.1709  1.3200
19043TIP3   OH278543   4.223   5.216   5.418  0.6437 -0.5234  0.4816
19043TIP3    H178544   4.293   5.190   5.478  0.6414  1.0952  1.2156
19043TIP3    H278545   4.170   5.277   5.468 -0.1475 -0.1988 -0.7318
19044TIP3   OH278546   5.373   6.650   3.400  0.0066  0.7270  0.1105
19044TIP3    H178547   5.457   6.639   3.444 -0.4490 -0.6939  0.6694
19044TIP3    H278548   5.308   6.632   3.468 -0.7372  0.4243 -0.6640
19045TIP3   OH278549   0.948   6.655   0.090  0.0887  0.0202 -0.1698
19045TIP3    H178550   0.925   6.581   0.033  0.0129 -0.6398  0.7021
19045TIP3    H278551   0.964   6.727   0.029  2.4919 -1.2900 -1.2499
19046TIP3   OH278552   3.274   3.089  12.444 -0.2744  0.4691  0.4833
19046TIP3    H178553   3.226   3.171  12.432  0.9236  0.9511 -1.4510
19046TIP3    H278554   3.264   3.043  12.360  1.1824 -0.1900  0.6426
19047TIP3   OH278555   1.698   6.796  15.563 -0.2874  0.1112  0.0283
19047TIP3    H178556   1.760   6.725  15.555 -0.2671  0.3150 -2.7116
19047TIP3    H278557   1.612   6.753  15.565 -0.2168 -0.0467 -0.2748
19048TIP3   OH278558   3.658   1.032  16.368  0.1576  0.1702  0.0450
19048TIP3    H178559   3.731   1.054  16.425  1.2979 -2.1664 -0.3811
19048TIP3    H278560   3.699   1.008  16.284 -1.2733  0.8211 -0.8838
19049TIP3   OH278561   5.880   2.483   3.864  0.6912 -0.0552  0.3659
19049TIP3    H178562   5.806   2.531   3.903  1.9022  1.9267  0.3769
19049TIP3    H278563   5.910   2.424   3.933  0.1707  0.3431  0.9442
19050TIP3   OH278564   0.161   3.102   2.709 -0.0492  0.2242  0.5394
19050TIP3    H178565   0.179   3.058   2.793 -0.3192  1.3610  1.2198
19050TIP3    H278566   0.068   3.087   2.694 -0.8508  2.8653  2.2309
19051TIP3   OH278567   4.753   3.286   4.060  0.1680 -0.0011 -0.1478
19051TIP3    H178568   4.721   3.198   4.081 -0.4198  0.6805  2.0068
19051TIP3    H278569   4.680   3.326   4.012 -0.7126  0.2111  1.3044
19052TIP3   OH278570   2.465   1.011   0.023  0.1902  0.2556 -0.1140
19052TIP3    H178571   2.502   0.968   0.100  1.5260  0.0397 -0.8503
19052TIP3    H278572   2.370   1.000   0.032  0.4012 -1.0039  0.7674
19053TIP3   OH278573   0.354   0.286  12.968  0.3016 -0.0045  0.0412
19053TIP3    H178574   0.292   0.302  13.040  0.3791 -0.9095  0.3164
19053TIP3    H278575   0.314   0.215  12.917  0.4603  0.3313 -0.5675
19054TIP3   OH278576   2.646   3.947  12.548 -0.7509 -0.3419  0.2293
19054TIP3    H178577   2.665   3.988  12.463  0.4898 -0.9122  0.2095
19054TIP3    H278578   2.714   3.980  12.606 -0.2549 -1.6673  0.4306
19055TIP3   OH278579   5.192   5.116  14.854 -0.4861 -0.5567  0.0539
19055TIP3    H178580   5.100   5.143  14.849 -0.7905 -1.2316  1.5181
19055TIP3    H278581   5.215   5.094  14.763 -1.6375 -0.0099 -0.3973
19056TIP3   OH278582   4.860   5.152  15.417  0.0195 -0.4384 -0.4782
19056TIP3    H178583   4.817   5.135  15.501  2.5396  3.1133  1.8375
19056TIP3    H278584   4.926   5.083  15.410 -0.1848 -0.7560  0.5244
19057TIP3   OH278585   5.429   5.839  12.674  0.6237 -0.7893 -0.2902
19057TIP3    H178586   5.427   5.924  12.718 -1.0221 -0.5768 -0.7320
19057TIP3    H278587   5.487   5.851  12.599  2.2608 -0.7363  0.9284
19058TIP3   OH278588   5.828   1.094   0.221 -0.7449 -0.5769 -0.6305
19058TIP3    H178589   5.854   1.021   0.165  1.9951  0.5685 -1.0507
19058TIP3    H278590   5.830   1.058   0.310  0.1273 -1.1427 -0.8657
19059TIP3   OH278591   1.162   0.621   5.468 -0.1649 -0.1325 -0.1008
19059TIP3    H178592   1.226   0.551   5.479  1.0531  1.0019  0.2319
19059TIP3    H278593   1.178   0.655   5.380 -0.2656  0.1945  0.0047
19060TIP3   OH278594   3.495   6.263   2.866  0.1522  0.0363  0.0132
19060TIP3    H178595   3.444   6.209   2.805 -0.3367  1.6265 -1.0623
19060TIP3    H278596   3.436   6.280   2.939 -0.4160  0.7652 -0.6026
19061TIP3   OH278597   1.343   4.311  15.814 -0.1768  0.2931 -0.4204
19061TIP3    H178598   1.251   4.291  15.829 -0.8576  1.9402 -1.9939
19061TIP3    H278599   1.387   4.227  15.818 -1.6452 -0.4498  0.9810
19062TIP3   OH278600   0.495   6.360  13.544  0.0836 -0.8055  0.0996
19062TIP3    H178601   0.579   6.407  13.539  1.7328 -3.3820  1.2281
19062TIP3    H278602   0.451   6.381  13.462  2.1467  0.0820 -0.8599
19063TIP3   OH278603   4.209   4.475  11.727  0.1435 -0.2430 -0.2093
19063TIP3    H178604   4.221   4.476  11.822 -1.0448  1.0959 -0.0323
19063TIP3    H278605   4.187   4.566  11.705  2.1201 -0.1185 -2.0239
19064TIP3   OH278606   2.510   1.661  11.056  0.3694 -0.5747 -0.4998
19064TIP3    H178607   2.580   1.726  11.059 -1.4269  1.8246 -3.9517
19064TIP3    H278608   2.469   1.666  11.143  1.1520  1.9162 -0.1956
19065TIP3   OH278609   2.585   5.317  12.613 -0.4055  0.5157 -0.0945
19065TIP3    H178610   2.503   5.366  12.618 -0.5346  0.4360 -1.0855
19065TIP3    H278611   2.566   5.235  12.659 -0.8963  0.4873 -0.3342
19066TIP3   OH278612   3.828   0.666   5.578  0.0856 -0.9474 -0.2759
19066TIP3    H178613   3.738   0.667   5.546  0.0373 -0.8499 -0.1390
19066TIP3    H278614   3.830   0.735   5.645  0.1525 -1.2256  0.0103
19067TIP3   OH278615   4.722   1.988   1.276  0.0836  0.6656  0.0165
19067TIP3    H178616   4.728   2.074   1.317  0.4155  0.9484 -0.6253
19067TIP3    H278617   4.650   1.996   1.213  1.0483  0.9175 -1.0858
19068TIP3   OH278618   1.931   0.895   1.528 -0.0962  0.0543 -0.6285
19068TIP3    H178619   2.010   0.842   1.529  0.4598  0.8405  1.0580
19068TIP3    H278620   1.861   0.835   1.551  0.3745 -0.1820  0.2398
19069TIP3   OH278621   2.676   0.949  15.492  0.3120  0.2774 -0.3029
19069TIP3    H178622   2.669   0.885  15.421 -0.4011  0.1472 -0.1230
19069TIP3    H278623   2.643   0.903  15.569  2.3864 -0.0598  0.4360
19070TIP3   OH278624   5.823   2.799   5.441 -0.1065 -0.4826 -0.0664
19070TIP3    H178625   5.790   2.749   5.367 -1.4188  0.3729 -0.0891
19070TIP3    H278626   5.756   2.866   5.457  0.7089  0.0846  1.1434
19071TIP3   OH278627   2.178   0.397  13.940  0.2710 -0.5108 -0.1603
19071TIP3    H178628   2.122   0.403  14.018  0.9433 -0.0226  0.2874
19071TIP3    H278629   2.267   0.411  13.973  0.7937 -2.2830 -0.6986
19072TIP3   OH278630   0.141   4.062  15.288 -0.1177 -0.2744  0.2724
19072TIP3    H178631   0.063   4.108  15.321 -1.0496 -0.9030 -0.9605
19072TIP3    H278632   0.204   4.132  15.269 -0.3308  0.2387  1.3508
19073TIP3   OH278633   4.532   1.812  16.009 -0.0927 -0.0946 -0.0831
19073TIP3    H178634   4.442   1.844  16.015 -0.3029 -0.7876  0.5942
19073TIP3    H278635   4.536   1.739  16.072  0.6615 -0.7140 -0.8260
19074TIP3   OH278636   4.335   2.264  13.894  0.2900 -0.5714  0.1964
19074TIP3    H178637   4.431   2.260  13.893  0.4477  1.6895 -0.9622
19074TIP3    H278638   4.313   2.281  13.986  0.8764 -2.1564  0.6708
19075TIP3   OH278639   5.558   1.441  14.691  0.3450  0.4644 -0.2278
19075TIP3    H178640   5.616   1.490  14.632 -0.5043  1.2601 -0.4269
19075TIP3    H278641   5.474   1.485  14.683 -0.4028 -0.9410 -0.2735
19076TIP3   OH278642   1.501   3.310  11.215 -0.4012 -0.2038 -0.0259
19076TIP3    H178643   1.453   3.390  11.233 -1.2191 -0.7368  0.2452
19076TIP3    H278644   1.505   3.265  11.299 -2.4984 -1.7808 -0.6881
19077TIP3   OH278645   4.263   5.518   4.659 -0.1286 -0.5825 -0.1055
19077TIP3    H178646   4.332   5.552   4.602 -1.3746  2.0350 -0.2082
19077TIP3    H278647   4.183   5.563   4.630 -1.1900 -0.7034  2.3544
19078TIP3   OH278648   2.961   0.500   5.391 -0.1982 -0.0513 -0.2107
19078TIP3    H178649   2.990   0.567   5.454  1.9009  0.4799 -1.6256
19078TIP3    H278650   2.994   0.532   5.307 -1.7710 -1.4093 -1.3841
19079TIP3   OH278651   5.485   1.937   3.573  0.1894 -0.1852  0.1943
19079TIP3    H178652   5.516   1.925   3.484  1.4296  0.2978  0.5301
19079TIP3    H278653   5.450   1.852   3.599 -1.5513  0.0424 -1.2230
19080TIP3   OH278654   3.931   0.787   3.153 -0.4940 -0.0466 -0.6610
19080TIP3    H178655   3.980   0.779   3.234 -1.0280 -1.6099 -0.4625
19080TIP3    H278656   3.888   0.702   3.142 -1.0585  0.3993 -2.1716
19081TIP3   OH278657   2.458   3.916   3.978 -0.5525  0.2576  0.0586
19081TIP3    H178658   2.476   3.856   4.051 -1.4642  0.6901  0.6680
19081TIP3    H278659   2.483   3.868   3.900 -0.0511 -0.4219  0.6263
19082TIP3   OH278660   6.482   1.215  15.769  0.4259  0.5413  0.1243
19082TIP3    H178661   6.440   1.204  15.854  1.4487  0.3444  0.6075
19082TIP3    H278662   6.454   1.138  15.719 -1.6015  1.5071 -0.3513
19083TIP3   OH278663   0.270   1.864  14.791 -0.1310 -0.1066  0.4547
19083TIP3    H178664   0.217   1.786  14.805 -0.2944  0.1817  1.5869
19083TIP3    H278665   0.326   1.842  14.717  0.1581 -1.4728  1.0416
19084TIP3   OH278666   4.064   0.189   1.764  0.1632 -0.5939 -0.3940
19084TIP3    H178667   4.011   0.111   1.783 -0.4595  0.3587  2.0916
19084TIP3    H278668   4.110   0.208   1.846  0.9534  1.1700 -1.1941
19085TIP3   OH278669   2.188   3.118  11.864 -0.5637 -0.0774 -0.4064
19085TIP3    H178670   2.270   3.105  11.816 -0.8900  0.1285 -1.0375
19085TIP3    H278671   2.162   3.208  11.844 -0.3368  0.2630  0.7527
19086TIP3   OH278672   0.390   5.845   4.720 -0.4499 -0.2878  0.3109
19086TIP3    H178673   0.417   5.890   4.640  0.8824  1.2132  1.5282
19086TIP3    H278674   0.297   5.826   4.708 -0.4699  0.6511 -1.2352
19087TIP3   OH278675   2.873   2.892   0.641 -0.0350 -0.6517  0.1859
19087TIP3    H178676   2.854   2.975   0.685  1.3293 -0.4556  0.4407
19087TIP3    H278677   2.822   2.895   0.560  0.3591  0.6372 -0.0261
19088TIP3   OH278678   2.824   2.370   1.520  0.1724 -0.0213 -0.3681
19088TIP3    H178679   2.915   2.397   1.536  0.0723  1.1016 -1.5270
19088TIP3    H278680   2.806   2.400   1.431 -1.6900  0.7621  0.2335
19089TIP3   OH278681   2.878   0.653  11.079  0.1364 -0.0289  0.3977
19089TIP3    H178682   2.825   0.611  11.011 -1.4778  0.0323  1.5265
19089TIP3    H278683   2.944   0.588  11.102 -2.5078 -2.3088  2.3478
19090TIP3   OH278684   2.323   5.236  14.779 -0.5313 -0.1572 -0.4164
19090TIP3    H178685   2.312   5.144  14.753  1.8431 -0.6524  0.0976
19090TIP3    H278686   2.240   5.278  14.755 -1.5234 -2.3302 -1.0436
19091TIP3   OH278687   2.497   6.342   5.633 -0.0712  0.2589  0.2779
19091TIP3    H178688   2.457   6.404   5.572  0.4358 -1.0775 -1.4817
19091TIP3    H278689   2.590   6.345   5.612  0.0414 -0.6134  0.6401
19092TIP3   OH278690   4.437   0.808   3.825 -0.0381 -0.0540 -0.5078
19092TIP3    H178691   4.356   0.783   3.867 -0.9849  0.6411 -1.8325
19092TIP3    H278692   4.456   0.737   3.763  0.2205 -0.0942 -0.3848
19093TIP3   OH278693   6.377   5.830  16.495  0.2084  0.2101  0.3697
19093TIP3    H178694   6.440   5.790  16.555  0.3769 -0.3131 -0.1381
19093TIP3    H278695   6.291   5.807  16.531  0.3082 -0.0933  0.4170
19094TIP3   OH278696   4.507   5.845   3.121 -0.8937 -0.2630  0.2914
19094TIP3    H178697   4.471   5.930   3.144 -0.3179 -0.6273  2.8100
19094TIP3    H278698   4.590   5.840   3.168  0.5570 -1.0580 -2.1794
19095TIP3   OH278699   4.208   4.707   0.956 -0.6985  0.3341  0.1697
19095TIP3    H178700   4.164   4.622   0.941 -1.5116  0.7427  0.1665
19095TIP3    H278701   4.297   4.683   0.982  0.2028 -0.4745 -3.2076
19096TIP3   OH278702   6.727   2.626  14.155  0.7370 -0.1291  0.2473
19096TIP3    H178703   6.678   2.588  14.082 -0.4458  1.2745  0.2725
19096TIP3    H278704   6.813   2.648  14.118  0.7596 -0.9980 -0.2500
19097TIP3   OH278705   4.964   1.423   1.993  0.1005 -0.3438  0.0310
19097TIP3    H178706   4.871   1.406   1.984 -0.1771  0.8070  0.5789
19097TIP3    H278707   5.005   1.374   1.921 -1.1976  1.4631 -2.0578
19098TIP3   OH278708   1.965   6.542  15.842  0.3439 -0.1526  0.4150
19098TIP3    H178709   1.948   6.635  15.824  1.4952  0.1772  0.9110
19098TIP3    H278710   1.894   6.515  15.900 -0.4084  0.2135 -0.3167
19099TIP3   OH278711   2.725   0.028   3.089 -0.2064  0.0829 -0.4748
19099TIP3    H178712   2.683  -0.011   3.013 -0.9419 -0.4244  0.1732
19099TIP3    H278713   2.691  -0.022   3.164  0.1601  0.8444  0.2218
19100TIP3   OH278714   0.500   2.104  16.408 -0.5063  0.7815  0.1523
19100TIP3    H178715   0.454   2.101  16.324  0.0921 -0.5694 -0.1486
19100TIP3    H278716   0.444   2.054  16.468  0.8488 -1.5233 -0.3963
19101TIP3   OH278717   1.462   1.531  16.551  0.2158  0.0906  0.0341
19101TIP3    H178718   1.384   1.578  16.521  1.0105  1.2228 -0.3117
19101TIP3    H278719   1.450   1.524  16.645  0.5544  1.9464  0.2534
19102TIP3   OH278720   2.396   4.626  15.130 -0.9000  0.1307  0.3502
19102TIP3    H178721   2.440   4.700  15.172 -1.6765  0.8727 -0.1138
19102TIP3    H278722   2.423   4.550  15.181  0.1702  0.6830  0.6421
19103TIP3   OH278723   6.233   4.709   6.462  0.4624  0.0041  0.3058
19103TIP3    H178724   6.212   4.699   6.554  0.2986 -2.2363  0.0830
19103TIP3    H278725   6.158   4.756   6.425  0.3684  0.5997  1.2355
19104TIP3   OH278726   3.336   5.930   2.952 -0.3379 -0.2174 -0.4055
19104TIP3    H178727   3.323   5.984   2.875  1.5220  0.4823 -0.2801
19104TIP3    H278728   3.273   5.964   3.016  0.0743  1.1170 -0.6742
19105TIP3   OH278729   0.900   4.564   4.911  0.3344  0.3659 -0.5901
19105TIP3    H178730   0.862   4.603   4.832  0.5010  0.7180 -0.4968
19105TIP3    H278731   0.913   4.637   4.971  0.5729  0.1570 -0.3832
19106TIP3   OH278732   4.682   5.625  15.285 -0.4072  0.0357  0.2131
19106TIP3    H178733   4.622   5.551  15.273  0.5851 -0.8229  0.3433
19106TIP3    H278734   4.760   5.586  15.324 -0.3061  1.3620  1.4064
19107TIP3   OH278735   0.955   2.218   0.508 -0.2211 -0.3992 -0.0662
19107TIP3    H178736   0.896   2.270   0.453 -0.1900 -0.9848 -0.6638
19107TIP3    H278737   0.905   2.203   0.589 -1.1149 -1.3436 -0.7724
19108TIP3   OH278738   3.355   4.869  14.079 -0.1386 -0.2126  0.4911
19108TIP3    H178739   3.348   4.936  14.147  1.1483  0.6688 -0.2090
19108TIP3    H278740   3.275   4.816  14.089 -0.2606  0.2557  2.2815
19109TIP3   OH278741   5.341   3.872   4.217  0.3283 -0.2328  0.4629
19109TIP3    H178742   5.245   3.878   4.220  0.4269  3.2408  0.8996
19109TIP3    H278743   5.362   3.798   4.272 -2.1220 -1.8458 -0.5849
19110TIP3   OH278744   3.679   0.168   1.711 -0.3737 -0.2186  0.1852
19110TIP3    H178745   3.613   0.222   1.668  0.5674  0.9410  0.1499
19110TIP3    H278746   3.700   0.214   1.792  1.4498  0.2538 -0.4993
19111TIP3   OH278747   6.636   6.288   4.612  0.7909 -0.1219  0.4415
19111TIP3    H178748   6.650   6.305   4.519 -0.5573  0.9715  0.4104
19111TIP3    H278749   6.553   6.240   4.615 -0.4134  1.8894  1.1945
19112TIP3   OH278750   0.517   2.462  14.282  0.0765  0.3459 -0.5832
19112TIP3    H178751   0.456   2.445  14.353  1.9211  1.3222  1.3487
19112TIP3    H278752   0.462   2.467  14.204 -1.8207 -2.8538  0.3543
19113TIP3   OH278753   0.447   6.344   4.658  0.0170 -0.2518 -0.1545
19113TIP3    H178754   0.372   6.288   4.637 -0.9887  0.9626  0.0924
19113TIP3    H278755   0.483   6.306   4.738 -0.2405 -0.9259 -0.3481
19114TIP3   OH278756   5.066   4.351   3.038 -0.8280  0.1602  0.0797
19114TIP3    H178757   5.041   4.384   3.124 -1.2683 -0.0823  0.0451
19114TIP3    H278758   5.045   4.258   3.040  0.8272 -0.2433  0.3315
19115TIP3   OH278759   1.672   0.840   4.187  0.1935 -0.5154 -0.1584
19115TIP3    H178760   1.697   0.929   4.212  1.1186 -0.7586 -0.1840
19115TIP3    H278761   1.679   0.790   4.269 -1.3799 -0.3702  0.1083
19116TIP3   OH278762   3.431   5.887   2.487 -0.0476  0.5908 -0.4046
19116TIP3    H178763   3.390   5.960   2.441 -0.4408  0.2494 -0.6029
19116TIP3    H278764   3.357   5.831   2.514  0.3132 -0.3089 -1.2262
19117TIP3   OH278765   3.328   2.453   2.875 -0.2793 -0.2680  0.2148
19117TIP3    H178766   3.257   2.416   2.927 -0.3636 -0.1510  0.1811
19117TIP3    H278767   3.406   2.440   2.929 -0.3118 -0.4744  0.2143
19118TIP3   OH278768   5.700   6.474   4.752  0.2754 -0.2395  0.8529
19118TIP3    H178769   5.751   6.492   4.673 -2.8672 -0.3794 -1.3601
19118TIP3    H278770   5.673   6.560   4.784 -0.5499 -0.2828  0.2823
19119TIP3   OH278771   6.155   3.739   1.660  0.2481  0.6201  0.1629
19119TIP3    H178772   6.125   3.648   1.663  0.8750  0.4251  0.6799
19119TIP3    H278773   6.239   3.736   1.615  0.9295  0.7466  1.3899
19120TIP3   OH278774   2.785   2.614  15.571 -1.0233 -0.2746 -0.1422
19120TIP3    H178775   2.834   2.690  15.538 -0.1574 -0.4395  0.7290
19120TIP3    H278776   2.816   2.541  15.519  0.4814 -0.5680  1.0745
19121TIP3   OH278777   3.532   1.750   2.471  0.4202 -0.6780 -0.1529
19121TIP3    H178778   3.479   1.811   2.523  0.7625 -1.1575  0.7800
19121TIP3    H278779   3.468   1.700   2.420  0.0708 -0.3065 -0.0854
19122TIP3   OH278780   3.448   1.902  14.120 -0.5470 -0.0912 -0.1660
19122TIP3    H178781   3.423   1.923  14.210  0.3903 -0.8342  0.2823
19122TIP3    H278782   3.394   1.826  14.097  1.1205 -1.6382  0.7696
19123TIP3   OH278783   0.199   2.247  14.833 -0.2372 -0.2363 -0.1901
19123TIP3    H178784   0.147   2.185  14.782  0.8730 -1.0216 -0.4008
19123TIP3    H278785   0.280   2.201  14.852  0.5928  1.1281 -0.2799
19124TIP3   OH278786   6.094   4.123  13.794  0.0587 -0.2863  0.3941
19124TIP3    H178787   6.127   4.149  13.708  1.5133 -2.3694  0.2431
19124TIP3    H278788   6.021   4.182  13.811  0.1592  0.6089 -1.9656
19125TIP3   OH278789   3.681   1.821  11.382 -0.0075  0.5687 -0.6842
19125TIP3    H178790   3.618   1.884  11.416 -0.6115 -0.5966  0.4442
19125TIP3    H278791   3.710   1.771  11.458  0.1303 -0.7879 -1.5776
19126TIP3   OH278792   1.428   6.660  13.043  0.0539  0.4389 -0.5168
19126TIP3    H178793   1.439   6.744  12.998 -0.7149  0.7526 -0.1372
19126TIP3    H278794   1.356   6.617  12.998 -0.1763  0.3955 -0.1112
19127TIP3   OH278795   3.223   0.660   1.565  0.1247 -0.4896 -0.0856
19127TIP3    H178796   3.218   0.670   1.470 -0.2685  1.3757  0.0854
19127TIP3    H278797   3.276   0.735   1.594 -0.0924 -0.8079  1.1955
19128TIP3   OH278798   1.468   1.151  16.355  0.2450  0.1569  0.2710
19128TIP3    H178799   1.398   1.134  16.418  0.1853 -1.9878 -0.3071
19128TIP3    H278800   1.461   1.080  16.292 -1.2441  3.3975 -3.6228
19129TIP3   OH278801   3.080   6.392  16.718  0.2790  0.7345 -0.1127
19129TIP3    H178802   3.092   6.325  16.785  2.1779 -1.2223 -2.2544
19129TIP3    H278803   3.135   6.465  16.748  1.4636 -0.2790  0.3133
19130TIP3   OH278804   2.703   1.489   0.980 -0.0766 -0.1963  0.5410
19130TIP3    H178805   2.691   1.421   0.914  0.2673  0.5326 -0.2976
19130TIP3    H278806   2.707   1.570   0.930 -0.5981  0.4619  1.5317
19131TIP3   OH278807   2.188   1.372   2.138 -0.6574  0.1836 -0.3899
19131TIP3    H178808   2.189   1.286   2.179  2.1792 -0.6639 -1.9414
19131TIP3    H278809   2.280   1.389   2.116 -0.8691  4.2663  1.0627
19132TIP3   OH278810   3.934   2.704   0.362  0.1338  0.3162 -0.9608
19132TIP3    H178811   3.886   2.629   0.397 -1.2917  1.6027 -0.0206
19132TIP3    H278812   4.002   2.721   0.426  1.0950 -0.7427 -1.6677
19133TIP3   OH278813   2.076   1.377  13.894  0.5825  0.0383 -0.2675
19133TIP3    H178814   1.986   1.375  13.928  0.9198 -0.9183  0.6484
19133TIP3    H278815   2.130   1.378  13.973  1.3841  0.9305 -0.8139
19134TIP3   OH278816   5.400   3.737  16.439  0.1606  0.0124 -0.1963
19134TIP3    H178817   5.313   3.756  16.475 -0.0957  0.5920 -1.0916
19134TIP3    H278818   5.450   3.706  16.514 -0.5057  0.7091  0.5657
19135TIP3   OH278819   0.262   1.875   2.368  0.3200 -0.5081 -0.0250
19135TIP3    H178820   0.217   1.910   2.291 -0.3338  1.3289  1.1261
19135TIP3    H278821   0.263   1.781   2.354  0.5445 -0.2217 -2.4418
19136TIP3   OH278822   5.202   2.946   1.619  1.0273  0.5238  0.2265
19136TIP3    H178823   5.147   2.967   1.695  1.2723  0.6751  0.3663
19136TIP3    H278824   5.140   2.930   1.548  0.7978  0.4947  0.4310
19137TIP3   OH278825   6.717   5.837  14.305  0.6275  0.2600 -0.2860
19137TIP3    H178826   6.628   5.821  14.274  0.3323 -0.5470  0.9189
19137TIP3    H278827   6.710   5.919  14.353  0.5006  0.1459 -0.1058
19138TIP3   OH278828   6.373   1.209  14.620  0.4612 -0.1261  0.2730
19138TIP3    H178829   6.278   1.206  14.626  0.4263 -0.2272 -0.2827
19138TIP3    H278830   6.391   1.235  14.529  0.9603  0.0544  0.4185
19139TIP3   OH278831   3.702   0.732  13.217 -0.0417  0.5310 -0.8618
19139TIP3    H178832   3.701   0.820  13.253 -0.5705  0.8233 -1.5803
19139TIP3    H278833   3.774   0.688  13.264 -0.3045  1.0841  0.0874
19140TIP3   OH278834   0.753   0.642   4.503 -0.5185  0.5425 -0.1354
19140TIP3    H178835   0.834   0.630   4.553 -0.5578 -1.6480 -0.4885
19140TIP3    H278836   0.687   0.659   4.570 -0.0909  0.4041  0.3340
19141TIP3   OH278837   3.269   1.934  12.117  0.0133  0.0041  0.4293
19141TIP3    H178838   3.282   1.885  12.199  0.2579 -1.0615 -0.2326
19141TIP3    H278839   3.177   1.918  12.094  0.1492 -0.3234  0.1039
19142TIP3   OH278840   1.634   4.952   6.265 -0.0233 -0.0593 -0.1590
19142TIP3    H178841   1.727   4.942   6.246  0.2888  0.4836  1.0308
19142TIP3    H278842   1.608   4.867   6.300 -0.1779 -0.4705 -1.2318
19143TIP3   OH278843   5.762   0.181   0.181  0.0301  0.4472  0.8898
19143TIP3    H178844   5.710   0.159   0.259  0.5437  0.0318  1.1208
19143TIP3    H278845   5.786   0.096   0.143 -2.5996  0.5787 -1.3855
19144TIP3   OH278846   4.425   5.653   1.238 -0.0795 -0.2932 -0.1994
19144TIP3    H178847   4.489   5.582   1.235  1.2504  0.8689 -0.7548
19144TIP3    H278848   4.478   5.733   1.236 -1.5083  0.7270  0.7472
19145TIP3   OH278849   4.110   3.951   0.967  0.2364  0.2643 -0.2162
19145TIP3    H178850   4.016   3.935   0.978  0.2620 -0.8006 -1.3902
19145TIP3    H278851   4.147   3.929   1.053 -0.3919 -0.9927 -0.2365
19146TIP3   OH278852   6.797   4.716  10.877  0.0662  0.1735  0.4988
19146TIP3    H178853   6.799   4.806  10.847 -0.6222  0.0752  0.1381
19146TIP3    H278854   6.712   4.682  10.848  2.0057 -2.0031 -3.4579
19147TIP3   OH278855   0.778   0.923  15.580 -0.0965  0.2745  0.3462
19147TIP3    H178856   0.727   0.972  15.645 -0.3389  0.7299 -0.1827
19147TIP3    H278857   0.742   0.950  15.496  1.2568  0.8840 -0.0655
19148TIP3   OH278858   2.989   3.230   1.283 -0.5631  0.1312  0.0421
19148TIP3    H178859   3.051   3.300   1.264  0.0716 -0.7532 -1.3220
19148TIP3    H278860   3.042   3.150   1.281 -1.4572 -0.4917  0.4613
19149TIP3   OH278861   2.933   2.676   2.456 -0.6511 -1.2441  0.4737
19149TIP3    H178862   2.967   2.741   2.517 -1.1297 -0.7587  0.2285
19149TIP3    H278863   3.009   2.648   2.405 -0.8448  0.9951 -1.1741
19150TIP3   OH278864   3.168   0.981  14.635 -0.0697 -0.2747  0.4171
19150TIP3    H178865   3.155   0.927  14.714  0.8429  0.1562  0.8776
19150TIP3    H278866   3.118   1.060  14.653 -1.0526 -0.7751 -0.0714
19151TIP3   OH278867   3.390   5.158   5.085 -0.1248 -0.3256  0.1124
19151TIP3    H178868   3.379   5.142   4.991 -3.5278 -0.5563  0.4319
19151TIP3    H278869   3.391   5.254   5.092 -0.9144 -0.2955 -0.0919
19152TIP3   OH278870   1.800   4.660  11.759 -0.0948 -0.4423 -0.2182
19152TIP3    H178871   1.797   4.588  11.695  0.6163 -1.6929  1.0972
19152TIP3    H278872   1.882   4.705  11.740 -1.4089  1.2642 -2.2709
19153TIP3   OH278873   3.565   1.982   4.933 -0.2183  0.6981  0.0316
19153TIP3    H178874   3.566   2.077   4.930 -0.7273  0.6892 -1.2246
19153TIP3    H278875   3.587   1.955   4.844  0.0863 -0.3608  0.4102
19154TIP3   OH278876   1.503   3.102   0.556  0.0911 -0.2251  0.8499
19154TIP3    H178877   1.408   3.115   0.554 -0.0233 -0.7034  2.1390
19154TIP3    H278878   1.539   3.180   0.515 -0.7862  1.3507  2.8743
19155TIP3   OH278879   2.074   5.043  16.835  0.2074 -0.5095  0.2879
19155TIP3    H178880   2.072   5.019  16.928 -1.8267 -0.5732  0.2792
19155TIP3    H278881   2.160   5.083  16.823  1.1050 -1.8269  1.8427
19156TIP3   OH278882   4.924   3.397   3.456 -0.3345  0.0560 -0.1611
19156TIP3    H178883   4.968   3.346   3.524 -1.2601  0.1156  0.4970
19156TIP3    H278884   4.952   3.487   3.472 -1.6036  0.2755  1.0223
19157TIP3   OH278885   1.024   6.192   3.558  0.2257  0.2084 -0.1234
19157TIP3    H178886   1.050   6.109   3.598 -1.9582 -0.7673 -0.5938
19157TIP3    H278887   0.993   6.246   3.631 -0.4740 -0.2534 -0.0755
19158TIP3   OH278888   5.844   4.247   1.786  0.1214  0.0081 -0.3855
19158TIP3    H178889   5.845   4.314   1.719  2.3907  2.3100  1.7196
19158TIP3    H278890   5.906   4.181   1.756  0.2384  0.4271 -1.0610
19159TIP3   OH278891   5.580   3.321  14.924  0.2097 -1.0364  0.3171
19159TIP3    H178892   5.555   3.362  14.841 -0.5277 -1.0101  0.5372
19159TIP3    H278893   5.674   3.332  14.930  0.0843  0.2568  0.1579
19160TIP3   OH278894   5.599   3.750   0.204  0.2135 -0.1339 -0.4538
19160TIP3    H178895   5.590   3.670   0.256 -1.6898  0.0180 -0.5102
19160TIP3    H278896   5.512   3.767   0.169  1.0433  0.7577 -2.2759
19161TIP3   OH278897   6.365   3.466   1.540 -0.1597 -0.0028  0.0774
19161TIP3    H178898   6.452   3.505   1.548 -0.5603  0.4943  3.8678
19161TIP3    H278899   6.365   3.393   1.602 -0.5745 -4.2895 -4.2968
19162TIP3   OH278900   4.997   1.087   5.416 -0.2381  0.0084  0.0269
19162TIP3    H178901   4.933   1.102   5.485 -0.8833  1.5459 -0.8742
19162TIP3    H278902   4.979   0.998   5.386 -2.2053  0.5227 -0.4347
19163TIP3   OH278903   1.486   1.909   2.568 -0.0047  0.1611  0.7042
19163TIP3    H178904   1.408   1.871   2.608 -0.8872  1.2982  0.1276
19163TIP3    H278905   1.462   1.922   2.476  0.7336  0.8389  0.5932
19164TIP3   OH278906   6.385   3.531  14.214 -0.1810  0.1212  0.0962
19164TIP3    H178907   6.389   3.436  14.218  0.9416  0.0638 -1.3655
19164TIP3    H278908   6.293   3.551  14.199 -0.4491 -0.7263  0.6097
19165TIP3   OH278909   4.644   0.529  14.194  0.1004  0.2532  0.4249
19165TIP3    H178910   4.640   0.434  14.187  1.6939  0.2267 -0.9688
19165TIP3    H278911   4.571   0.553  14.250 -0.4064 -1.7798  0.6957
19166TIP3   OH278912   0.119   1.706  13.938 -0.5332 -0.0021  0.9338
19166TIP3    H178913   0.054   1.742  13.877 -0.4466  2.2111  2.0611
19166TIP3    H278914   0.198   1.697  13.886 -1.6052 -2.5559 -0.4141
19167TIP3   OH278915   5.432   3.944  13.440 -0.3054  0.1941  0.3849
19167TIP3    H178916   5.448   4.038  13.450  1.9000 -0.0822 -0.0326
19167TIP3    H278917   5.339   3.938  13.417 -0.6561  2.2029  1.0622
19168TIP3   OH278918   5.187   5.843   5.485  0.5863 -0.0105  0.1822
19168TIP3    H178919   5.214   5.751   5.483 -0.6333 -0.3720 -0.6788
19168TIP3    H278920   5.240   5.884   5.417  0.3077 -0.3230 -0.2273
19169TIP3   OH278921   2.254   6.732   0.298 -0.3691 -0.1029  0.8030
19169TIP3    H178922   2.202   6.719   0.377 -1.0861 -1.3181  0.1762
19169TIP3    H278923   2.198   6.700   0.227 -0.3574  2.3733 -0.4130
19170TIP3   OH278924   4.380   2.799  12.859 -0.3094  0.3206  0.1344
19170TIP3    H178925   4.315   2.854  12.902 -1.7558 -1.2321  0.0249
19170TIP3    H278926   4.464   2.840  12.880 -1.3323  3.2615 -0.9615
19171TIP3   OH278927   1.421   3.036  12.400 -0.2638  0.3789  0.0540
19171TIP3    H178928   1.332   3.031  12.435  0.3158 -0.7682  1.4572
19171TIP3    H278929   1.467   3.095  12.459 -0.2702  1.6428 -1.1551
19172TIP3   OH278930   1.793   1.298   0.050 -0.0171  0.0015 -0.1222
19172TIP3    H178931   1.742   1.224   0.083  1.9969 -0.9790  0.9660
19172TIP3    H278932   1.799   1.283  -0.044  0.1782 -1.1381  0.0550
19173TIP3   OH278933   2.412   0.509  11.818 -0.0537 -0.0661  0.2118
19173TIP3    H178934   2.376   0.577  11.762  1.7588 -0.6872 -1.8771
19173TIP3    H278935   2.500   0.539  11.840  0.2343 -1.0474  0.4827
19174TIP3   OH278936   1.690   2.442  11.694 -0.7201 -0.6338 -0.2535
19174TIP3    H178937   1.598   2.469  11.693 -0.8152 -0.7736  1.6178
19174TIP3    H278938   1.738   2.520  11.724 -0.3895 -0.9539  0.0629
19175TIP3   OH278939   4.571   0.464  16.939 -0.1912 -0.4990 -0.1462
19175TIP3    H178940   4.501   0.502  16.993  0.6281 -0.1369  0.6794
19175TIP3    H278941   4.651   0.508  16.968  0.6483 -2.1299  0.1363
19176TIP3   OH278942   3.060   3.759  14.368  0.2914 -0.0054 -0.0158
19176TIP3    H178943   3.001   3.690  14.337 -0.3687  1.3203 -1.9180
19176TIP3    H278944   3.001   3.830  14.395  0.9695  0.0636  1.3471
19177TIP3   OH278945   2.952   2.273   5.420 -0.3912  0.5024 -0.1072
19177TIP3    H178946   2.885   2.210   5.394  0.6982 -0.7437  0.0278
19177TIP3    H278947   3.016   2.271   5.349 -1.0219  2.5495 -0.8126
19178TIP3   OH278948   3.621   6.234  11.533 -0.1787  0.2504 -0.1800
19178TIP3    H178949   3.606   6.203  11.622 -3.1682 -0.5975 -0.8800
19178TIP3    H278950   3.541   6.282  11.510  0.0277 -0.5040 -2.7609
19179TIP3   OH278951   2.411   3.539  14.610  0.0995 -0.1510 -0.2124
19179TIP3    H178952   2.388   3.630  14.631  1.5957  0.2321 -0.1235
19179TIP3    H278953   2.455   3.545  14.525  1.9762 -0.5170  0.7068
19180TIP3   OH278954   4.478   4.626   2.752  0.4451  0.4578  0.4078
19180TIP3    H178955   4.463   4.647   2.844  1.0262  2.2885  0.1315
19180TIP3    H278956   4.400   4.576   2.726  0.0901  0.2609  1.7719
19181TIP3   OH278957   6.344   5.637  16.718  0.2073  0.1756  0.6759
19181TIP3    H178958   6.328   5.622  16.625  0.8960  4.5110 -0.3732
19181TIP3    H278959   6.434   5.606  16.733  0.3126  0.0101 -0.2750
19182TIP3   OH278960   4.287   3.260   1.860  0.1981 -0.8871 -0.3454
19182TIP3    H178961   4.331   3.211   1.791  0.8188 -0.2417 -0.4186
19182TIP3    H278962   4.356   3.312   1.901 -0.5888  0.6100 -0.8567
19183TIP3   OH278963   5.024   6.529   4.961  0.6730  0.2185 -0.0248
19183TIP3    H178964   5.000   6.504   4.872  0.8897  0.0845 -0.0465
19183TIP3    H278965   5.069   6.452   4.996 -0.3765 -0.1383  0.5728
19184TIP3   OH278966   3.039   2.995   0.263  0.0917  0.1468 -0.2145
19184TIP3    H178967   3.108   2.944   0.307  0.6436  1.9029  1.0847
19184TIP3    H278968   3.020   2.946   0.183  3.5745  0.0830 -1.1617
19185TIP3   OH278969   5.438   6.365   5.236 -0.3872  0.3856 -0.5658
19185TIP3    H178970   5.404   6.317   5.312 -2.7048 -2.2798 -3.0129
19185TIP3    H278971   5.526   6.329   5.222  0.4666  1.6043  1.2873
19186TIP3   OH278972   0.462   6.099  16.757  0.9451 -0.2705 -0.0333
19186TIP3    H178973   0.541   6.109  16.809  1.9891  1.1510 -1.7608
19186TIP3    H278974   0.414   6.181  16.770  0.5684 -0.4482 -0.2770
19187TIP3   OH278975   4.729   0.041   5.602  0.2453  0.6179 -0.2235
19187TIP3    H178976   4.810   0.079   5.636  0.2168  1.0563 -0.6345
19187TIP3    H278977   4.694   0.107   5.542  0.1304 -0.0020 -0.8600
19188TIP3   OH278978   0.642   3.573   5.408  0.2156 -0.4843 -0.1286
19188TIP3    H178979   0.593   3.519   5.470  0.9853 -0.9020  0.1406
19188TIP3    H278980   0.733   3.545   5.420  0.4848  0.0841 -0.7959
19189TIP3   OH278981   0.769   5.649   1.985 -0.6345  0.2489  0.2679
19189TIP3    H178982   0.797   5.734   2.020  0.8775  0.0281 -0.3483
19189TIP3    H278983   0.845   5.593   1.995 -1.8772 -1.3241  1.4598
19190TIP3   OH278984   1.466   0.226  16.573 -0.3745 -0.5088 -0.0292
19190TIP3    H178985   1.505   0.152  16.527  0.5497 -1.2053  1.7760
19190TIP3    H278986   1.405   0.186  16.635  0.2570  0.2070  1.0754
19191TIP3   OH278987   4.897   5.148  14.635  0.4951 -0.0230 -0.0056
19191TIP3    H178988   4.855   5.218  14.585 -0.9090 -1.0215 -0.2680
19191TIP3    H278989   4.852   5.149  14.720 -0.3824 -1.3549 -0.4274
19192TIP3   OH278990   1.388   0.106   2.228  0.0917 -0.3533 -0.3915
19192TIP3    H178991   1.392   0.015   2.197  0.9729 -0.1530 -0.8964
19192TIP3    H278992   1.301   0.114   2.268 -1.3161 -0.5021 -3.1978
19193TIP3   OH278993   0.393   2.082  16.168  0.9684 -0.3773  0.0886
19193TIP3    H178994   0.435   2.002  16.134  0.5194 -0.6659  0.2143
19193TIP3    H278995   0.308   2.084  16.126  0.3391 -0.8211  1.3025
19194TIP3   OH278996   5.224   3.723  12.243 -0.2244 -0.6709  0.3378
19194TIP3    H178997   5.310   3.711  12.204 -0.2498 -2.9441  0.8312
19194TIP3    H278998   5.166   3.741  12.169  0.4445 -0.5831 -0.1715
19195TIP3   OH278999   2.323   3.015   2.241 -0.4326  0.3582  0.0382
19195TIP3    H179000   2.244   3.056   2.276 -1.1914 -0.2158 -0.9852
19195TIP3    H279001   2.388   3.028   2.310 -1.3950  0.8749  0.8783
19196TIP3   OH279002   0.725   5.120  15.254 -0.2693  0.1387  0.0779
19196TIP3    H179003   0.802   5.145  15.305 -0.5263  0.9943  0.0617
19196TIP3    H279004   0.748   5.036  15.215  0.5416  0.2444  0.3174
19197TIP3   OH279005   1.459   4.361   4.557 -0.1582 -0.1504  0.1545
19197TIP3    H179006   1.367   4.344   4.581 -0.1787 -0.4047 -0.0863
19197TIP3    H279007   1.464   4.456   4.549 -0.1526 -0.0566  1.1291
19198TIP3   OH279008   2.621   6.440   3.144 -0.2603 -0.2018 -0.3440
19198TIP3    H179009   2.578   6.490   3.214  0.9358  0.7381 -0.2517
19198TIP3    H279010   2.593   6.350   3.159 -0.1063 -0.0067  1.3021
19199TIP3   OH279011   4.618   3.219  16.467  0.0564 -0.5039  0.0071
19199TIP3    H179012   4.681   3.286  16.441  0.7687 -0.7584  1.0129
19199TIP3    H279013   4.535   3.249  16.432 -0.0412  1.9355  2.0794
19200TIP3   OH279014   3.694   1.704   4.428  0.3413 -0.0160  0.0796
19200TIP3    H179015   3.642   1.732   4.352 -1.8225  0.8598  1.7931
19200TIP3    H279016   3.745   1.782   4.451 -0.5868  0.4008  0.7666
19201TIP3   OH279017   4.451   1.666  16.215 -0.0691 -0.1155 -0.4415
19201TIP3    H179018   4.522   1.679  16.278 -1.9086 -0.1124  1.7540
19201TIP3    H279019   4.449   1.571  16.201  0.6882 -0.0665 -0.9637
19202TIP3   OH279020   3.499   4.223  13.526 -0.0784 -0.0539  0.5400
19202TIP3    H179021   3.484   4.209  13.433  1.0206  2.0289 -0.0068
19202TIP3    H279022   3.528   4.138  13.559 -0.7566 -0.8892 -0.9237
19203TIP3   OH279023   6.206   5.924   5.281 -0.0480 -0.2256 -0.4521
19203TIP3    H179024   6.111   5.914   5.284  0.0424 -1.1786 -0.2723
19203TIP3    H279025   6.224   6.001   5.335 -0.6950 -0.2086 -0.2507
19204TIP3   OH279026   2.089   4.255  12.342 -0.2293 -0.4833  0.8191
19204TIP3    H179027   2.145   4.295  12.274  0.6777 -1.7848  0.7769
19204TIP3    H279028   2.054   4.176  12.301 -1.7854  0.0566  1.0079
19205TIP3   OH279029   6.480   3.994   0.837 -0.2013 -0.0827  0.8011
19205TIP3    H179030   6.391   4.010   0.870 -0.0120 -1.3255  2.0321
19205TIP3    H279031   6.533   4.062   0.879 -0.7031  1.4099 -0.8581
19206TIP3   OH279032   6.262   3.166  16.581  0.1855 -0.1966  0.1121
19206TIP3    H179033   6.171   3.173  16.612  0.1201 -0.7166  0.0465
19206TIP3    H279034   6.253   3.143  16.488  0.3850  0.2924 -0.0303
19207TIP3   OH279035   0.703   4.769  15.545 -0.1075  0.6487 -0.0971
19207TIP3    H179036   0.685   4.675  15.539 -0.3543  0.7684 -1.6229
19207TIP3    H279037   0.616   4.809  15.551 -0.0829  0.8606 -1.0520
19208TIP3   OH279038   1.027   1.632   0.979  0.2485  0.1802  0.1769
19208TIP3    H179039   1.012   1.538   0.995 -2.0440  0.8232  2.6476
19208TIP3    H279040   1.051   1.667   1.065 -0.7460  2.1217 -0.2828
19209TIP3   OH279041   0.290   3.126   1.126  0.0133  0.0778 -0.0982
19209TIP3    H179042   0.279   3.132   1.031 -2.7031 -0.0882  0.1314
19209TIP3    H279043   0.238   3.199   1.161  2.2676  1.1325  1.2713
19210TIP3   OH279044   2.518   3.297  17.141  0.1242  0.4229 -0.3443
19210TIP3    H179045   2.563   3.355  17.202  1.1843  1.3645 -1.9285
19210TIP3    H279046   2.462   3.355  17.089 -0.7407 -0.3465 -0.2951
19211TIP3   OH279047   6.526   4.794   5.897  0.1790 -0.1449  0.4063
19211TIP3    H179048   6.511   4.758   5.810 -3.0239 -0.2939  0.8814
19211TIP3    H279049   6.534   4.889   5.884 -0.8526 -0.1080 -0.0417
19212TIP3   OH279050   3.337   3.922   3.784  0.6751 -0.0517 -0.2601
19212TIP3    H179051   3.264   3.980   3.764  2.4963  1.8087 -2.0721
19212TIP3    H279052   3.355   3.877   3.701  1.3658 -0.7084  0.2374
19213TIP3   OH279053   5.816   1.768  11.324 -0.0331  0.4655 -0.7197
19213TIP3    H179054   5.847   1.750  11.235  1.7088  0.9552 -0.2565
19213TIP3    H279055   5.790   1.682  11.358  0.3016  0.1064 -1.3421
19214TIP3   OH279056   1.676   5.456  14.353 -0.1344 -0.6075 -0.1499
19214TIP3    H179057   1.620   5.489  14.283 -0.1841 -1.6545 -0.6118
19214TIP3    H279058   1.764   5.485  14.329 -0.5879  2.5132  1.4304
19215TIP3   OH279059   6.160   6.645   1.117 -0.0055  0.7736 -0.3262
19215TIP3    H179060   6.107   6.582   1.068  0.6140  0.5688 -0.7295
19215TIP3    H279061   6.106   6.667   1.193  0.5507 -1.6970  0.8598
19216TIP3   OH279062   2.396   1.867  13.361 -0.3547 -0.8483  0.1241
19216TIP3    H179063   2.330   1.798  13.369 -1.7249  0.2741 -0.8237
19216TIP3    H279064   2.421   1.866  13.269 -0.6670  0.1264  0.0123
19217TIP3   OH279065   2.121   6.381  11.298 -0.1669 -0.2097 -0.3077
19217TIP3    H179066   2.050   6.317  11.294  0.2374 -0.6813 -0.0953
19217TIP3    H279067   2.120   6.412  11.388  0.3899 -0.7953 -0.0945
19218TIP3   OH279068   5.353   0.459  11.956 -0.5897  0.3223  0.3444
19218TIP3    H179069   5.351   0.554  11.968  0.9676  0.6972 -1.8072
19218TIP3    H279070   5.334   0.446  11.863 -1.2735 -1.5255  0.7021
19219TIP3   OH279071   1.989   5.180  15.601  0.1238 -0.1068  0.0553
19219TIP3    H179072   1.946   5.095  15.613 -2.6749  1.1838 -0.2368
19219TIP3    H279073   2.039   5.170  15.519  0.0721 -1.5355  0.1710
19220TIP3   OH279074   4.884   4.148   1.035  0.1400  0.0057  0.1251
19220TIP3    H179075   4.962   4.173   1.084  1.1201 -1.4547 -0.6149
19220TIP3    H279076   4.896   4.055   1.016 -0.4668  0.3488 -2.3437
19221TIP3   OH279077   2.262   5.334   0.100  0.5169 -0.0758 -0.3716
19221TIP3    H179078   2.295   5.246   0.118  0.4970  0.1964  1.1525
19221TIP3    H279079   2.189   5.320   0.039  0.5799 -1.1011 -0.2340
19222TIP3   OH279080   5.943   0.190   2.835 -0.0174 -0.1025 -0.3412
19222TIP3    H179081   6.014   0.252   2.817 -0.1106 -0.2213 -1.1651
19222TIP3    H279082   5.875   0.243   2.876 -0.4420  0.5501 -1.8214
19223TIP3   OH279083   2.346   0.974   0.667 -0.2105  0.1887  0.0296
19223TIP3    H179084   2.252   0.971   0.647  0.1554  0.3102 -1.9042
19223TIP3    H279085   2.356   1.052   0.723 -1.4844 -0.8830  1.8706
19224TIP3   OH279086   1.198   0.593   1.737 -0.4374 -0.2106  0.1786
19224TIP3    H179087   1.183   0.617   1.828 -0.5334 -2.1617  0.7132
19224TIP3    H279088   1.271   0.531   1.740 -0.6754 -0.5850 -1.0307
19225TIP3   OH279089   6.721   1.290  13.808  0.5567 -0.9710  1.1378
19225TIP3    H179090   6.655   1.263  13.745 -0.8894  1.3578  1.5277
19225TIP3    H279091   6.776   1.212  13.821 -1.5798 -2.7401  0.1631
19226TIP3   OH279092   1.552   3.180   1.654 -0.1230  0.4666  0.0794
19226TIP3    H179093   1.533   3.129   1.575 -0.0390  0.5649 -0.0037
19226TIP3    H279094   1.577   3.115   1.719 -1.4431  0.2475  0.4082
19227TIP3   OH279095   5.888   5.517   5.404 -0.2364  0.6216  0.2340
19227TIP3    H179096   5.885   5.491   5.312 -0.4590 -1.7727  0.8441
19227TIP3    H279097   5.827   5.590   5.410 -1.0069  0.1545 -1.3292
19228TIP3   OH279098   3.035   0.459   1.117 -0.3182  0.3444 -0.3871
19228TIP3    H179099   3.054   0.389   1.055 -0.2639  0.9577 -1.0782
19228TIP3    H279100   3.064   0.425   1.202 -0.2707 -0.4506 -0.7131
19229TIP3   OH279101   3.461   4.760   6.086  0.3243  0.0340  0.8443
19229TIP3    H179102   3.447   4.712   6.004  1.4872  2.2677 -0.7539
19229TIP3    H279103   3.381   4.811   6.098  0.4232  0.2148  0.7339
19230TIP3   OH279104   5.013   4.513  10.382 -0.1180  0.0270  0.3965
19230TIP3    H179105   4.999   4.487  10.473 -1.2373  0.3760  0.3284
19230TIP3    H279106   5.083   4.455  10.351 -0.0511 -0.4017  1.3342
19231TIP3   OH279107   1.146   4.303   0.874  1.0084  0.1459 -0.6486
19231TIP3    H179108   1.129   4.372   0.810 -2.6337 -0.4020 -0.4848
19231TIP3    H279109   1.098   4.330   0.952  3.5714 -0.2699  1.2079
19232TIP3   OH279110   2.985   4.304  10.602  0.6115  0.4105  0.3454
19232TIP3    H179111   3.029   4.370  10.549  1.4743 -0.6123 -0.2576
19232TIP3    H279112   3.007   4.221  10.560 -0.9589 -0.2334  0.7195
19233TIP3   OH279113   6.799   0.914   2.580  0.1636  0.3550 -0.1466
19233TIP3    H179114   6.819   0.867   2.661 -3.7300  0.9429  1.3738
19233TIP3    H279115   6.769   0.846   2.520  0.6341  0.2058 -0.2169
19234TIP3   OH279116   0.095   4.194   4.201 -0.9020  0.0048 -0.0539
19234TIP3    H179117   0.107   4.286   4.226  0.3145 -0.6013  1.7597
19234TIP3    H279118   0.143   4.145   4.267 -1.3034 -1.9462 -1.1523
19235TIP3   OH279119   5.650   3.276   1.466 -0.1824  0.1574 -0.0012
19235TIP3    H179120   5.623   3.261   1.556 -1.5567  1.1258 -0.2056
19235TIP3    H279121   5.584   3.337   1.431  0.1479 -0.4112 -1.7407
19236TIP3   OH279122   5.569   5.778   5.658 -0.1605 -0.3223  0.6837
19236TIP3    H179123   5.532   5.703   5.612  0.6988 -1.3204  1.5559
19236TIP3    H279124   5.527   5.776   5.744  0.7454 -0.5337  1.1321
19237TIP3   OH279125   1.658   0.942   0.906  0.3580 -0.0197  0.0345
19237TIP3    H179126   1.722   0.875   0.930  0.8020  0.6446  0.7933
19237TIP3    H279127   1.711   1.022   0.895 -0.1353  0.1813 -0.9981
19238TIP3   OH279128   0.268   6.005  13.430 -0.4895  0.3743  0.3363
19238TIP3    H179129   0.205   6.076  13.441 -0.4603  0.2946  1.0197
19238TIP3    H279130   0.318   6.003  13.511 -0.7341 -0.6732  0.4807
19239TIP3   OH279131   1.167   0.766   0.265 -0.0243  0.0302 -0.0845
19239TIP3    H179132   1.179   0.848   0.217  1.2718 -0.6596 -1.0106
19239TIP3    H279133   1.162   0.793   0.357  1.4258  1.0893 -0.2804
19240TIP3   OH279134   3.363   1.614  14.048 -0.0704  0.3996 -0.4765
19240TIP3    H179135   3.334   1.565  13.971 -2.1426 -1.2626  1.2165
19240TIP3    H279136   3.288   1.611  14.107  1.6851  0.9613  1.9166
19241TIP3   OH279137   5.874   3.500   2.050  0.2448 -0.1443 -0.5687
19241TIP3    H179138   5.909   3.588   2.053 -1.0107  0.3406  1.8637
19241TIP3    H279139   5.951   3.444   2.037  1.3892  1.1268  0.4908
19242TIP3   OH279140   3.267   5.188  12.678  0.1523  0.4003  0.2920
19242TIP3    H179141   3.272   5.185  12.774  1.1446  2.2973  0.3387
19242TIP3    H279142   3.355   5.211  12.650 -0.4316  1.1895 -0.9993
19243TIP3   OH279143   3.072   2.482   1.636  0.3617 -0.0481 -0.3053
19243TIP3    H179144   3.129   2.536   1.690  1.1667 -0.7701 -0.4025
19243TIP3    H279145   3.055   2.534   1.558 -0.1524  0.6766  0.2776
19244TIP3   OH279146   0.849   5.872   4.592  0.3725  0.8948 -0.4263
19244TIP3    H179147   0.837   5.829   4.508 -1.8087 -0.8419  0.6568
19244TIP3    H279148   0.918   5.821   4.636 -0.7684 -0.3052  0.0466
19245TIP3   OH279149   5.264   0.188   1.827 -0.9363 -0.2500 -0.3064
19245TIP3    H179150   5.217   0.105   1.836 -0.0400 -0.7637 -0.2074
19245TIP3    H279151   5.196   0.255   1.831 -1.5250 -0.8945  1.2490
19246TIP3   OH279152   3.793   3.166  15.396  0.7364  0.3591 -0.0519
19246TIP3    H179153   3.823   3.165  15.306 -1.1007 -0.4765 -0.7124
19246TIP3    H279154   3.697   3.166  15.390  0.4991 -1.9293  1.8369
19247TIP3   OH279155   0.451   1.849  11.469 -0.1584 -0.0261  0.0882
19247TIP3    H179156   0.367   1.804  11.471 -0.8498  1.1981 -0.1802
19247TIP3    H279157   0.467   1.874  11.560 -0.4495  0.3634  0.0365
19248TIP3   OH279158   2.117   1.793  10.588 -0.1629 -0.4319  0.2656
19248TIP3    H179159   2.100   1.887  10.583 -0.6729 -0.5526 -0.5652
19248TIP3    H279160   2.030   1.753  10.585  0.1016 -0.9642 -0.6470
19249TIP3   OH279161   3.129   5.183  15.606  0.2006  0.3022  0.1968
19249TIP3    H179162   3.167   5.187  15.518 -1.3072 -0.1255 -0.5263
19249TIP3    H279163   3.056   5.121  15.597 -0.2052  0.5247  1.6742
19250TIP3   OH279164   5.361   2.529   4.755 -0.5635 -0.1365  0.3418
19250TIP3    H179165   5.322   2.442   4.748 -1.5884  0.2080  1.4182
19250TIP3    H279166   5.337   2.559   4.842  1.1785  0.5705  0.6182
19251TIP3   OH279167   4.573   2.935   0.517  0.4104  0.0421 -0.2940
19251TIP3    H179168   4.664   2.961   0.530  0.3601 -0.4165  1.1047
19251TIP3    H279169   4.525   2.978   0.588 -0.3100 -0.4801 -0.4532
19252TIP3   OH279170   2.898   0.294  11.491  0.0612 -0.1172 -0.5697
19252TIP3    H179171   2.984   0.254  11.479 -0.0277 -0.4660 -0.0657
19252TIP3    H279172   2.871   0.319  11.403  0.2537 -0.8867 -0.8552
19253TIP3   OH279173   1.039   3.919  17.147  0.5102  0.1955 -0.1492
19253TIP3    H179174   1.090   3.839  17.162 -0.5681 -0.6265 -0.7686
19253TIP3    H279175   0.949   3.890  17.143  0.0821  1.4764 -0.3043
19254TIP3   OH279176   0.047   0.218  16.360  0.3426 -0.0974  0.0852
19254TIP3    H179177   0.036   0.134  16.404  0.3494  0.0384  0.3472
19254TIP3    H279178  -0.027   0.224  16.301 -0.7865  0.6267  1.5285
19255TIP3   OH279179   5.581   5.535  14.768 -0.2191 -0.0249  0.8201
19255TIP3    H179180   5.571   5.590  14.690 -1.1355  0.0587  0.9856
19255TIP3    H279181   5.508   5.473  14.763 -0.6823  0.4088  1.9528
19256TIP3   OH279182   1.122   6.448  11.819 -0.4056 -0.1864  0.3879
19256TIP3    H179183   1.175   6.395  11.759  0.7733 -0.5065  1.6549
19256TIP3    H279184   1.076   6.510  11.763  1.5521  0.2948 -0.7698
19257TIP3   OH279185   1.563   2.292   5.868  0.7706 -0.2363  0.5051
19257TIP3    H179186   1.530   2.261   5.784  1.8065  0.9337 -0.3759
19257TIP3    H279187   1.625   2.226   5.896 -0.4270 -1.2145  0.9607
19258TIP3   OH279188   6.440   1.937   0.161  0.3224 -0.2076 -0.4690
19258TIP3    H179189   6.398   1.912   0.243  0.0133  2.8548  0.4322
19258TIP3    H279190   6.500   1.865   0.141 -0.0771 -1.3415  2.0805
19259TIP3   OH279191   3.868   0.533   3.088  0.3239 -0.1975 -0.5496
19259TIP3    H179192   3.853   0.489   3.004  1.5150 -0.1719 -0.7947
19259TIP3    H279193   3.781   0.541   3.127 -0.3469  0.3418 -2.0567
19260TIP3   OH279194   1.483   0.487   0.188  0.6590 -0.7280 -0.7483
19260TIP3    H179195   1.521   0.399   0.190  0.3368 -0.8817 -1.3331
19260TIP3    H279196   1.415   0.485   0.255  0.7280 -0.8824 -0.6811
19261TIP3   OH279197   5.650   0.385   4.719  0.7138 -0.4061 -0.0613
19261TIP3    H179198   5.701   0.304   4.713  2.3261  0.6372 -0.9285
19261TIP3    H279199   5.638   0.399   4.813  0.0103 -1.8713  0.0934
19262TIP3   OH279200   0.151   2.097  12.469  0.0203  0.2234 -0.1547
19262TIP3    H179201   0.104   2.154  12.408 -0.6584  0.3894  0.5015
19262TIP3    H279202   0.236   2.083  12.428 -0.0065  1.2438 -0.5921
19263TIP3   OH279203   0.992   2.523  12.984 -0.5259 -0.6204  0.7447
19263TIP3    H179204   1.074   2.516  12.935 -1.7217 -1.2363 -1.2815
19263TIP3    H279205   0.981   2.617  12.999  0.2124 -0.4798  0.4442
19264TIP3   OH279206   2.881   6.501   3.163 -0.0720 -0.1654 -0.0162
19264TIP3    H179207   2.791   6.472   3.152  0.2572 -1.4808  0.6390
19264TIP3    H279208   2.879   6.559   3.239 -0.5001  0.5617 -0.5585
19265TIP3   OH279209   1.512   2.750   1.194  0.3851 -0.6379 -0.0313
19265TIP3    H179210   1.602   2.780   1.182  0.0113  0.2397 -0.6638
19265TIP3    H279211   1.488   2.711   1.110 -0.2696  0.3234 -0.3034
19266TIP3   OH279212   0.257   6.730  15.351  0.6014  0.1170  0.8440
19266TIP3    H179213   0.342   6.738  15.393  1.8699 -1.4547 -1.2103
19266TIP3    H279214   0.277   6.714  15.259 -1.9702  1.3407 -0.0434
19267TIP3   OH279215   5.167   4.598  12.554 -0.0498 -0.3152  0.2154
19267TIP3    H179216   5.175   4.650  12.634 -0.8018 -0.3365  0.3117
19267TIP3    H279217   5.151   4.662  12.485 -3.1159 -0.4551  0.6280
19268TIP3   OH279218   3.104   4.271   0.398 -0.2705  0.2665 -0.6467
19268TIP3    H179219   3.024   4.323   0.398 -0.2496  0.3466  1.1100
19268TIP3    H279220   3.174   4.335   0.404 -0.1552  0.1286 -0.5202
19269TIP3   OH279221   4.255   5.968   2.990  0.2777 -0.5130 -0.4425
19269TIP3    H179222   4.160   5.979   2.988 -0.3895 -4.0690  1.6497
19269TIP3    H279223   4.272   5.893   2.934  1.9106  0.1696 -0.9292
19270TIP3   OH279224   4.132   0.161   4.982  0.0509 -0.0017 -0.0448
19270TIP3    H179225   4.196   0.137   4.915  0.6036 -0.3283  0.5876
19270TIP3    H279226   4.052   0.117   4.956  0.7261 -1.5807  0.4541
19271TIP3   OH279227   3.619   4.078  12.267 -0.4507 -0.4589  0.8109
19271TIP3    H179228   3.582   4.128  12.194 -0.3505  0.0972  1.1329
19271TIP3    H279229   3.561   4.003  12.277  0.0514 -1.0359 -0.4320
19272TIP3   OH279230   5.149   5.205  11.321 -0.6021  0.0315 -0.6617
19272TIP3    H179231   5.055   5.186  11.327 -0.4220 -0.5828  0.3562
19272TIP3    H279232   5.154   5.281  11.262 -1.7512  0.2288 -0.5287
19273TIP3   OH279233   5.904   3.467  15.197 -0.3661  0.1446 -0.2185
19273TIP3    H179234   5.961   3.435  15.127 -1.2203 -0.3971 -0.6860
19273TIP3    H279235   5.856   3.540  15.158  0.2574  0.8565  0.2925
19274TIP3   OH279236   0.296   4.372   2.110 -0.2281  0.2943  0.0339
19274TIP3    H179237   0.259   4.317   2.180 -0.3236 -0.2858 -0.4612
19274TIP3    H279238   0.390   4.374   2.128 -0.2772  0.3127  0.2922
19275TIP3   OH279239   1.381   5.454  15.465 -0.0750  0.2999  0.2551
19275TIP3    H179240   1.462   5.404  15.468  0.3155  0.9409  0.6690
19275TIP3    H279241   1.321   5.399  15.415  1.3793  0.9183 -2.3710
19276TIP3   OH279242   0.257   5.061  15.812  0.1554 -0.7160 -0.5626
19276TIP3    H179243   0.286   5.151  15.798  1.0765 -0.8251  0.5378
19276TIP3    H279244   0.301   5.011  15.744  1.0481 -0.5891 -0.0844
19277TIP3   OH279245   6.446   5.174  14.833 -0.7249  0.2837  0.5035
19277TIP3    H179246   6.463   5.152  14.741  0.2428  0.6246  0.5985
19277TIP3    H279247   6.438   5.089  14.876 -1.8776  0.1113 -0.0022
19278TIP3   OH279248   4.089   3.714   1.798 -0.5847  0.2194  0.2456
19278TIP3    H179249   3.994   3.714   1.785 -0.7914  0.7838  1.6893
19278TIP3    H279250   4.125   3.716   1.709 -1.9070 -0.9303 -0.3520
19279TIP3   OH279251   0.304   1.974  10.598 -0.7365 -0.0810  0.4334
19279TIP3    H179252   0.210   1.969  10.612 -0.8904  1.0385 -0.1058
19279TIP3    H279253   0.329   1.886  10.570 -1.5097 -0.5470  1.1507
19280TIP3   OH279254   3.877   0.794  16.561 -0.0847  0.2172 -0.0976
19280TIP3    H179255   3.826   0.716  16.541 -3.5387  2.3667 -0.5207
19280TIP3    H279256   3.867   0.806  16.655  3.4359 -1.5983  0.6803
19281TIP3   OH279257   4.902   4.837   1.892 -0.0642 -0.1027  0.6437
19281TIP3    H179258   4.826   4.868   1.941 -1.4231 -0.5300 -1.0824
19281TIP3    H279259   4.972   4.899   1.914 -0.8342  0.1851  2.4257
19282TIP3   OH279260   0.656   0.644   0.025 -0.9039 -0.2940  0.2386
19282TIP3    H179261   0.731   0.586   0.019  0.0545  0.7515  1.4763
19282TIP3    H279262   0.678   0.718  -0.032 -0.8600  0.1367  0.8065
19283TIP3   OH279263   4.422   5.791  10.971 -0.0886  0.2356  0.3531
19283TIP3    H179264   4.424   5.744  10.888  0.7747  2.3471 -0.9224
19283TIP3    H279265   4.371   5.870  10.952  0.5016  0.9736  1.6844
19284TIP3   OH279266   2.653   2.990   3.696  0.0166 -0.0527 -0.2689
19284TIP3    H179267   2.700   3.072   3.686 -1.2937  0.5190 -2.2687
19284TIP3    H279268   2.564   3.016   3.719 -0.0445 -0.9882  0.6070
19285TIP3   OH279269   0.591   6.127   1.533  0.0139 -0.0828  0.1269
19285TIP3    H179270   0.684   6.115   1.516 -0.2867 -2.2308 -0.3129
19285TIP3    H279271   0.574   6.074   1.611 -0.8930  0.0828  0.0574
19286TIP3   OH279272   2.843   5.295  15.396  0.5291 -0.4323 -0.2959
19286TIP3    H179273   2.761   5.342  15.406  0.3292 -0.8244 -0.0649
19286TIP3    H279274   2.903   5.338  15.456  1.5715  2.1909 -2.9680
19287TIP3   OH279275   2.460   1.348   1.736 -0.8649  0.0432  0.3840
19287TIP3    H179276   2.543   1.367   1.691 -1.1171  0.0216 -0.0992
19287TIP3    H279277   2.409   1.299   1.672 -1.8840  1.4332  0.0764
19288TIP3   OH279278   3.181   2.397  14.082  0.4977 -0.0552 -0.4128
19288TIP3    H179279   3.189   2.456  14.157  0.9492  1.8421 -1.8713
19288TIP3    H279280   3.150   2.453  14.010 -2.2822 -2.2737 -1.1172
19289TIP3   OH279281   2.332   4.797   2.746 -0.0987  0.4327  0.0935
19289TIP3    H179282   2.400   4.737   2.777  2.2421  2.1477 -1.4024
19289TIP3    H279283   2.294   4.752   2.671  1.9837  0.9113 -1.3369
19290TIP3   OH279284   0.620   2.481  15.248 -0.2926 -0.5791 -0.2024
19290TIP3    H179285   0.538   2.528  15.234  0.2970  0.5184 -0.0881
19290TIP3    H279286   0.667   2.488  15.164  0.8523  1.2040  0.5346
19291TIP3   OH279287   0.448   5.862   5.162  0.3438  0.1038  0.0546
19291TIP3    H179288   0.465   5.789   5.103 -0.4841 -0.0777  0.0165
19291TIP3    H279289   0.474   5.940   5.113  3.0980 -0.2388  0.8134
19292TIP3   OH279290   1.458   6.005  16.585  0.1204  0.1251  0.1640
19292TIP3    H179291   1.391   5.974  16.523 -0.0806  1.3326 -0.2434
19292TIP3    H279292   1.506   6.072  16.537  1.3930 -0.4374  0.5902
19293TIP3   OH279293   0.658   2.938   2.483 -0.0640 -0.0457  0.8279
19293TIP3    H179294   0.671   2.881   2.559  0.1070  2.3031  2.6613
19293TIP3    H279295   0.610   3.013   2.517 -1.6777  0.2354 -1.8352
19294TIP3   OH279296   3.315   1.096   0.987 -0.0207 -0.1830  0.3975
19294TIP3    H179297   3.397   1.114   0.940 -0.0295  0.4091  0.5935
19294TIP3    H279298   3.282   1.183   1.011 -0.9325 -0.3942 -0.0519
19295TIP3   OH279299   2.509   6.544  14.286 -0.2685 -0.2321 -0.1235
19295TIP3    H179300   2.441   6.590  14.335 -0.3653 -0.4184 -0.0841
19295TIP3    H279301   2.461   6.483  14.230 -0.2216  0.6227 -1.1369
19296TIP3   OH279302   4.158   4.664   4.058  0.3659  0.1451  0.2210
19296TIP3    H179303   4.199   4.724   3.995 -0.5038 -0.2964 -0.7871
19296TIP3    H279304   4.067   4.659   4.031 -0.5003  1.3969  2.6544
19297TIP3   OH279305   2.169   6.061  13.782  0.0558 -0.5126  0.0794
19297TIP3    H179306   2.175   6.134  13.721 -0.9988 -0.0684  0.4895
19297TIP3    H279307   2.198   6.097  13.866 -0.2294 -0.6284  0.2305
19298TIP3   OH279308   2.416   3.121  14.152 -0.2007  0.6676  0.2887
19298TIP3    H179309   2.388   3.130  14.243  0.3268 -0.9045  0.6307
19298TIP3    H279310   2.511   3.129  14.156 -0.1285  0.0263 -0.0379
19299TIP3   OH279311   5.152   3.082  14.670  0.3667  0.2488 -0.3710
19299TIP3    H179312   5.142   3.093  14.575  0.3049  1.0065 -0.2849
19299TIP3    H279313   5.066   3.102  14.706  0.1707 -0.8333 -0.2071
19300TIP3   OH279314   2.949   1.392  14.207  0.4194  0.4665  0.2507
19300TIP3    H179315   2.973   1.302  14.232  0.5390  0.8172  1.5078
19300TIP3    H279316   3.032   1.431  14.178  0.2916  0.0598 -0.6766
19301TIP3   OH279317   4.197   6.739   0.839  0.9301  0.2778 -0.7375
19301TIP3    H179318   4.192   6.834   0.845 -0.0265  0.1906  0.2970
19301TIP3    H279319   4.203   6.709   0.929 -1.7564 -0.7353 -0.7931
19302TIP3   OH279320   5.207   1.095  16.386  0.1911  0.2774  0.3971
19302TIP3    H179321   5.216   1.127  16.476  0.6470 -2.1736  1.3000
19302TIP3    H279322   5.187   1.002  16.395 -2.5641  0.4949 -2.0316
19303TIP3   OH279323   5.145   5.973  13.293  0.5359 -0.3579  0.3310
19303TIP3    H179324   5.122   5.918  13.367  0.0194  1.5323  1.6513
19303TIP3    H279325   5.217   6.028  13.325 -1.3189  2.2264  0.3499
19304TIP3   OH279326   1.691   2.194   4.089 -0.2850  0.0539 -0.0884
19304TIP3    H179327   1.659   2.269   4.140 -0.9190 -0.1376 -0.1967
19304TIP3    H279328   1.611   2.152   4.057 -0.0009 -1.4043  1.0144
19305TIP3   OH279329   4.665   1.629   5.515  0.7315 -0.1254  0.2597
19305TIP3    H179330   4.656   1.665   5.427  2.6402  1.4563  0.6424
19305TIP3    H279331   4.576   1.626   5.549  0.1104  0.5231 -1.2429
19306TIP3   OH279332   1.453   0.311   0.760  0.4210 -0.2300  0.6143
19306TIP3    H179333   1.542   0.276   0.765  1.1392  0.9602 -2.1477
19306TIP3    H279334   1.455   0.390   0.814  0.3260 -1.3981  2.4183
19307TIP3   OH279335   3.943   1.877  13.533 -0.4574  0.3234 -0.2434
19307TIP3    H179336   3.872   1.888  13.470  0.8403 -0.4479 -1.9164
19307TIP3    H279337   4.004   1.948  13.514  0.1037 -0.1078 -0.0854
19308TIP3   OH279338   2.781   2.857   3.239  0.1532  0.0862  0.0057
19308TIP3    H179339   2.818   2.769   3.239 -0.2320 -0.0852  0.4057
19308TIP3    H279340   2.736   2.864   3.323  0.3764  0.7524  0.0748
19309TIP3   OH279341   4.814   0.309  15.862 -0.0662  0.2793 -0.7213
19309TIP3    H179342   4.722   0.301  15.887 -0.1869  1.5826 -0.6982
19309TIP3    H279343   4.815   0.377  15.795  0.9477  0.6565 -0.3385
19310TIP3   OH279344   4.015   3.435   5.380  0.6387 -0.0594 -0.2954
19310TIP3    H179345   3.921   3.456   5.377  0.3139 -1.3077  0.2562
19310TIP3    H279346   4.049   3.463   5.296 -0.4489 -0.4648 -0.8898
19311TIP3   OH279347   5.032   6.133  14.595 -0.6245  0.6203 -0.1087
19311TIP3    H179348   5.084   6.062  14.558  0.7954  0.6616  1.6921
19311TIP3    H279349   5.014   6.190  14.520  2.0326  0.6555 -0.8333
19312TIP3   OH279350   3.688   5.473   1.544 -0.3464 -0.3587 -0.1812
19312TIP3    H179351   3.673   5.424   1.625 -0.0859 -0.9026 -0.4580
19312TIP3    H279352   3.757   5.424   1.498  0.0771  0.3833 -0.3639
19313TIP3   OH279353   0.313   6.183  17.156 -0.5010 -0.4014 -0.2660
19313TIP3    H179354   0.400   6.214  17.133 -0.3204 -0.2500  0.5921
19313TIP3    H279355   0.254   6.254  17.128 -0.4346 -0.8399 -1.5533
19314TIP3   OH279356   3.159   6.669  15.513 -0.3113  0.7495  0.6727
19314TIP3    H179357   3.226   6.733  15.491 -0.9752  0.8154 -1.3741
19314TIP3    H279358   3.187   6.589  15.467 -1.8869  0.9520 -0.7242
19315TIP3   OH279359   5.278   0.436  15.797  0.3561  0.1102  0.2314
19315TIP3    H179360   5.233   0.517  15.821  1.8565  0.5601  1.7504
19315TIP3    H279361   5.216   0.390  15.741 -1.2381  1.5094  0.7498
19316TIP3   OH279362   5.946   4.268  17.044 -0.1487  0.0376  0.0453
19316TIP3    H179363   5.937   4.361  17.065 -1.6484  0.0979 -0.7561
19316TIP3    H279364   6.037   4.258  17.017  0.1373  1.1833  0.5251
19317TIP3   OH279365   5.771   1.899   3.662 -0.1364 -0.1417  0.1501
19317TIP3    H179366   5.707   1.841   3.702  1.2606 -1.8490  0.0231
19317TIP3    H279367   5.726   1.935   3.586 -1.8389  0.8812  1.5543
19318TIP3   OH279368   3.745   4.471   1.648  0.0917 -1.1060  0.2865
19318TIP3    H179369   3.718   4.509   1.564 -0.5879 -2.0067  0.0761
19318TIP3    H279370   3.737   4.377   1.635  0.1693 -1.2677  1.3089
19319TIP3   OH279371   5.287   0.857  12.471  0.2399 -0.5053 -0.6043
19319TIP3    H179372   5.350   0.916  12.429  0.9126 -1.1399 -0.5007
19319TIP3    H279373   5.295   0.878  12.565  0.8022 -1.0605 -0.5228
19320TIP3   OH279374   4.874   3.736   0.239 -0.3005 -0.4085 -0.0458
19320TIP3    H179375   4.824   3.815   0.260  2.0458  0.6708  2.1334
19320TIP3    H279376   4.839   3.669   0.298 -0.9998 -0.4612 -0.5142
19321TIP3   OH279377   4.185   6.639  11.509 -0.2856  0.1246 -0.7031
19321TIP3    H179378   4.247   6.569  11.488  1.0211  1.3000 -0.8878
19321TIP3    H279379   4.124   6.640  11.436 -0.5918 -1.0934 -0.4914
19322TIP3   OH279380   3.973   2.673   0.075  0.4662  0.1827  0.1499
19322TIP3    H179381   3.950   2.659   0.167  1.2528  0.0558  0.3364
19322TIP3    H279382   4.044   2.736   0.078 -0.5729  1.4148 -0.4742
19323TIP3   OH279383   2.763   1.309  13.183 -0.1810 -0.4809  0.1523
19323TIP3    H179384   2.824   1.237  13.200 -0.9900 -1.7580 -1.9176
19323TIP3    H279385   2.812   1.370  13.128  0.4514  0.5173  1.7704
19324TIP3   OH279386   4.582   6.488  16.807 -0.0399 -0.3859 -0.1329
19324TIP3    H179387   4.633   6.486  16.888  0.2660 -1.5700 -0.3204
19324TIP3    H279388   4.645   6.516  16.740 -0.7149  2.2961  0.2631
19325TIP3   OH279389   1.432   3.297   1.952 -0.4376  0.3826 -0.0619
19325TIP3    H179390   1.395   3.339   1.875 -1.7170 -1.2754 -0.4137
19325TIP3    H279391   1.357   3.257   1.996  0.4190  0.3209  1.4251
19326TIP3   OH279392   1.518   0.732  16.479  0.0333  0.1662  0.1940
19326TIP3    H179393   1.570   0.779  16.415  1.1612 -1.4876 -0.1686
19326TIP3    H279394   1.534   0.640  16.460 -1.3110 -0.3755  1.4875
19327TIP3   OH279395   0.709   1.447   4.102 -0.1678 -0.1289  0.2513
19327TIP3    H179396   0.799   1.416   4.113 -0.4189 -0.3101  2.1619
19327TIP3    H279397   0.656   1.368   4.103 -0.5186  0.1049  1.4867
19328TIP3   OH279398   2.713   4.641   1.147  0.3243  0.0670 -0.1492
19328TIP3    H179399   2.724   4.736   1.139  1.9554 -0.0338  0.5104
19328TIP3    H279400   2.637   4.631   1.205  0.5531  0.9842  0.3412
19329TIP3   OH279401   6.558   4.554   1.753 -1.0658  0.0804 -0.2418
19329TIP3    H179402   6.560   4.637   1.801  0.8002 -0.4407  0.7033
19329TIP3    H279403   6.515   4.493   1.813  1.8781 -0.7414  1.2447
19330TIP3   OH279404   6.429   4.738   0.010 -0.0403  0.4818  0.1445
19330TIP3    H179405   6.447   4.829  -0.016 -0.7173  1.1170  1.7777
19330TIP3    H279406   6.334   4.731   0.009 -0.0280  0.0713  0.8724
19331TIP3   OH279407   4.606   2.041  13.202  0.5505 -0.4465  0.1661
19331TIP3    H179408   4.663   2.083  13.267 -1.3491  1.4091  0.7513
19331TIP3    H279409   4.524   2.024  13.250 -0.7800  0.6280 -1.5972
19332TIP3   OH279410   6.732   6.754   1.428 -0.1420  0.0510 -0.0836
19332TIP3    H179411   6.766   6.775   1.342 -1.2454 -0.2372 -0.6026
19332TIP3    H279412   6.637   6.749   1.417 -0.2085 -1.4425  0.8166
19333TIP3   OH279413   0.605   4.194   0.635  0.2522 -0.3468  0.3490
19333TIP3    H179414   0.673   4.164   0.695  0.8202 -1.0134 -0.6134
19333TIP3    H279415   0.623   4.148   0.553 -0.3142  0.7904 -0.4351
19334TIP3   OH279416   4.831   5.601  12.462 -0.1002 -0.0461 -0.5684
19334TIP3    H179417   4.868   5.558  12.539 -0.1987  0.1726 -0.4015
19334TIP3    H279418   4.760   5.543  12.434 -1.0055  0.5857  0.3464
19335TIP3   OH279419   5.351   4.646  15.881 -0.1225 -0.1266 -0.0874
19335TIP3    H179420   5.294   4.623  15.954 -0.6999  0.1268 -0.4497
19335TIP3    H279421   5.399   4.723  15.911  0.2053 -0.4791  0.3075
19336TIP3   OH279422   5.378   3.354  11.179 -0.6134 -0.0162 -0.0136
19336TIP3    H179423   5.397   3.394  11.094  0.8739 -1.3598 -0.3641
19336TIP3    H279424   5.444   3.285  11.188 -1.2287 -0.4075  1.8946
19337TIP3   OH279425   4.202   4.477  12.635  0.1159 -0.9553  0.4337
19337TIP3    H179426   4.158   4.562  12.625 -0.3529 -1.1831  0.5203
19337TIP3    H279427   4.133   4.413  12.618  0.4083 -1.3210  0.6245
19338TIP3   OH279428   2.119   5.224   0.932 -0.0259  0.2390 -0.4769
19338TIP3    H179429   2.202   5.210   0.978 -0.0066  1.1041 -0.2304
19338TIP3    H279430   2.110   5.148   0.875  0.3372 -0.4661  0.3815
19339TIP3   OH279431   3.367   4.204  11.018  0.0353  0.3750  0.0231
19339TIP3    H179432   3.338   4.114  11.031  1.3970 -0.5680 -2.7538
19339TIP3    H279433   3.311   4.237  10.947 -0.2255  1.6312  0.7879
19340TIP3   OH279434   3.777   3.105  12.955  0.0661  0.0433 -0.0815
19340TIP3    H179435   3.723   3.137  12.883 -0.5335  1.9731  1.1461
19340TIP3    H279436   3.835   3.040  12.915 -1.8580 -0.6963 -1.8006
19341TIP3   OH279437   1.791   6.512  10.627 -0.0453  0.0139 -0.4766
19341TIP3    H179438   1.882   6.505  10.656 -0.2479 -3.8311 -0.2571
19341TIP3    H279439   1.747   6.558  10.698  1.4142  0.3107  0.2745
19342TIP3   OH279440   6.561   5.197   4.324 -0.0903  1.0879 -0.5860
19342TIP3    H179441   6.508   5.149   4.261 -0.1407  0.8582 -0.3690
19342TIP3    H279442   6.501   5.258   4.365  0.2790  2.4426 -1.9502
19343TIP3   OH279443   0.694   2.498   5.696  0.3064 -0.0108  0.5026
19343TIP3    H179444   0.619   2.543   5.734  1.9640  3.6176 -0.1717
19343TIP3    H279445   0.753   2.483   5.770  0.6799  0.9738  0.4151
19344TIP3   OH279446   5.154   2.936  16.103 -0.4381  0.7213 -0.5156
19344TIP3    H179447   5.084   2.891  16.056 -0.0962 -0.1026 -0.2520
19344TIP3    H279448   5.129   2.930  16.195 -0.0237  0.4313 -0.4225
19345TIP3   OH279449   3.685   6.457  16.259  0.4629 -0.1366  0.2540
19345TIP3    H179450   3.696   6.535  16.205  0.9927  0.0793  0.6700
19345TIP3    H279451   3.671   6.491  16.348  1.2908 -0.5254  0.5389
19346TIP3   OH279452   2.834   4.383   5.964  0.3436  0.1050  0.0085
19346TIP3    H179453   2.865   4.299   5.998 -0.0288  0.5464  1.5613
19346TIP3    H279454   2.768   4.360   5.899  0.8604 -0.8010 -0.2122
19347TIP3   OH279455   0.971   2.410   4.912  0.2560  0.0335 -0.1476
19347TIP3    H179456   1.030   2.376   4.979  2.0054  0.8251 -1.2220
19347TIP3    H279457   0.918   2.334   4.886  0.2213 -0.5002  1.4039
19348TIP3   OH279458   3.215   2.327   3.217 -0.3114 -0.1158  0.2872
19348TIP3    H179459   3.152   2.257   3.199 -0.3965 -0.2759  1.1206
19348TIP3    H279460   3.167   2.408   3.200  0.0707 -0.2528 -1.5651
19349TIP3   OH279461   2.153   1.129   4.167 -0.5472  0.1610  0.2025
19349TIP3    H179462   2.099   1.052   4.183 -0.4720  0.2821  1.1125
19349TIP3    H279463   2.092   1.203   4.177 -0.4036  0.2601  0.3542
19350TIP3   OH279464   1.096   5.190   2.774 -0.3826 -0.2085  0.1204
19350TIP3    H179465   1.108   5.285   2.775  0.0927 -0.2460 -0.7889
19350TIP3    H279466   1.068   5.168   2.863 -0.3599  0.7628  0.3766
19351TIP3   OH279467   6.515   6.611  14.933  0.1974 -0.1159 -0.2257
19351TIP3    H179468   6.435   6.603  14.881  1.4946  1.8575 -2.7863
19351TIP3    H279469   6.503   6.692  14.982 -0.1789 -0.9060  1.0184
19352TIP3   OH279470   2.236   2.090   3.347  0.2870 -0.1541  0.0241
19352TIP3    H179471   2.186   2.009   3.349 -1.9484  1.0856 -1.4071
19352TIP3    H279472   2.309   2.073   3.288 -0.0572 -1.1793 -0.1165
19353TIP3   OH279473   1.438   0.317  12.680  0.2610 -0.2662  0.6118
19353TIP3    H179474   1.514   0.263  12.662  0.2344 -0.6496  1.6251
19353TIP3    H279475   1.457   0.360  12.763 -1.0431 -1.1536  1.4097
19354TIP3   OH279476   4.738   0.789  14.724  0.4850  0.3259  1.0410
19354TIP3    H179477   4.802   0.792  14.653  0.1713 -0.2044  0.7336
19354TIP3    H279478   4.698   0.703  14.718 -0.2195  0.6292  1.2687
19355TIP3   OH279479   2.279   4.679   6.263  0.4558 -0.4189 -0.4145
19355TIP3    H179480   2.241   4.765   6.241 -0.0952 -0.8038 -1.0335
19355TIP3    H279481   2.212   4.616   6.235  1.1112 -1.0781 -0.5376
19356TIP3   OH279482   1.277   6.654   2.178 -0.4734 -0.0817  0.3081
19356TIP3    H179483   1.283   6.610   2.263 -0.3713  1.2044  0.9845
19356TIP3    H279484   1.297   6.585   2.115  1.4772 -0.6158  1.4192
19357TIP3   OH279485   6.181   4.842  16.668  0.7354 -0.2578  0.3851
19357TIP3    H179486   6.237   4.829  16.745  0.5705 -0.2044  0.5158
19357TIP3    H279487   6.210   4.925  16.631 -0.5564  0.7929  1.5901
19358TIP3   OH279488   0.311   2.232   1.087 -0.1501  0.4352  0.0471
19358TIP3    H179489   0.225   2.202   1.056 -0.0221  1.2116 -1.1507
19358TIP3    H279490   0.322   2.318   1.047  1.1483  0.3830  0.2392
19359TIP3   OH279491   2.082   0.974  15.909 -0.0966 -0.0564  0.2322
19359TIP3    H179492   2.133   0.962  15.828 -0.3624  0.2093  0.0214
19359TIP3    H279493   2.147   0.979  15.978  0.4543  3.3291 -0.3379
19360TIP3   OH279494   2.982   0.288  16.758  0.6103 -0.4041  0.0219
19360TIP3    H179495   3.031   0.311  16.838  0.4028  2.0160 -0.4533
19360TIP3    H279496   3.016   0.349  16.692 -3.8607  2.4910 -0.0030
19361TIP3   OH279497   6.180   3.426   6.735 -0.2626  0.0132  0.8573
19361TIP3    H179498   6.196   3.511   6.694  1.1466 -0.3728  0.5666
19361TIP3    H279499   6.084   3.418   6.736 -0.3941  0.6088 -1.1886
19362TIP3   OH279500   0.059   6.696  12.785 -0.5940  0.6589 -0.1119
19362TIP3    H179501   0.105   6.681  12.703 -1.8593  0.5392 -0.8374
19362TIP3    H279502  -0.028   6.659  12.770 -0.2805 -1.1145  1.9636
19363TIP3   OH279503   3.456   2.607   5.166  0.0621  0.0006  0.6203
19363TIP3    H179504   3.479   2.515   5.157 -0.6618 -0.1555  0.2770
19363TIP3    H279505   3.417   2.630   5.081  0.5099  0.6969  0.5990
19364TIP3   OH279506   1.007   0.265  11.448 -0.0768 -0.4380 -0.2837
19364TIP3    H179507   0.927   0.229  11.486  0.4546 -0.8999  0.4405
19364TIP3    H279508   1.048   0.190  11.403 -0.3642 -0.0545 -1.2090
19365TIP3   OH279509   4.717   4.983  13.928  0.1192  0.1315 -0.0828
19365TIP3    H179510   4.762   5.044  13.985 -1.2935  0.0384  1.2184
19365TIP3    H279511   4.624   5.005  13.938 -0.1708  1.0109 -3.4309
19366TIP3   OH279512   5.238   1.201   0.050 -0.0671  0.2612  0.1591
19366TIP3    H179513   5.178   1.201  -0.024 -1.8264  1.5304  1.4739
19366TIP3    H279514   5.321   1.233   0.015 -0.0631 -1.6762 -1.7441
19367TIP3   OH279515   4.464   4.535   1.508  0.3288  0.4618 -0.2141
19367TIP3    H179516   4.417   4.469   1.457  1.9881  0.4740 -1.8809
19367TIP3    H279517   4.407   4.553   1.583 -1.2885 -1.0470 -1.0088
19368TIP3   OH279518   1.355   5.650   2.450 -0.2721  0.6396 -0.2430
19368TIP3    H179519   1.443   5.628   2.481  0.4565 -1.0301 -3.1464
19368TIP3    H279520   1.339   5.737   2.486  1.9702  0.4389  1.5081
19369TIP3   OH279521   1.396   3.592   2.147  0.0515 -0.0429 -0.2236
19369TIP3    H179522   1.489   3.616   2.146  0.9033 -2.8594  0.5037
19369TIP3    H279523   1.376   3.567   2.057  0.1803  0.0037 -0.2644
19370TIP3   OH279524   2.815   0.544   3.770 -0.3868  0.1951  0.1227
19370TIP3    H179525   2.748   0.533   3.703 -0.1998  2.2399 -0.4551
19370TIP3    H279526   2.778   0.503   3.849 -1.5216 -0.3037 -0.6477
19371TIP3   OH279527   1.725   2.917   0.591 -0.2082 -0.0589  0.0024
19371TIP3    H179528   1.692   2.965   0.515 -1.2868  1.4636  1.3928
19371TIP3    H279529   1.792   2.974   0.629  0.6241 -0.9929 -0.0004
19372TIP3   OH279530   2.987   1.824  14.680 -0.0763 -0.1910 -0.0863
19372TIP3    H179531   3.031   1.808  14.597  1.4564 -0.6200  0.7678
19372TIP3    H279532   2.931   1.900  14.663  1.8906  1.1791 -0.9458
19373TIP3   OH279533   1.945   0.565   4.772  0.2601  0.5231  0.2184
19373TIP3    H179534   1.980   0.480   4.747  1.3644  1.1667 -0.4885
19373TIP3    H279535   1.868   0.577   4.716  2.0261  1.4295 -2.2048
19374TIP3   OH279536   1.684   4.434   1.244  0.0536 -0.0381 -0.0036
19374TIP3    H179537   1.732   4.383   1.309  0.5277  0.9764  0.4586
19374TIP3    H279538   1.664   4.517   1.287  0.9062  0.8993 -1.3148
19375TIP3   OH279539   1.224   6.112   0.135  0.1248 -0.2164 -0.6401
19375TIP3    H179540   1.316   6.096   0.155 -0.5639 -1.1863  2.2886
19375TIP3    H279541   1.214   6.207   0.142  0.7374 -0.1856 -0.0527
19376TIP3   OH279542   0.423   6.364  11.278  0.2729 -0.0502  0.6531
19376TIP3    H179543   0.482   6.439  11.281  1.2492 -0.8544  2.5396
19376TIP3    H279544   0.480   6.288  11.267 -0.7027 -0.5651 -1.2124
19377TIP3   OH279545   1.480   0.516  16.845 -0.1089 -0.0081  0.2524
19377TIP3    H179546   1.521   0.602  16.853 -0.0252  0.1728 -1.6190
19377TIP3    H279547   1.544   0.463  16.798 -0.6015 -0.7698  0.4159
19378TIP3   OH279548   4.286   4.481  15.087 -0.1616  0.0394 -0.4241
19378TIP3    H179549   4.247   4.487  15.174 -0.5679 -1.1966 -0.5087
19378TIP3    H279550   4.291   4.572  15.057  1.9132  0.7033  1.7076
19379TIP3   OH279551   6.180   2.905  15.054  0.1544 -0.0622 -0.7703
19379TIP3    H179552   6.192   2.968  14.984  1.0484  1.7577  0.9324
19379TIP3    H279553   6.256   2.918  15.112 -0.9322 -0.9221  0.9348
19380TIP3   OH279554   5.016   5.294   3.806 -0.1718 -0.2256  0.0745
19380TIP3    H179555   4.992   5.333   3.722  0.7974  0.1640 -0.0338
19380TIP3    H279556   5.062   5.213   3.782 -1.1499 -0.8520  0.2712
19381TIP3   OH279557   1.479   2.679   4.769  0.8489 -0.3595  0.6099
19381TIP3    H179558   1.488   2.596   4.816  1.0560 -0.4489  0.4154
19381TIP3    H279559   1.512   2.661   4.681  1.1919  0.0123  0.6594
19382TIP3   OH279560   6.756   3.429  13.258 -0.1417 -0.0529  0.2917
19382TIP3    H179561   6.826   3.463  13.202 -0.2291 -0.5176 -0.1084
19382TIP3    H279562   6.685   3.492  13.248 -0.3276 -0.3737 -0.4972
19383TIP3   OH279563   0.092   1.063  13.891  0.1087  0.1429 -0.0148
19383TIP3    H179564   0.166   1.058  13.952 -0.9520 -0.2716  1.2758
19383TIP3    H279565   0.056   0.975  13.888  0.8767 -0.1460 -2.2440
19384TIP3   OH279566   5.730   0.372  13.363  0.2259  0.8879  0.0559
19384TIP3    H179567   5.772   0.288  13.346 -1.0033  0.4474 -1.0223
19384TIP3    H279568   5.689   0.395  13.280 -0.3840  2.0133  0.6483
19385TIP3   OH279569   4.311   3.919   0.069 -0.3112 -0.1342 -0.6114
19385TIP3    H179570   4.336   4.008   0.094 -1.2239 -0.4363  1.5444
19385TIP3    H279571   4.394   3.871   0.064  0.0946  0.5630 -0.7197
19386TIP3   OH279572   4.191   3.140  13.348  0.4494  0.0022  0.1070
19386TIP3    H179573   4.173   3.049  13.327 -3.8947  1.0519 -1.8512
19386TIP3    H279574   4.127   3.162  13.416  0.9952  1.7058  0.1143
19387TIP3   OH279575   0.673   0.761   5.405  0.4001  0.0735 -0.6525
19387TIP3    H179576   0.676   0.839   5.460 -0.2198 -0.0966 -0.3697
19387TIP3    H279577   0.663   0.795   5.316  1.0502  0.3360 -0.6368
19388TIP3   OH279578   5.304   1.675   3.472 -0.4216 -0.5315 -0.1664
19388TIP3    H179579   5.387   1.642   3.439 -0.4973  0.1792 -1.0958
19388TIP3    H279580   5.279   1.744   3.411 -1.3791 -0.2954  0.4648
19389TIP3   OH279581   2.911   3.117   6.612 -0.3318 -0.5109 -0.3782
19389TIP3    H179582   2.829   3.070   6.628  0.6676 -2.1273  0.2569
19389TIP3    H279583   2.978   3.049   6.612  1.2080  0.9287  0.5547
19390TIP3   OH279584   2.971   6.069  11.957 -0.0926 -0.2534  0.1939
19390TIP3    H179585   2.891   6.019  11.942 -0.5770 -0.2138  2.2946
19390TIP3    H279586   2.987   6.114  11.875 -1.5581 -1.1899 -0.6557
19391TIP3   OH279587   1.213   4.282  12.823 -0.3435 -0.2187  0.6463
19391TIP3    H179588   1.309   4.280  12.827 -0.3231 -0.1682  0.2382
19391TIP3    H279589   1.188   4.350  12.886 -0.0748  0.2488  0.2622
19392TIP3   OH279590   1.928   0.140  13.424 -0.4002  0.0225  0.0029
19392TIP3    H179591   1.943   0.048  13.402  0.4785  0.0872  0.3062
19392TIP3    H279592   1.998   0.162  13.485 -0.2917  1.0410 -0.4739
19393TIP3   OH279593   1.654   1.753   4.277  0.2312 -0.0458 -0.7985
19393TIP3    H179594   1.636   1.677   4.221  0.1730 -0.0642 -0.7557
19393TIP3    H279595   1.610   1.732   4.360 -1.2110  0.7646 -1.3266
19394TIP3   OH279596   6.063   4.791  12.997  0.3601  0.4388  0.0701
19394TIP3    H179597   5.978   4.758  13.027 -0.5629  2.2232 -0.4178
19394TIP3    H279598   6.127   4.739  13.045 -1.0277  0.5222  2.1517
19395TIP3   OH279599   5.406   1.125  13.588 -0.5343 -0.1300  0.1565
19395TIP3    H179600   5.444   1.042  13.617  1.9626  0.5017 -1.0212
19395TIP3    H279601   5.418   1.184  13.662 -2.1704 -0.7028  0.9368
19396TIP3   OH279602   5.403   1.394  15.374  0.2992  0.2491 -0.0708
19396TIP3    H179603   5.411   1.396  15.469 -0.0987 -2.6743  0.1080
19396TIP3    H279604   5.326   1.447  15.355  0.2507  0.6764  1.2297
19397TIP3   OH279605   6.786   4.914   1.968  0.5977 -0.1516  0.2161
19397TIP3    H179606   6.846   4.938   1.898 -0.3182  0.5535 -0.3341
19397TIP3    H279607   6.807   4.975   2.039 -0.7052  1.3692 -0.6433
19398TIP3   OH279608   5.923   4.496  15.428  0.6756 -0.2149 -0.5899
19398TIP3    H179609   5.896   4.577  15.472  0.3155 -1.2222  1.1097
19398TIP3    H279610   6.007   4.473  15.468  0.3147 -1.1842 -0.3645
19399TIP3   OH279611   6.705   2.049   1.197  0.0630  0.3035 -0.6853
19399TIP3    H179612   6.655   2.109   1.252  0.8853  0.7461 -0.3993
19399TIP3    H279613   6.781   2.100   1.169  0.8444 -0.6407 -0.3450
19400TIP3   OH279614   3.634   2.787   3.539 -0.4430 -0.2286  0.1279
19400TIP3    H179615   3.625   2.863   3.596 -1.4026 -0.9357  0.9757
19400TIP3    H279616   3.548   2.745   3.542  0.0912 -1.4006 -0.2147
19401TIP3   OH279617   2.250   2.970  13.675 -0.2401 -0.5773 -0.1134
19401TIP3    H179618   2.274   2.892  13.725 -0.6191 -0.3500  0.4332
19401TIP3    H279619   2.308   2.969  13.599  0.4070 -0.8852  0.3753
19402TIP3   OH279620   3.338   4.824   4.714 -0.1724 -0.2326  0.0830
19402TIP3    H179621   3.429   4.810   4.688 -0.1903 -0.0132 -0.0996
19402TIP3    H279622   3.325   4.764   4.787  0.8303  1.3879  1.6926
19403TIP3   OH279623   5.117   6.567   1.821 -0.0805 -0.4902  0.2870
19403TIP3    H179624   5.132   6.499   1.886 -0.9616  0.8160  1.9579
19403TIP3    H279625   5.022   6.573   1.814 -0.0286  0.5954  0.2399
19404TIP3   OH279626   3.739   5.454   2.887 -0.1233  0.5486 -0.0292
19404TIP3    H179627   3.682   5.408   2.949  1.7209 -0.3869  1.0496
19404TIP3    H279628   3.688   5.457   2.806 -0.5707 -3.0608 -0.0663
19405TIP3   OH279629   0.394   1.771   1.497 -0.2240 -0.3395  0.2003
19405TIP3    H179630   0.395   1.753   1.591 -1.4613 -2.1041 -0.0757
19405TIP3    H279631   0.307   1.807   1.481  0.6081  1.6726 -0.0237
19406TIP3   OH279632   6.173   5.317  12.227 -0.4044  0.2104  0.1868
19406TIP3    H179633   6.123   5.267  12.162 -0.0409 -2.5635  1.8993
19406TIP3    H279634   6.227   5.376  12.174 -0.3594 -1.6806 -2.0419
19407TIP3   OH279635   3.556   0.448  14.704  0.3963 -0.3205 -0.1086
19407TIP3    H179636   3.516   0.363  14.683 -1.5318  0.5681 -0.1752
19407TIP3    H279637   3.557   0.451  14.799 -0.1755 -0.1422 -0.1045
19408TIP3   OH279638   4.930   0.832  15.352 -0.5968 -0.2826 -0.0580
19408TIP3    H179639   5.007   0.805  15.402 -0.1570 -1.5466 -1.3294
19408TIP3    H279640   4.935   0.927  15.348 -0.3648 -0.1841  1.8191
19409TIP3   OH279641   3.836   4.574  10.578 -0.3093 -0.1269  0.0819
19409TIP3    H179642   3.810   4.663  10.553  0.6862 -0.3766 -2.0898
19409TIP3    H279643   3.776   4.517  10.530  0.9410 -0.6326 -0.9322
19410TIP3   OH279644   6.554   4.070  13.185  0.4286 -0.5961 -0.6949
19410TIP3    H179645   6.615   4.140  13.205  0.4741 -0.7228 -0.3785
19410TIP3    H279646   6.499   4.063  13.263  0.8492 -1.3541 -0.4613
19411TIP3   OH279647   0.014   6.464   1.019 -0.3381  0.1514 -1.0557
19411TIP3    H179648   0.067   6.531   0.976  1.9268 -0.8184  0.0353
19411TIP3    H279649   0.034   6.474   1.112  1.5008 -3.0340 -0.9513
19412TIP3   OH279650   0.654   4.610  14.182 -0.4922 -0.0650 -0.2507
19412TIP3    H179651   0.668   4.699  14.214  0.2341 -0.2913  0.0839
19412TIP3    H279652   0.613   4.621  14.096  2.7457  0.7330 -1.8664
19413TIP3   OH279653   1.679   1.763  14.623  0.1798 -0.0814  0.3778
19413TIP3    H179654   1.600   1.801  14.585  0.3391 -0.9009 -0.8100
19413TIP3    H279655   1.665   1.669  14.621  0.5644 -0.1890  1.5751
19414TIP3   OH279656   6.516   6.752   0.702  0.2343  0.1448 -0.0168
19414TIP3    H179657   6.546   6.668   0.735 -1.8437 -0.0594  1.6097
19414TIP3    H279658   6.458   6.731   0.629  0.2488  0.1831 -0.0395
19415TIP3   OH279659   4.169   3.511  16.467  0.4397 -0.1882  0.3359
19415TIP3    H179660   4.178   3.605  16.486  0.9152 -0.7123  3.1953
19415TIP3    H279661   4.116   3.477  16.539 -0.4131 -2.0135 -1.0706
19416TIP3   OH279662   1.685   1.816   0.582 -0.0294 -0.7814 -0.1281
19416TIP3    H179663   1.621   1.764   0.629  0.8915 -3.3700 -1.5642
19416TIP3    H279664   1.637   1.895   0.556 -1.7185 -1.2469  1.4240
19417TIP3   OH279665   6.781   2.424   0.599  0.1852  0.2560 -0.0932
19417TIP3    H179666   6.759   2.406   0.691  0.3973 -0.5844 -0.1998
19417TIP3    H279667   6.697   2.450   0.559 -0.0932 -0.3131  0.1176
19418TIP3   OH279668   2.321   6.238   4.235 -0.3149 -0.2765  0.8821
19418TIP3    H179669   2.365   6.323   4.236  3.2804 -1.9599  2.1624
19418TIP3    H279670   2.257   6.244   4.306 -1.7409  1.9866 -0.4704
19419TIP3   OH279671   4.590   6.007  14.302  0.0916 -0.0363 -0.1307
19419TIP3    H179672   4.516   6.032  14.246 -0.1682  0.9318  0.6179
19419TIP3    H279673   4.627   6.090  14.331  0.9568 -0.5223  0.1896
19420TIP3   OH279674   4.345   0.681   2.086  0.0160  0.1461  0.6162
19420TIP3    H179675   4.259   0.703   2.049  0.1956 -0.7977 -0.4216
19420TIP3    H279676   4.372   0.760   2.132 -0.0011  1.6411 -1.7604
19421TIP3   OH279677   2.433   2.833   1.207  0.0133  0.3056  0.1858
19421TIP3    H179678   2.511   2.822   1.262  1.1853  1.7431 -1.0868
19421TIP3    H279679   2.404   2.744   1.188 -0.3698 -0.2397  2.9579
19422TIP3   OH279680   1.791   5.775   0.754  0.0149 -0.8533 -0.2504
19422TIP3    H179681   1.765   5.773   0.662 -1.6467  1.2844  0.1093
19422TIP3    H279682   1.882   5.804   0.751  0.9405 -3.5033 -1.2759
19423TIP3   OH279683   4.488   4.443   4.583 -0.1340  0.1207  0.0951
19423TIP3    H179684   4.474   4.367   4.639  0.6290 -0.8242 -0.9356
19423TIP3    H279685   4.577   4.431   4.548  0.1925  1.7342  0.2656
19424TIP3   OH279686   5.969   3.245  12.462  0.3393 -0.5177  0.6679
19424TIP3    H179687   5.926   3.290  12.535 -1.4976 -0.4826 -0.3760
19424TIP3    H279688   6.028   3.311  12.425 -1.3083  0.6566  0.0084
19425TIP3   OH279689   3.824   1.734  16.528 -0.0529  0.0081 -0.1494
19425TIP3    H179690   3.855   1.801  16.589 -0.8937  1.5156 -1.3256
19425TIP3    H279691   3.766   1.679  16.581 -1.9003  2.1233  0.1559
19426TIP3   OH279692   6.616   6.257   4.302 -0.0988 -0.2141  0.1286
19426TIP3    H179693   6.571   6.175   4.323 -0.2449 -0.3298 -0.6203
19426TIP3    H279694   6.656   6.241   4.216  1.6926 -0.2487  0.9187
19427TIP3   OH279695   6.703   2.229  14.451  0.0684 -0.1645  0.1537
19427TIP3    H179696   6.779   2.200  14.402  1.4157 -1.3921  2.7892
19427TIP3    H279697   6.648   2.274  14.386  1.9659 -1.1552 -2.2769
19428TIP3   OH279698   0.563   1.572   5.084 -0.9011  0.2305 -0.2243
19428TIP3    H179699   0.634   1.598   5.025 -1.4359  0.0556 -0.9667
19428TIP3    H279700   0.590   1.604   5.170  0.0899  0.1327 -0.4875
19429TIP3   OH279701   3.361   2.538  10.565  0.2740  0.8016  0.5719
19429TIP3    H179702   3.450   2.536  10.528  1.1837  0.0518  2.6680
19429TIP3    H279703   3.323   2.454  10.539 -0.9249  2.1765 -2.6487
19430TIP3   OH279704   2.224   5.631   5.689 -0.1588  0.1049 -1.1177
19430TIP3    H179705   2.280   5.633   5.767 -0.3250 -2.5741 -0.8497
19430TIP3    H279706   2.260   5.561   5.635 -1.5551  0.2479 -2.3001
19431TIP3   OH279707   3.718   3.133   6.171 -0.1107 -0.6466 -0.0756
19431TIP3    H179708   3.648   3.198   6.173 -2.0398 -2.4375 -2.6551
19431TIP3    H279709   3.732   3.109   6.263 -1.4631  1.1628  0.6564
19432TIP3   OH279710   1.850   0.795  16.762 -0.0870 -0.5458 -0.0565
19432TIP3    H179711   1.905   0.765  16.690  1.4030  1.8418 -0.0127
19432TIP3    H279712   1.768   0.747  16.751  0.9142 -1.9388 -1.9632
19433TIP3   OH279713   0.504   4.271   2.837  0.3885  0.0295 -0.2708
19433TIP3    H179714   0.415   4.238   2.827 -0.3119  1.1889  1.5902
19433TIP3    H279715   0.535   4.230   2.918  1.2333  0.3147 -0.4429
19434TIP3   OH279716   2.634   4.564   3.417 -0.1301 -0.2909  0.3157
19434TIP3    H179717   2.721   4.526   3.428  0.0035  0.5869  3.0044
19434TIP3    H279718   2.573   4.490   3.422  0.3715 -0.7597 -0.3506
19435TIP3   OH279719   3.785   3.648   0.259 -0.4236  0.0225 -0.0565
19435TIP3    H179720   3.702   3.617   0.224 -0.7958  0.7241  0.1753
19435TIP3    H279721   3.808   3.723   0.204  0.2802 -0.4363 -0.3933
19436TIP3   OH279722   3.546   5.961   5.786  1.0498 -0.3761 -0.1317
19436TIP3    H179723   3.639   5.984   5.788  0.5989  1.9204 -1.7030
19436TIP3    H279724   3.501   6.044   5.801 -0.7650 -1.2421 -0.5240
19437TIP3   OH279725   2.188   5.648   3.203 -0.0812 -0.6590 -0.4229
19437TIP3    H179726   2.218   5.730   3.243 -0.3448 -0.6029 -0.3426
19437TIP3    H279727   2.258   5.586   3.223  0.1176 -0.4581 -0.4768
19438TIP3   OH279728   3.919   1.513   5.900  0.9948  0.2930 -0.1882
19438TIP3    H179729   3.996   1.503   5.956  0.8389  0.3511  0.0369
19438TIP3    H279730   3.860   1.570   5.950 -0.1689 -1.5588  0.6576
19439TIP3   OH279731   0.344   5.020   6.091 -0.3236 -0.3136 -0.2580
19439TIP3    H179732   0.315   5.015   6.000  0.5934  0.1256 -0.5840
19439TIP3    H279733   0.369   4.931   6.113 -1.2586 -0.5699 -0.1850
19440TIP3   OH279734   0.134   2.021   3.084  0.2201  0.5251  0.0788
19440TIP3    H179735   0.174   2.060   3.006  0.7332  0.3856  0.2700
19440TIP3    H279736   0.119   1.930   3.060 -0.0045  0.5804  0.0024
19441TIP3   OH279737   4.002   0.882  16.817  0.0629  0.4236  0.9034
19441TIP3    H179738   4.052   0.818  16.766  1.4971  1.7173  0.6056
19441TIP3    H279739   3.968   0.832  16.892 -0.1497 -0.9952 -0.0862
19442TIP3   OH279740   4.385   5.222   0.464 -0.7692  0.2331 -0.3327
19442TIP3    H179741   4.298   5.214   0.426 -0.8482  2.3435 -0.7070
19442TIP3    H279742   4.444   5.225   0.389 -0.5444  0.4778 -0.1500
19443TIP3   OH279743   1.953   6.344  15.634  0.2405  0.0911  0.2286
19443TIP3    H179744   1.906   6.388  15.564  1.4515  1.2502  0.0907
19443TIP3    H279745   1.980   6.415  15.693  2.4469 -0.3851 -0.1119
19444TIP3   OH279746   2.587   2.511   4.057  0.1006 -0.1786  0.2578
19444TIP3    H179747   2.532   2.586   4.034 -0.2234 -0.9169 -1.5425
19444TIP3    H279748   2.652   2.547   4.117  1.0643  2.0018 -1.9110
19445TIP3   OH279749   5.860   5.828   0.022 -0.5117 -0.2056  0.3425
19445TIP3    H179750   5.799   5.900   0.034  0.8325  0.8090  1.3148
19445TIP3    H279751   5.805   5.749   0.029 -1.4604  0.5827  3.2173
19446TIP3   OH279752   3.794   1.543   1.843  0.0607 -0.0259 -0.4556
19446TIP3    H179753   3.856   1.616   1.852  0.8640 -0.8002  0.5886
19446TIP3    H279754   3.751   1.558   1.759  2.5182 -0.0680 -1.8256
19447TIP3   OH279755   3.223   3.254   1.791  0.0049 -0.4670  0.7019
19447TIP3    H179756   3.238   3.323   1.856  1.1403 -1.3548  1.4481
19447TIP3    H279757   3.235   3.172   1.841 -1.0040 -1.2019 -0.2152
19448TIP3   OH279758   4.057   3.754  13.047  0.3924 -0.0888 -0.6945
19448TIP3    H179759   4.031   3.704  13.125  0.1560  0.4876 -0.4020
19448TIP3    H279760   3.975   3.769  13.000  0.5528 -0.5716 -1.1477
19449TIP3   OH279761   6.779   5.100  15.833 -0.1792 -0.7460  0.2878
19449TIP3    H179762   6.743   5.023  15.876  1.6064 -0.1142  3.1613
19449TIP3    H279763   6.874   5.088  15.837  0.1508  1.5836  0.8953
19450TIP3   OH279764   6.736   1.591  14.103  0.3966 -1.2775 -0.0637
19450TIP3    H179765   6.807   1.632  14.055 -1.3140  0.9875 -0.8260
19450TIP3    H279766   6.675   1.561  14.036 -2.1824  2.2135  0.4437
19451TIP3   OH279767   5.179   6.785  14.745  0.4503 -0.0505  0.2463
19451TIP3    H179768   5.206   6.862  14.695  1.5232 -0.4718  0.1607
19451TIP3    H279769   5.200   6.711  14.690 -1.4029 -0.4147 -0.0519
19452TIP3   OH279770   6.530   3.227   4.624  0.5797 -0.1651  0.0244
19452TIP3    H179771   6.531   3.145   4.575  0.2034 -0.0553 -0.1755
19452TIP3    H279772   6.437   3.247   4.636  0.6605  0.4480 -0.2942
19453TIP3   OH279773   4.867   2.752  17.071  0.2556  0.2650  0.2968
19453TIP3    H179774   4.928   2.678  17.082  2.2358  1.5578 -1.2824
19453TIP3    H279775   4.864   2.793  17.158  0.9641 -0.3138  0.6080
19454TIP3   OH279776   6.581   4.217   5.046  0.0353 -0.4082 -0.7016
19454TIP3    H179777   6.655   4.167   5.081  3.0365  2.4351 -2.3771
19454TIP3    H279778   6.523   4.231   5.122  1.3561 -2.4443  0.7870
19455TIP3   OH279779   0.004   6.403  15.350  0.0804  0.6094  0.2819
19455TIP3    H179780   0.097   6.425  15.340 -0.4399  1.9642 -2.3253
19455TIP3    H279781  -0.035   6.423  15.265 -3.0072  2.0125  1.8736
19456TIP3   OH279782   0.518   0.224  14.840  0.3720  0.0807 -0.2647
19456TIP3    H179783   0.602   0.263  14.816  0.3654  1.1682  1.3239
19456TIP3    H279784   0.469   0.296  14.879 -1.4997 -0.4243 -1.5883
19457TIP3   OH279785   4.409   3.677   4.718  0.0044  0.4373 -0.8843
19457TIP3    H179786   4.374   3.628   4.643  0.8719 -0.3223 -0.8120
19457TIP3    H279787   4.496   3.705   4.690  1.5954 -2.3922  0.8336
19458TIP3   OH279788   3.644   2.432   6.351 -0.2178 -0.0576 -0.0975
19458TIP3    H179789   3.593   2.368   6.302  1.2311 -0.2447 -1.4589
19458TIP3    H279790   3.603   2.435   6.438 -0.2040 -2.9681  0.0889
19459TIP3   OH279791   2.101   5.937  15.023  0.1056  0.3594 -0.1919
19459TIP3    H179792   2.060   5.974  14.945  0.4886  0.5283 -0.3201
19459TIP3    H279793   2.029   5.924  15.085  0.1062  2.7587  0.4428
19460TIP3   OH279794   4.951   6.080  10.297 -0.2001  0.1526  0.1594
19460TIP3    H179795   4.992   6.046  10.217 -0.1649  0.5530  0.0036
19460TIP3    H279796   4.857   6.066  10.283 -0.0843 -1.4821  0.8522
19461TIP3   OH279797   3.615   4.446  16.477  0.1397  0.1685  0.3939
19461TIP3    H179798   3.544   4.446  16.413 -2.4545  1.1856  2.9763
19461TIP3    H279799   3.652   4.359  16.473 -1.7002 -0.6257 -0.7205
19462TIP3   OH279800   0.274   3.472  13.352  0.8268 -0.3269  0.4848
19462TIP3    H179801   0.288   3.552  13.303  0.9294  0.1802  1.3280
19462TIP3    H279802   0.197   3.490  13.406  1.6917 -0.2727  1.7407
19463TIP3   OH279803   2.743   1.415   4.194 -0.4933 -0.1913 -0.1187
19463TIP3    H179804   2.696   1.359   4.255  0.5687 -0.1001  0.8150
19463TIP3    H279805   2.836   1.400   4.214 -0.1345  0.3190 -1.2770
19464TIP3   OH279806   6.307   4.878   5.628 -0.2833  0.2312  0.3115
19464TIP3    H179807   6.239   4.900   5.565 -0.7230 -0.4679  0.5183
19464TIP3    H279808   6.372   4.947   5.620  0.2752 -0.4537 -1.7659
19465TIP3   OH279809   6.713   5.344   0.966  0.4993  0.1797  0.1697
19465TIP3    H179810   6.728   5.252   0.989  0.7150  0.5736  1.7892
19465TIP3    H279811   6.618   5.351   0.956  0.5310 -0.3389 -0.5964
19466TIP3   OH279812   5.584   5.145  13.389  0.2150 -0.3490  0.1510
19466TIP3    H179813   5.599   5.214  13.454 -0.4335 -0.1640  0.1103
19466TIP3    H279814   5.635   5.171  13.313 -1.2760  0.9342 -0.4574
19467TIP3   OH279815   6.274   6.600  13.141  0.0120 -0.2321 -0.3720
19467TIP3    H179816   6.339   6.542  13.182 -0.2709 -0.4402 -0.2069
19467TIP3    H279817   6.212   6.619  13.212 -0.4934 -0.6117 -0.7039
19468TIP3   OH279818   0.091   4.036   0.344  0.0322 -0.4263 -0.5559
19468TIP3    H179819   0.115   4.092   0.417  0.0927 -2.0331  0.7077
19468TIP3    H279820  -0.005   4.037   0.344  0.0335 -0.0652 -0.7584
19469TIP3   OH279821   4.324   1.621   5.046 -0.3589 -0.0498 -0.4443
19469TIP3    H179822   4.290   1.676   5.116 -2.0429 -2.5655  0.8437
19469TIP3    H279823   4.279   1.651   4.967 -1.1140  0.5448  0.2034
19470TIP3   OH279824   4.255   1.118  15.816 -0.7546  0.4049  0.4693
19470TIP3    H179825   4.337   1.164  15.797 -1.8009  1.9772 -0.5328
19470TIP3    H279826   4.260   1.037  15.766 -0.2533  0.9902 -0.4575
19471TIP3   OH279827   4.980   2.620  15.851 -0.2890 -0.1595  0.2803
19471TIP3    H179828   5.059   2.653  15.809 -1.4436  1.4185 -0.7508
19471TIP3    H279829   4.980   2.661  15.937 -1.4208  2.2748 -0.7828
19472TIP3   OH279830   1.263   4.778   4.298 -0.4853 -0.0052 -0.3951
19472TIP3    H179831   1.247   4.801   4.207 -0.7718 -0.4077 -0.4497
19472TIP3    H279832   1.269   4.683   4.298 -1.2527 -0.0616  0.1253
19473TIP3   OH279833   6.508   0.276   1.624 -0.2830  0.4735  0.4512
19473TIP3    H179834   6.435   0.336   1.641  0.7609  1.9039  0.1030
19473TIP3    H279835   6.468   0.202   1.579 -1.4643  1.4104 -0.1067
19474TIP3   OH279836   5.687   0.674  16.984  0.3008 -0.0441  0.3186
19474TIP3    H179837   5.725   0.759  16.961  1.9217 -0.7865  0.1099
19474TIP3    H279838   5.592   0.686  16.973  0.2955  2.2525  2.0347
19475TIP3   OH279839   1.682   4.027   1.095  0.4386  0.0113  0.2761
19475TIP3    H179840   1.757   3.993   1.144  0.4827  0.6360  0.6501
19475TIP3    H279841   1.619   4.054   1.162  0.3719  0.5792 -0.0057
19476TIP3   OH279842   1.068   3.591   4.027  0.3736 -0.4243 -0.6655
19476TIP3    H179843   1.087   3.502   3.997  0.6227 -0.4051 -0.5708
19476TIP3    H279844   1.069   3.585   4.122 -1.4010 -0.6913 -0.6417
19477TIP3   OH279845   5.467   4.892  15.317  0.4547  0.6924 -0.1299
19477TIP3    H179846   5.520   4.964  15.349  1.2281 -0.0287  0.2488
19477TIP3    H279847   5.526   4.816  15.316 -0.4800 -0.0646  0.0298
19478TIP3   OH279848   6.565   1.526   4.986 -0.3169 -0.0346  0.1289
19478TIP3    H179849   6.533   1.560   4.903 -2.6493 -1.3231  0.4165
19478TIP3    H279850   6.629   1.459   4.962 -0.1567  0.3658 -0.5740
19479TIP3   OH279851   6.693   1.970   2.123 -0.1572 -0.0761 -0.0868
19479TIP3    H179852   6.725   1.986   2.211  0.4771 -0.8199 -0.1734
19479TIP3    H279853   6.651   2.052   2.097 -0.6221  0.0396  1.0174
19480TIP3   OH279854   3.394   4.511   3.696 -0.2154 -0.3042 -0.0622
19480TIP3    H179855   3.439   4.542   3.617 -2.6930  1.0114 -1.0783
19480TIP3    H279856   3.331   4.446   3.664 -1.5523  0.5526  0.7043
19481TIP3   OH279857   3.046   0.004   3.762 -0.5727 -0.4182 -0.9859
19481TIP3    H179858   2.995   0.043   3.691 -0.4084 -0.6642 -1.2415
19481TIP3    H279859   3.057   0.075   3.825  0.8723  0.3539 -2.0477
19482TIP3   OH279860   0.492   4.426  12.895  0.7300  0.0062  0.7775
19482TIP3    H179861   0.586   4.413  12.893  0.5724 -1.2662 -0.2149
19482TIP3    H279862   0.458   4.364  12.830 -0.6686  1.4925  0.0152
19483TIP3   OH279863   3.343   5.353  12.209  0.3686 -0.0676  0.5299
19483TIP3    H179864   3.429   5.391  12.189  0.0297 -0.5121 -2.1284
19483TIP3    H279865   3.286   5.429  12.221  0.5135  0.2566 -0.7657
19484TIP3   OH279866   0.738   0.808  16.998  0.2056  0.0680  0.2177
19484TIP3    H179867   0.712   0.899  17.013  1.2935  0.3911  0.2584
19484TIP3    H279868   0.829   0.805  17.026  0.9698 -0.4165 -2.1155
19485TIP3   OH279869   2.483   6.740   3.934 -0.0538 -0.2935  0.4702
19485TIP3    H179870   2.549   6.808   3.928 -2.1264  1.7005 -3.0626
19485TIP3    H279871   2.412   6.779   3.985 -0.5447 -0.4100 -0.1030
19486TIP3   OH279872   3.649   2.514   3.792 -1.0035  0.3095  0.0538
19486TIP3    H179873   3.678   2.603   3.813 -2.6361  0.7751  0.4405
19486TIP3    H279874   3.727   2.473   3.754 -0.0708  1.7359  0.3152
19487TIP3   OH279875   5.484   5.892  13.064 -0.8075 -0.0087 -0.5713
19487TIP3    H179876   5.555   5.922  13.008 -0.0097  1.3392  1.0662
19487TIP3    H279877   5.440   5.825  13.013  1.5219 -0.7668 -1.7520
19488TIP3   OH279878   1.448   4.001  11.324 -0.9263  0.1518  0.3479
19488TIP3    H179879   1.412   3.917  11.294 -3.1768 -0.0386  3.0968
19488TIP3    H279880   1.435   4.060  11.250 -0.4413 -1.5920 -1.2196
19489TIP3   OH279881   5.165   2.155  12.028  0.1431 -0.0126  0.0048
19489TIP3    H179882   5.167   2.236  12.078 -0.2702 -0.4557  0.7581
19489TIP3    H279883   5.078   2.119  12.044  0.2698 -0.5306 -0.4455
19490TIP3   OH279884   3.946   6.572  14.604 -0.7400  0.2746  0.3287
19490TIP3    H179885   4.033   6.568  14.643 -1.1972  1.7921  1.6301
19490TIP3    H279886   3.890   6.522  14.664 -0.5573 -2.0561 -1.3253
19491TIP3   OH279887   6.794   2.047  12.715 -0.2596  0.9005  0.1793
19491TIP3    H179888   6.851   2.080  12.645  0.7958 -2.0826 -0.5166
19491TIP3    H279889   6.849   1.986  12.764 -2.3845 -0.9228  0.4455
19492TIP3   OH279890   3.381   0.418  11.275  0.1743  0.5583  0.4459
19492TIP3    H179891   3.331   0.349  11.231 -0.2708  0.8892  0.4251
19492TIP3    H279892   3.321   0.492  11.281  0.7090  1.0198  0.2857
19493TIP3   OH279893   6.011   5.312   1.033  0.5439 -0.4610 -0.1986
19493TIP3    H179894   5.995   5.402   1.061 -0.4257 -0.7506  0.2190
19493TIP3    H279895   6.075   5.320   0.962  0.7577  0.5177  0.0880
19494TIP3   OH279896   0.459   6.008  15.061 -0.1771 -0.7894 -0.2939
19494TIP3    H179897   0.451   5.915  15.039  0.4803 -0.9716  0.2116
19494TIP3    H279898   0.549   6.030  15.039 -0.8801  0.2740 -2.3645
19495TIP3   OH279899   5.281   6.014  14.020 -0.4924  0.2347  0.1803
19495TIP3    H179900   5.366   5.970  14.023 -0.0733  1.0269  0.1242
19495TIP3    H279901   5.218   5.942  14.012  0.1508 -0.3756  0.3912
19496TIP3   OH279902   5.448   2.115  15.156  0.2583  0.8434 -0.0609
19496TIP3    H179903   5.479   2.190  15.207 -0.3755  0.4294  0.9705
19496TIP3    H279904   5.444   2.147  15.066 -1.5165  2.5801  0.5615
19497TIP3   OH279905   5.155   2.159  16.503 -0.1891 -0.5212 -0.1153
19497TIP3    H179906   5.105   2.137  16.424 -2.7632 -0.2590  1.3190
19497TIP3    H279907   5.111   2.111  16.573  1.4777 -0.0686  1.3121
19498TIP3   OH279908   1.375   2.612  11.144 -0.8445  0.1348 -0.0243
19498TIP3    H179909   1.342   2.605  11.234  2.0439 -0.4115  1.1296
19498TIP3    H279910   1.406   2.524  11.124  1.3949  0.9078 -0.2604
19499TIP3   OH279911   3.880   3.522   3.640  0.8638  0.1416  0.2748
19499TIP3    H179912   3.799   3.501   3.595  1.6219  0.0588 -1.1172
19499TIP3    H279913   3.883   3.462   3.714 -0.8671  0.9068  1.0243
19500TIP3   OH279914   5.774   0.715   0.288  0.3955 -0.1734  0.7822
19500TIP3    H179915   5.753   0.641   0.232  0.3396 -0.8767  1.7215
19500TIP3    H279916   5.767   0.681   0.377 -0.2828  1.1302  1.2491
19501TIP3   OH279917   2.893   6.516  12.340  0.5888 -0.6883  0.4522
19501TIP3    H179918   2.975   6.534  12.294  0.3391 -0.0738  0.2285
19501TIP3    H279919   2.874   6.599  12.385 -0.9774 -0.1153 -1.1717
19502TIP3   OH279920   5.169   5.335   3.113 -0.1878 -0.5635  0.4781
19502TIP3    H179921   5.252   5.299   3.082  1.1443  0.0584  3.0348
19502TIP3    H279922   5.124   5.260   3.152  0.7487 -0.3340  2.1046
19503TIP3   OH279923   3.978   4.861  11.495  0.5055 -0.3555  0.1751
19503TIP3    H179924   3.982   4.932  11.430  2.0653 -1.6552 -1.2456
19503TIP3    H279925   3.994   4.781  11.444 -1.4971 -1.8011  1.6704
19504TIP3   OH279926   0.506   5.201  11.937  0.1554  0.0293 -0.2221
19504TIP3    H179927   0.591   5.168  11.964  0.5196  1.0232 -0.1055
19504TIP3    H279928   0.514   5.213  11.842  0.6208  1.3915 -0.0343
19505TIP3   OH279929   0.177   4.455   5.370 -0.4863  0.0256 -0.4915
19505TIP3    H179930   0.147   4.438   5.280 -1.7581  0.7844 -0.2309
19505TIP3    H279931   0.102   4.496   5.413 -0.0216 -0.6804  1.0472
19506TIP3   OH279932   1.591   3.861  16.248 -0.1049 -0.0659  0.2206
19506TIP3    H179933   1.643   3.796  16.296  1.0544 -0.5794 -1.6380
19506TIP3    H279934   1.501   3.830  16.254 -0.0608  0.0854  2.3286
19507TIP3   OH279935   4.929   4.955   0.561  0.2962  0.1529  0.1581
19507TIP3    H179936   4.929   4.860   0.560 -0.9907  0.1233 -1.4447
19507TIP3    H279937   4.839   4.979   0.539  0.7815  1.7415 -0.2184
19508TIP3   OH279938   2.917   6.237  10.447  0.4489 -0.3013 -0.4482
19508TIP3    H179939   2.987   6.286  10.405 -1.2552  1.6850 -1.1754
19508TIP3    H279940   2.951   6.215  10.533  2.3038 -0.3067 -1.1377
19509TIP3   OH279941   1.599   0.354  12.965  0.2474 -0.0983 -0.4699
19509TIP3    H179942   1.576   0.439  13.003  0.8295 -0.1138 -0.0755
19509TIP3    H279943   1.578   0.291  13.034  0.5017 -0.2056 -0.4913
19510TIP3   OH279944   6.352   4.256   4.865 -0.4403  0.3093  0.4821
19510TIP3    H179945   6.442   4.266   4.896  0.7142 -1.6641 -1.8734
19510TIP3    H279946   6.315   4.187   4.922  0.5782 -0.9871 -0.3659
19511TIP3   OH279947   4.291   2.243   4.657  0.2428  0.3723  0.1106
19511TIP3    H179948   4.330   2.312   4.711 -1.2464  0.9124  0.5254
19511TIP3    H279949   4.200   2.239   4.684  0.4339 -2.3228  0.6692
19512TIP3   OH279950   0.160   6.389  17.051  0.2034 -0.3333  0.5347
19512TIP3    H179951   0.067   6.366  17.048 -0.3614  1.6578  1.0104
19512TIP3    H279952   0.183   6.406  16.959 -0.0738 -0.1945  0.4897
19513TIP3   OH279953   4.481   6.592  11.845 -0.1268  0.8207 -0.3474
19513TIP3    H179954   4.532   6.565  11.922  1.0730 -0.3486 -1.4803
19513TIP3    H279955   4.397   6.548  11.855  0.7009 -0.9206 -0.5963
19514TIP3   OH279956   4.812   3.423  16.435 -0.2913 -0.0688 -0.0422
19514TIP3    H179957   4.733   3.475  16.418 -0.7372 -0.7454 -0.0847
19514TIP3    H279958   4.847   3.403  16.348 -0.1576  0.0960 -0.0269
19515TIP3   OH279959   4.812   1.339  12.710  0.2106  0.2324 -0.1153
19515TIP3    H179960   4.767   1.325  12.794  0.4416  1.9479  0.3491
19515TIP3    H279961   4.905   1.335  12.732  0.3068  2.3726  0.1170
19516TIP3   OH279962   1.972   2.202  11.316  0.2788  0.0100 -0.2095
19516TIP3    H179963   2.054   2.193  11.364 -0.4619  0.2677  1.1544
19516TIP3    H279964   1.972   2.292  11.284  0.1595  0.2888  0.5419
19517TIP3   OH279965   5.579   5.009   5.931  0.4972  0.0831  0.7109
19517TIP3    H179966   5.585   4.915   5.945  0.7539  0.3885  3.1793
19517TIP3    H279967   5.617   5.047   6.010  0.4862  2.2667 -0.2687
19518TIP3   OH279968   3.689   6.186   0.105 -0.8748 -0.5134 -0.2868
19518TIP3    H179969   3.764   6.163   0.050 -1.0063  0.2767 -0.8248
19518TIP3    H279970   3.663   6.104   0.146 -0.4047 -1.0147 -0.9567
19519TIP3   OH279971   1.472   5.307   4.696 -0.5293 -0.4134  0.3690
19519TIP3    H179972   1.529   5.322   4.772 -0.8303 -0.9186  0.7024
19519TIP3    H279973   1.520   5.344   4.622  0.7422 -1.7783  0.4590
19520TIP3   OH279974   2.233   3.337  14.922 -0.0786  0.5702 -0.3526
19520TIP3    H179975   2.257   3.412  14.975  0.4787 -0.6226  1.1484
19520TIP3    H279976   2.201   3.272  14.984  0.9681 -1.0314 -1.3899
19521TIP3   OH279977   0.701   2.481  15.985  0.3576  0.3602 -0.0680
19521TIP3    H179978   0.625   2.506  15.932 -0.1126 -1.0626 -0.1050
19521TIP3    H279979   0.746   2.414  15.933  0.0229 -0.8937  1.1979
19522TIP3   OH279980   6.259   2.567   0.499 -0.1379  0.1699  0.1401
19522TIP3    H179981   6.177   2.546   0.453 -1.1498 -0.7052  2.1814
19522TIP3    H279982   6.276   2.658   0.477 -0.4075 -0.2521 -2.1071
19523TIP3   OH279983   4.731   1.080  11.504  0.2827  0.3550  0.5510
19523TIP3    H179984   4.761   1.034  11.582  0.4186 -0.2866  0.1248
19523TIP3    H279985   4.715   1.170  11.534 -0.8958 -0.1719  1.6076
19524TIP3   OH279986   4.219   4.203   1.031 -0.2676  0.4329 -0.2266
19524TIP3    H179987   4.162   4.129   1.011 -0.8199  1.0708 -1.0889
19524TIP3    H279988   4.159   4.275   1.051  0.2448  0.8432 -0.1512
19525TIP3   OH279989   3.834   5.691   0.663  0.0092 -0.1597 -0.4286
19525TIP3    H179990   3.817   5.625   0.730  2.3788  0.1265  0.5698
19525TIP3    H279991   3.926   5.714   0.675 -0.5955  3.0662 -0.9703
19526TIP3   OH279992   5.949   1.421   3.331  0.4596  0.0591 -0.1836
19526TIP3    H179993   5.857   1.432   3.305  0.7589 -0.2054 -1.4082
19526TIP3    H279994   5.954   1.331   3.363  0.3051  0.0599 -0.1558
19527TIP3   OH279995   1.335   3.903   3.691  0.1838  0.4211  0.1401
19527TIP3    H179996   1.305   3.895   3.600  1.9042  0.4279 -0.4629
19527TIP3    H279997   1.278   3.843   3.740 -0.9744  0.6506 -0.8811
19528TIP3   OH279998   1.835   3.348   5.076  0.6344  0.0137 -0.0277
19528TIP3    H179999   1.785   3.428   5.062  0.0487 -0.3101  0.1817
19528TIP3    H280000   1.843   3.308   4.990 -0.3768 -0.4603  0.0856
19529TIP3   OH280001   2.983   6.007  13.760  0.1821  0.6208  0.2272
19529TIP3    H180002   2.980   5.912  13.749  3.3167  0.2833  1.3393
19529TIP3    H280003   2.966   6.022  13.853 -2.3760  1.4197 -0.2838
19530TIP3   OH280004   5.955   1.964  11.681 -0.3577 -0.0891  0.0416
19530TIP3    H180005   5.947   1.875  11.648  2.4550 -0.1323 -0.8214
19530TIP3    H280006   5.924   2.020  11.610  0.9727 -0.3459 -0.7843
19531TIP3   OH280007   0.362   5.690  10.439  0.3948 -0.3169 -0.6843
19531TIP3    H180008   0.307   5.690  10.517 -0.2391  3.7592 -0.9187
19531TIP3    H280009   0.309   5.734  10.373  2.4115 -0.0060 -2.1823
19532TIP3   OH280010   3.988   4.379  10.709 -0.4595 -0.2055 -0.3176
19532TIP3    H180011   3.962   4.457  10.660  0.3443 -1.2207 -2.4795
19532TIP3    H280012   3.956   4.306  10.657 -0.4592 -1.3573  1.2250
19533TIP3   OH280013   2.820   1.843   5.178  0.2033 -0.0866 -0.4149
19533TIP3    H180014   2.787   1.877   5.095 -0.8065 -1.3345 -0.5670
19533TIP3    H280015   2.908   1.813   5.158 -0.3113 -1.1194 -1.2912
19534TIP3   OH280016   3.445   2.302  14.136  0.1602  0.7430 -0.2953
19534TIP3    H180017   3.355   2.335  14.132 -0.9604 -2.1198 -1.5630
19534TIP3    H280018   3.468   2.285  14.044  0.7497 -1.4497  0.1937
19535TIP3   OH280019   6.047   0.185   0.663 -0.4558 -0.2136 -1.1547
19535TIP3    H180020   6.063   0.211   0.754  1.1873 -1.7202 -0.9652
19535TIP3    H280021   5.961   0.143   0.666  0.2790 -1.7303  0.0766
19536TIP3   OH280022   3.453   1.062   0.005 -0.2331  0.0149 -0.4922
19536TIP3    H180023   3.398   1.076   0.081  1.0508  0.5754  0.3699
19536TIP3    H280024   3.542   1.083   0.035  0.2243  0.9244 -2.3190
19537TIP3   OH280025   3.891   4.391   4.226  0.1744  0.1432  0.1693
19537TIP3    H180026   3.910   4.455   4.293  0.3423  1.2156 -0.8730
19537TIP3    H280027   3.800   4.407   4.202 -0.1152 -0.7231  0.6447
19538TIP3   OH280028   5.083   1.830  13.281 -0.1871 -0.7726  0.6354
19538TIP3    H180029   5.044   1.886  13.214  2.1446  1.5425  1.0366
19538TIP3    H280030   5.009   1.800  13.334 -2.0464 -2.2038 -2.5113
19539TIP3   OH280031   3.636   3.684  15.856 -0.6468  0.4836  0.2546
19539TIP3    H180032   3.674   3.770  15.838 -1.1423  0.8407  0.8923
19539TIP3    H280033   3.699   3.641  15.914 -1.5711  1.3967  2.0005
19540TIP3   OH280034   5.028   4.752   4.210 -0.0276  0.2653  0.6280
19540TIP3    H180035   5.026   4.704   4.293  0.8268 -2.1231 -0.6179
19540TIP3    H280036   5.119   4.777   4.198  0.1480 -0.6498 -0.1759
19541TIP3   OH280037   1.098   4.527  13.727  0.5317 -0.0553  0.0594
19541TIP3    H180038   1.106   4.432  13.732 -0.0189 -0.0785  0.7884
19541TIP3    H280039   1.102   4.556  13.819 -1.5878  0.3962  0.0765
19542TIP3   OH280040   6.415   0.857   0.175 -0.5897 -0.3427  0.2201
19542TIP3    H180041   6.358   0.921   0.218 -0.2059  0.0206  0.1994
19542TIP3    H280042   6.430   0.790   0.242  0.1660  0.3198  0.7318
19543TIP3   OH280043   0.203   6.652   0.920  0.4091  0.2519 -0.1953
19543TIP3    H180044   0.179   6.719   0.857  0.5577 -0.3732 -0.9288
19543TIP3    H280045   0.261   6.593   0.873 -1.1085 -1.3963 -0.1478
19544TIP3   OH280046   4.541   3.884  11.578  0.7457 -0.0526 -0.0960
19544TIP3    H180047   4.605   3.812  11.576  0.0874 -0.6503  0.1682
19544TIP3    H280048   4.498   3.876  11.663  0.7277  0.7169 -0.0255
19545TIP3   OH280049   1.487   2.602  14.036  0.0703  0.1241  0.0568
19545TIP3    H180050   1.548   2.530  14.049  0.5809  0.1486 -1.8442
19545TIP3    H280051   1.479   2.610  13.941 -0.4999  2.1283  0.2093
19546TIP3   OH280052   2.808   1.422   5.305  0.6269  0.3483  0.4267
19546TIP3    H180053   2.837   1.369   5.380  0.2958 -1.0774 -0.4122
19546TIP3    H280054   2.728   1.465   5.336  0.2928 -0.5098  0.7948
19547TIP3   OH280055   0.954   2.881  13.678  0.4907  0.8884  0.7063
19547TIP3    H180056   0.917   2.795  13.696  1.8039  0.1350 -0.0384
19547TIP3    H280057   0.900   2.916  13.607 -0.5489  1.0513  1.5507
19548TIP3   OH280058   2.543   6.744   2.247  0.3844 -0.1284 -0.1750
19548TIP3    H180059   2.614   6.681   2.243  0.2180 -0.3635  0.4609
19548TIP3    H280060   2.584   6.829   2.231  0.8264 -0.2499  0.3059
19549TIP3   OH280061   6.195   3.447   5.137 -0.2296 -0.7239  0.0240
19549TIP3    H180062   6.278   3.495   5.145  0.1872 -1.0678 -1.7374
19549TIP3    H280063   6.216   3.359   5.167 -0.4073 -0.4007  1.1339
19550TIP3   OH280064   0.407   3.970  15.412 -0.0652 -0.2116  0.1817
19550TIP3    H180065   0.397   3.959  15.507  1.1919  2.7999  0.7832
19550TIP3    H280066   0.320   3.998  15.382  0.0868  1.1881  0.9321
19551TIP3   OH280067   1.280   0.575  15.582 -0.2114  0.3906  0.3674
19551TIP3    H180068   1.358   0.614  15.544 -1.3770  3.1878  0.5409
19551TIP3    H280069   1.243   0.521  15.512  1.0562  0.2405 -0.2123
19552TIP3   OH280070   3.702   1.166   2.594  0.2619 -0.0743  0.5597
19552TIP3    H180071   3.780   1.222   2.589 -0.0491  0.4556  1.3750
19552TIP3    H280072   3.667   1.182   2.682  0.5139 -2.0322  1.0654
19553TIP3   OH280073   3.952   1.564   5.495 -0.0104  0.2190  0.2350
19553TIP3    H180074   3.890   1.518   5.439 -1.3770  0.0536  1.8262
19553TIP3    H280075   3.924   1.656   5.491 -1.1509 -0.0091  1.8416
19554TIP3   OH280076   1.941   4.789   4.055 -0.0836 -0.2839  0.1547
19554TIP3    H180077   1.922   4.855   3.988  1.5387  0.7366  0.6461
19554TIP3    H280078   1.939   4.706   4.008  1.1178  0.4153 -1.2138
19555TIP3   OH280079   1.785   0.786   1.279  0.0433  0.2164  0.2025
19555TIP3    H180080   1.848   0.840   1.326 -0.4810  0.4958  0.6040
19555TIP3    H280081   1.807   0.798   1.186  1.0121 -0.2550  0.3665
19556TIP3   OH280082   2.189   6.573  12.947  1.1177 -0.1738  0.0909
19556TIP3    H180083   2.185   6.564  13.042  1.3114 -1.0714  0.0291
19556TIP3    H280084   2.279   6.601  12.930  1.4673 -1.2425  0.1045
19557TIP3   OH280085   0.247   1.137  16.066  0.0376 -0.3030 -0.3920
19557TIP3    H180086   0.204   1.196  16.004 -1.0233  1.5125  1.9322
19557TIP3    H280087   0.217   1.049  16.040  0.3011  0.2884 -2.9001
19558TIP3   OH280088   3.307   4.263   4.355  0.3223  1.0026  0.2170
19558TIP3    H180089   3.249   4.199   4.314  0.4151  0.1098  1.4252
19558TIP3    H280090   3.392   4.219   4.359  0.2174  0.8931  1.7184
19559TIP3   OH280091   3.326   0.969  15.338 -0.0049  0.3865 -0.4189
19559TIP3    H180092   3.350   1.024  15.263  0.1042  0.6803 -0.1731
19559TIP3    H280093   3.293   0.888  15.299 -2.5191  1.5473 -0.8847
19560TIP3   OH280094   5.926   3.755   3.280 -0.5625 -0.1529 -0.3525
19560TIP3    H180095   5.844   3.790   3.314 -0.6125 -0.2350 -0.3918
19560TIP3    H280096   5.957   3.823   3.219  1.6401  2.0783  2.9132
19561TIP3   OH280097   4.342   4.920   5.436 -0.8922  0.2190  0.0018
19561TIP3    H180098   4.436   4.937   5.435 -0.8807  0.2744  0.8660
19561TIP3    H280099   4.312   4.944   5.348 -0.0781  0.0490 -0.3327
19562TIP3   OH280100   5.614   6.362   5.630 -0.0169  0.2029  0.0081
19562TIP3    H180101   5.623   6.267   5.632  2.7097  0.3658 -0.5625
19562TIP3    H280102   5.682   6.394   5.689  0.4455  1.8071 -1.2986
19563TIP3   OH280103   2.654   5.588  16.128 -0.0884  0.0032 -0.3015
19563TIP3    H180104   2.576   5.615  16.081  0.3508 -2.6766 -2.8801
19563TIP3    H280105   2.621   5.557  16.213 -2.1249 -2.3775 -1.8302
19564TIP3   OH280106   5.889   6.697  13.791  0.7137 -0.0459 -0.2200
19564TIP3    H180107   5.800   6.699  13.756  0.8835  0.1501 -0.6381
19564TIP3    H280108   5.917   6.606  13.782  0.1758 -0.3365  0.8733
19565TIP3   OH280109   2.436   5.010  16.135  0.2411  0.7033  0.3249
19565TIP3    H180110   2.527   4.983  16.125 -0.4528 -1.6110 -0.3071
19565TIP3    H280111   2.385   4.937  16.101 -1.9093  1.4194  1.7890
19566TIP3   OH280112   2.261   5.606   6.227 -0.1285 -0.6089  0.2858
19566TIP3    H180113   2.173   5.644   6.228 -0.2685 -0.8851 -0.7324
19566TIP3    H280114   2.254   5.529   6.171  1.3511  0.8387 -2.0320
19567TIP3   OH280115   0.076   2.059  13.854 -0.0178 -0.3506  0.4316
19567TIP3    H180116   0.114   2.096  13.774 -2.0467  0.0040 -0.4173
19567TIP3    H280117   0.030   1.981  13.824  0.2490 -0.9263  1.4808
19568TIP3   OH280118   2.467   0.861   0.265  0.6119 -0.3192  0.3158
19568TIP3    H180119   2.558   0.838   0.281  0.1891 -0.9034  2.0350
19568TIP3    H280120   2.420   0.779   0.272 -0.1789  0.1401  0.4908
19569TIP3   OH280121   6.736   2.602  12.879  0.7791  0.5113 -0.1356
19569TIP3    H180122   6.667   2.536  12.887  1.6295 -0.4795 -0.6847
19569TIP3    H280123   6.721   2.662  12.953 -0.8823  0.5502 -0.4664
19570TIP3   OH280124   1.380   0.056   0.885  0.6579 -0.1690  0.3032
19570TIP3    H180125   1.302   0.030   0.837  1.0929 -1.6692  0.3570
19570TIP3    H280126   1.391   0.149   0.864  0.0143 -0.4290 -1.3341
19571TIP3   OH280127   1.116   2.466  16.861  0.5372  0.9226 -0.8416
19571TIP3    H180128   1.161   2.540  16.902 -0.4578  0.4432  1.2602
19571TIP3    H280129   1.160   2.389  16.895 -0.7056  0.4953 -0.1284
19572TIP3   OH280130   6.162   4.924   4.697  0.1061  0.3107 -0.0205
19572TIP3    H180131   6.234   4.862   4.707 -0.9785 -1.3645 -1.9183
19572TIP3    H280132   6.199   4.994   4.642  0.8111  0.4259  0.5887
19573TIP3   OH280133   0.857   3.472  11.867 -0.1565  0.0090 -0.4775
19573TIP3    H180134   0.946   3.505  11.874  0.1943 -0.5975 -1.7812
19573TIP3    H280135   0.844   3.419  11.946  0.9873 -0.6721 -0.7201
19574TIP3   OH280136   4.667   0.055  13.103 -0.0825  0.1029 -0.0535
19574TIP3    H180137   4.690   0.105  13.182  0.4532 -0.5303  0.1926
19574TIP3    H280138   4.632   0.121  13.043  1.4207  0.9250 -0.0568
19575TIP3   OH280139   2.760   0.173  12.241 -0.1053 -0.3534  0.1926
19575TIP3    H180140   2.709   0.184  12.160  0.2087  1.0882  0.1570
19575TIP3    H280141   2.851   0.164  12.211 -0.1116 -0.9594  0.3433
19576TIP3   OH280142   1.985   1.804   5.987 -0.4675 -0.0538  0.2716
19576TIP3    H180143   1.982   1.899   5.972 -0.7488 -0.2691 -1.1524
19576TIP3    H280144   1.940   1.792   6.071 -3.5963  0.7926 -1.1463
19577TIP3   OH280145   0.766   4.131   5.926 -0.3344  0.5487  0.5921
19577TIP3    H180146   0.743   4.092   5.841  1.2580  2.9274 -1.0641
19577TIP3    H280147   0.744   4.063   5.990 -0.8302 -1.6917 -1.7604
19578TIP3   OH280148   4.668   4.873   2.058 -0.5284  0.0308  0.4041
19578TIP3    H180149   4.606   4.945   2.066  0.5669  1.2008 -1.0906
19578TIP3    H280150   4.700   4.860   2.148 -0.2324  1.9091  0.6153
19579TIP3   OH280151   0.377   1.455   4.903 -0.0508  0.0372  0.1294
19579TIP3    H180152   0.377   1.464   4.998  1.1333  1.2138  0.0562
19579TIP3    H280153   0.467   1.429   4.882 -0.1812  0.2359 -0.7030
19580TIP3   OH280154   6.283   4.110   1.906  0.6397  1.0055  0.0458
19580TIP3    H180155   6.366   4.070   1.880 -0.0598  0.0628 -0.8247
19580TIP3    H280156   6.270   4.180   1.842  0.7624  1.1360  0.1653
19581TIP3   OH280157   2.331   5.410  13.553  0.0476  0.2239 -0.2754
19581TIP3    H180158   2.415   5.399  13.597 -0.4894  1.1232  1.0412
19581TIP3    H280159   2.345   5.376  13.465  1.3826 -0.9476  0.3493
19582TIP3   OH280160   4.253   1.889   4.259 -0.3674  0.4689  0.2927
19582TIP3    H180161   4.158   1.886   4.260 -0.3654  0.3301  0.7374
19582TIP3    H280162   4.279   1.835   4.184 -0.6293 -0.2131  0.6747
19583TIP3   OH280163   3.963   6.712   2.912  0.6381  0.0712 -0.7690
19583TIP3    H180164   3.992   6.624   2.935  0.3710  0.2521  0.3225
19583TIP3    H280165   3.962   6.760   2.995 -1.7699  0.3529 -0.8720
19584TIP3   OH280166   5.906   0.387  14.534  0.5279 -0.2258 -0.0199
19584TIP3    H180167   5.921   0.441  14.611  2.0490  0.6692 -0.8873
19584TIP3    H280168   5.848   0.439  14.479  0.7558 -0.1486 -0.1873
19585TIP3   OH280169   0.695   0.129  16.571 -0.2807 -0.4094 -0.0166
19585TIP3    H180170   0.642   0.208  16.584 -1.4917 -1.3901  1.2793
19585TIP3    H280171   0.751   0.150  16.496  0.2013  2.0643  0.9369
19586TIP3   OH280172   1.704   4.074  14.557 -0.2835 -0.0612  0.0077
19586TIP3    H180173   1.695   4.032  14.643  3.2533  0.1317  0.6078
19586TIP3    H280174   1.714   4.001  14.496 -1.0830 -0.1581 -0.0242
19587TIP3   OH280175   0.745   1.895  15.270 -0.2630 -0.3462 -0.1716
19587TIP3    H180176   0.784   1.848  15.196  1.1621 -1.6864  1.3770
19587TIP3    H280177   0.741   1.830  15.340 -0.4549  1.2248  1.3166
19588TIP3   OH280178   3.034   1.312   4.212  0.5987  0.3645  0.1606
19588TIP3    H180179   3.127   1.294   4.200  0.7869  0.5694  1.2442
19588TIP3    H280180   3.000   1.236   4.258  0.0483 -0.0748 -0.9374
19589TIP3   OH280181   2.380   5.632   5.174 -0.3686 -0.2455  0.1126
19589TIP3    H180182   2.364   5.659   5.084 -0.7780 -0.2049  0.1941
19589TIP3    H280183   2.405   5.540   5.168  0.3128 -0.0484 -0.1031
19590TIP3   OH280184   3.561   5.944  15.845  0.2166  0.3674  0.1479
19590TIP3    H180185   3.642   5.975  15.886 -0.1149  1.4162  0.0372
19590TIP3    H280186   3.493   5.961  15.911  0.2917 -2.1348  0.9709
19591TIP3   OH280187   4.376   1.152   6.327  0.1218  0.8489 -0.1729
19591TIP3    H180188   4.448   1.215   6.326 -0.3446  1.4813  1.4353
19591TIP3    H280189   4.348   1.150   6.419 -1.3969  0.0377 -0.6176
19592TIP3   OH280190   2.809   3.567  11.352 -0.4637 -0.4099 -0.1338
19592TIP3    H180191   2.841   3.657  11.341 -1.6665  0.0342 -0.1525
19592TIP3    H280192   2.790   3.538  11.262 -0.7538 -0.4152 -0.0723
19593TIP3   OH280193   6.001   6.636   1.339 -0.1128 -0.0391  0.6219
19593TIP3    H180194   5.908   6.614   1.343 -0.2516  0.4980  0.4363
19593TIP3    H280195   6.006   6.724   1.376  0.5414 -0.6854  2.1543
19594TIP3   OH280196   5.922   0.653  12.227  0.0230 -0.3578 -0.3287
19594TIP3    H180197   5.937   0.609  12.144 -0.9275  1.4320 -1.4976
19594TIP3    H280198   5.831   0.631  12.250  0.0959 -0.3782 -0.0484
19595TIP3   OH280199   0.116   0.009  11.161  0.3099 -0.0467  0.5879
19595TIP3    H180200   0.158  -0.054  11.219  0.5518  0.9434  1.5207
19595TIP3    H280201   0.065  -0.044  11.101  1.6146 -1.2093  0.4441
19596TIP3   OH280202   2.530   1.438  12.086  0.0938  0.3545  0.0466
19596TIP3    H180203   2.521   1.375  12.158 -0.3940  1.2792  0.8078
19596TIP3    H280204   2.444   1.438  12.044  0.1970  0.2656 -0.1660
19597TIP3   OH280205   0.762   4.156   5.208 -0.5038  0.1334  0.4383
19597TIP3    H180206   0.748   4.075   5.257  0.3514 -0.9361 -0.9811
19597TIP3    H280207   0.676   4.176   5.170 -1.2600  1.1664  2.5536
19598TIP3   OH280208   5.691   0.353  16.567  0.2721 -0.8757 -0.9627
19598TIP3    H180209   5.637   0.421  16.609 -0.3682 -0.2228 -2.7332
19598TIP3    H280210   5.736   0.311  16.639  1.0720  1.7613  0.2172
19599TIP3   OH280211   5.256   1.533  14.719 -0.0200  0.1529  0.0538
19599TIP3    H180212   5.256   1.626  14.741 -1.8533  0.7126 -1.9264
19599TIP3    H280213   5.266   1.488  14.803  2.6102  2.0873  0.8898
19600TIP3   OH280214   4.320   3.994  16.266  0.1163 -0.2148 -0.6472
19600TIP3    H180215   4.312   4.064  16.331 -1.2080  1.0850 -2.1296
19600TIP3    H280216   4.415   3.983  16.255  0.3582  0.3811  0.5857
19601TIP3   OH280217   3.801   4.384  15.924 -0.3412  0.5165  0.3852
19601TIP3    H180218   3.731   4.447  15.906 -1.1453 -0.1655  1.0429
19601TIP3    H280219   3.799   4.372  16.019 -0.2479 -0.5445  0.2699
19602TIP3   OH280220   0.913   4.856   2.905 -0.4928 -0.0629  0.2741
19602TIP3    H180221   0.864   4.920   2.958 -2.3191  0.0411 -1.3905
19602TIP3    H280222   0.933   4.904   2.824  0.8275 -0.6968  0.2067
19603TIP3   OH280223   4.765   5.153   1.881  0.3899 -0.3143  0.1692
19603TIP3    H180224   4.672   5.135   1.887  0.5036 -0.6799  1.1162
19603TIP3    H280225   4.800   5.125   1.966  1.2340  0.5446  0.1269
19604TIP3   OH280226   3.251   5.129  12.324  0.1604  0.2517 -0.1628
19604TIP3    H180227   3.308   5.186  12.272  1.6942 -1.5977 -0.6271
19604TIP3    H280228   3.274   5.148  12.414  0.5432  0.5087 -0.3095
19605TIP3   OH280229   0.410   0.182   5.481  0.4123  0.8534  0.6214
19605TIP3    H180230   0.445   0.135   5.406  0.0834 -0.4925  1.2795
19605TIP3    H280231   0.461   0.264   5.484  1.0038  0.5483 -0.5432
19606TIP3   OH280232   1.287   3.650  15.930 -0.2562  0.2430 -0.5329
19606TIP3    H180233   1.232   3.728  15.939 -0.3449  0.0663  0.7374
19606TIP3    H280234   1.226   3.581  15.906 -0.7953 -0.1286  1.6804
19607TIP3   OH280235   3.371   6.374  11.525 -0.2920  0.0537 -0.1213
19607TIP3    H180236   3.350   6.401  11.614 -0.2119  0.4441 -0.2199
19607TIP3    H280237   3.292   6.328  11.495 -0.6560  0.6809 -0.1511
19608TIP3   OH280238   5.788   1.424  14.471 -0.4318  0.5949  0.3945
19608TIP3    H180239   5.796   1.519  14.460  1.6839  0.5668  1.1385
19608TIP3    H280240   5.875   1.396  14.500 -0.6327 -1.7551 -1.0267
19609TIP3   OH280241   0.448   1.693   5.714 -0.0746  0.2463 -0.8826
19609TIP3    H180242   0.533   1.711   5.674 -0.1762  4.3545  0.2886
19609TIP3    H280243   0.385   1.713   5.646 -0.2975 -2.9193 -1.7912
19610TIP3   OH280244   3.722   2.327  14.589 -0.0418 -0.1787  0.1325
19610TIP3    H180245   3.638   2.281  14.591 -1.1920  1.6925 -1.2229
19610TIP3    H280246   3.702   2.411  14.547  2.3830  0.6332  0.4361
19611TIP3   OH280247   2.242   4.808  16.027  0.0981 -0.3379 -0.4039
19611TIP3    H180248   2.168   4.855  16.066  1.4836 -0.8209  3.2029
19611TIP3    H280249   2.207   4.721  16.006 -0.7271 -0.0413 -0.2704
19612TIP3   OH280250   3.061   5.950   3.589  1.1207 -0.5094 -1.1112
19612TIP3    H180251   3.010   5.957   3.669  1.8481  0.2252 -0.7003
19612TIP3    H280252   3.151   5.942   3.619  1.3373 -0.8939 -1.8458
19613TIP3   OH280253   1.751   2.525   3.013  0.1055 -0.1028 -0.1180
19613TIP3    H180254   1.821   2.493   3.069 -0.3909  1.3555  1.4044
19613TIP3    H280255   1.789   2.599   2.966  0.0278 -0.2884 -0.4818
19614TIP3   OH280256   0.167   0.287   6.276 -0.0499 -0.6178 -0.8134
19614TIP3    H180257   0.147   0.198   6.248  0.5210 -1.2102  0.5700
19614TIP3    H280258   0.258   0.283   6.306 -0.6544 -0.1276  1.2799
19615TIP3   OH280259   2.184   2.811  16.807  0.2512  0.2679  0.0593
19615TIP3    H180260   2.130   2.816  16.728 -0.4669 -0.7649  0.4617
19615TIP3    H280261   2.268   2.776  16.777 -0.2235 -0.7190 -0.1742
19616TIP3   OH280262   2.304   1.033  16.539 -0.1497  0.4130 -0.4965
19616TIP3    H180263   2.326   1.082  16.618  1.5997 -1.5460  0.3251
19616TIP3    H280264   2.350   1.079  16.469  0.7747  0.4486  0.1137
19617TIP3   OH280265   5.889   6.210  13.892 -0.4762  0.3366  0.0349
19617TIP3    H180266   5.808   6.187  13.847  1.0757 -1.2880 -2.2236
19617TIP3    H280267   5.924   6.126  13.922  0.4971  0.9545  0.6971
19618TIP3   OH280268   4.979   0.941   3.223  0.4770  0.1092 -0.3798
19618TIP3    H180269   4.906   0.919   3.280  0.4614 -0.1811 -0.5081
19618TIP3    H280270   4.981   1.037   3.221  1.2713  0.1465  1.1300
19619TIP3   OH280271   6.364   3.699  15.702 -0.2371 -0.0822  0.1043
19619TIP3    H180272   6.386   3.619  15.749 -0.7262  0.8489  2.0142
19619TIP3    H280273   6.447   3.747  15.696 -0.4861  0.6522  1.8142
19620TIP3   OH280274   6.380   3.055   4.830 -0.0810  0.7711 -0.2240
19620TIP3    H180275   6.339   3.122   4.776 -1.0234  0.6417  0.2999
19620TIP3    H280276   6.307   3.013   4.875  0.5637 -0.0581  0.0844
19621TIP3   OH280277   5.342   3.002  16.506  0.0699 -0.1732 -0.1787
19621TIP3    H180278   5.436   2.994  16.492 -0.0566  0.0146 -1.2200
19621TIP3    H280279   5.320   2.932  16.568  0.8517 -0.3462 -0.0888
19622TIP3   OH280280   6.798   0.650  16.052  0.3867  0.5730 -0.4890
19622TIP3    H180281   6.725   0.687  16.101  1.3094  1.3635  0.3293
19622TIP3    H280282   6.764   0.568  16.017 -1.0128  1.1235 -0.4671
19623TIP3   OH280283   6.696   5.112  16.630  0.2421  0.1649  0.2500
19623TIP3    H180284   6.783   5.084  16.602  1.0865  0.2851  2.5011
19623TIP3    H280285   6.637   5.079  16.563  1.8936 -1.1385 -0.6333
19624TIP3   OH280286   6.343   4.913  11.255 -0.2500  0.3437  0.6262
19624TIP3    H180287   6.261   4.864  11.257 -0.4512  0.0160 -4.0562
19624TIP3    H280288   6.410   4.847  11.240  0.4313  0.9067  1.1400
19625TIP3   OH280289   1.169   1.492   3.166  0.1428  0.4368  0.4386
19625TIP3    H180290   1.086   1.447   3.149 -0.3054  1.7949 -1.1846
19625TIP3    H280291   1.148   1.558   3.232 -0.8088  2.5901 -1.8461
19626TIP3   OH280292   4.371   6.661  16.835  0.7613 -0.0153 -0.0262
19626TIP3    H180293   4.433   6.588  16.835 -1.0076 -1.6018 -0.8573
19626TIP3    H280294   4.391   6.709  16.915  3.5331  0.0214 -0.6348
19627TIP3   OH280295   4.363   0.081  13.698 -0.4255 -1.1080  0.2098
19627TIP3    H180296   4.352   0.032  13.780  2.1352 -2.0265  0.0841
19627TIP3    H280297   4.407   0.161  13.725 -0.3551 -1.0170 -0.1810
19628TIP3   OH280298   5.997   2.830   5.672 -0.8083  0.6750 -0.0620
19628TIP3    H180299   5.966   2.840   5.582 -1.6718 -0.2719  0.1113
19628TIP3    H280300   6.061   2.900   5.684 -0.3049  0.5032 -1.5756
19629TIP3   OH280301   2.778   0.117   4.666  0.0317  0.4631 -0.1958
19629TIP3    H180302   2.853   0.057   4.669  1.3134  2.0316  0.1861
19629TIP3    H280303   2.769   0.148   4.756 -1.1072  0.2896 -0.2360
19630TIP3   OH280304   1.995   3.612  15.629  0.0986 -0.1015  0.1704
19630TIP3    H180305   2.048   3.532  15.627 -0.1585 -0.2692 -0.0505
19630TIP3    H280306   1.912   3.585  15.666  1.0034  0.7009  3.0434
19631TIP3   OH280307   3.094   2.762  14.135 -0.2156 -1.0886  0.4785
19631TIP3    H180308   3.083   2.710  14.055  1.0687  1.6836 -1.6613
19631TIP3    H280309   3.138   2.703  14.196  2.0383 -2.3280 -2.1257
19632TIP3   OH280310   1.139   3.667   0.535  0.9333  0.2600 -0.3939
19632TIP3    H180311   1.184   3.737   0.487 -2.3634  1.8490 -1.5001
19632TIP3    H280312   1.136   3.699   0.625  0.7704  0.8373 -0.5980
19633TIP3   OH280313   1.519   6.734  13.289  0.6248 -0.2333 -0.4492
19633TIP3    H180314   1.467   6.730  13.209  0.7596 -1.2631 -0.5024
19633TIP3    H280315   1.571   6.653  13.288 -0.7778 -1.2388  1.6136
19634TIP3   OH280316   1.562   4.288  11.198  0.2366  0.3631  0.4034
19634TIP3    H180317   1.634   4.339  11.161 -0.6952  1.2844 -0.2153
19634TIP3    H280318   1.598   4.251  11.279  1.7652 -0.2321 -0.5182
19635TIP3   OH280319   1.340   4.441   4.951 -0.3075  0.0232 -0.2408
19635TIP3    H180320   1.318   4.534   4.961 -0.4293 -0.0388  0.0484
19635TIP3    H280321   1.394   4.420   5.027 -1.2868 -0.4563  0.3324
19636TIP3   OH280322   0.821   6.784  16.764 -0.0957  0.0327 -0.4808
19636TIP3    H180323   0.784   6.854  16.710 -0.7662  0.4281  0.4755
19636TIP3    H280324   0.757   6.713  16.757 -0.0734  0.0035 -0.3765
19637TIP3   OH280325   1.660   3.062  15.897 -0.0785  0.6454 -0.6691
19637TIP3    H180326   1.703   2.978  15.916  1.1522  1.2560 -0.6445
19637TIP3    H280327   1.604   3.044  15.822  1.0651  0.0509 -1.4205
19638TIP3   OH280328   2.107   3.261  13.950 -0.6757  0.1726 -0.1588
19638TIP3    H180329   2.103   3.299  14.038 -2.3362 -0.4375  0.0641
19638TIP3    H280330   2.051   3.183  13.955 -1.4353  0.5663 -1.9733
19639TIP3   OH280331   0.276   5.574  14.520 -0.1967  0.0934  0.3397
19639TIP3    H180332   0.242   5.659  14.491 -0.3161 -0.0760 -0.0248
19639TIP3    H280333   0.356   5.562  14.469  1.7835  1.5660  2.8379
19640TIP3   OH280334   1.391   4.829   3.696  0.1273  0.7294  0.3027
19640TIP3    H180335   1.323   4.894   3.676 -2.3792 -1.5073  0.9079
19640TIP3    H280336   1.450   4.832   3.621  0.3374  3.8456  0.4542
19641TIP3   OH280337   1.635   0.310   0.440 -0.4109  0.2862 -0.2517
19641TIP3    H180338   1.659   0.322   0.348 -1.2533  1.3489 -0.3570
19641TIP3    H280339   1.570   0.240   0.439  0.6531 -0.7223 -0.2787
19642TIP3   OH280340   3.448   2.339   0.354  0.1852 -0.6688 -0.7804
19642TIP3    H180341   3.365   2.299   0.326 -0.7552 -0.1451  1.0442
19642TIP3    H280342   3.457   2.417   0.300 -0.6716 -0.5923 -0.8353
19643TIP3   OH280343   5.347   6.768  14.948  0.4636 -0.0670 -0.0526
19643TIP3    H180344   5.293   6.722  15.013 -0.2915 -0.6784 -1.0823
19643TIP3    H280345   5.285   6.792  14.879  1.2924  0.3909 -0.6454
19644TIP3   OH280346   6.045   0.504   3.457  0.8434 -0.3937  0.1994
19644TIP3    H180347   6.007   0.590   3.440 -1.0236 -1.0782  0.6984
19644TIP3    H280348   6.060   0.467   3.370  0.7732  0.0520 -0.0061
19645TIP3   OH280349   5.062   5.407   1.307  0.4144 -0.8744  0.0484
19645TIP3    H180350   5.043   5.376   1.218 -1.1380  0.8531 -0.2982
19645TIP3    H280351   5.000   5.360   1.362 -0.4958 -0.0026 -0.1932
19646TIP3   OH280352   1.245   5.453   4.464 -0.3257  0.2036  0.1905
19646TIP3    H180353   1.211   5.482   4.379  2.1402 -0.7190 -1.2255
19646TIP3    H280354   1.247   5.358   4.457  1.7784  0.1998  0.4749
19647TIP3   OH280355   6.032   1.627   5.288 -0.3565  0.3956  0.5879
19647TIP3    H180356   6.111   1.682   5.279 -0.6609  0.8217  0.4816
19647TIP3    H280357   6.013   1.629   5.382 -0.4052  0.5247  0.5752
19648TIP3   OH280358   3.644   0.485  15.374  0.2326 -0.1416 -0.1518
19648TIP3    H180359   3.553   0.511  15.359  0.0857 -0.3119  0.4164
19648TIP3    H280360   3.658   0.500  15.468  0.3561 -1.4125  0.0541
19649TIP3   OH280361   3.968   2.195  16.563  0.4179 -0.2490  0.5923
19649TIP3    H180362   4.027   2.149  16.505  0.7019  2.2442 -1.2700
19649TIP3    H280363   4.020   2.268  16.597 -1.1205  1.1173  0.1143
19650TIP3   OH280364   5.047   4.958   4.683  0.5102  0.0260 -0.2197
19650TIP3    H180365   5.060   4.908   4.603  2.6504 -0.4299  0.3213
19650TIP3    H280366   5.094   4.908   4.750 -1.9149 -0.0676  1.5412
19651TIP3   OH280367   4.378   0.846   1.421 -0.0808 -0.4924  0.0677
19651TIP3    H180368   4.410   0.912   1.482 -1.6591 -0.3092  0.7426
19651TIP3    H280369   4.451   0.784   1.411  1.2206  1.0072 -0.1302
19652TIP3   OH280370   0.615   3.538  13.597  0.3892  0.2154  0.2349
19652TIP3    H180371   0.606   3.568  13.687  0.9352 -1.8803  1.0559
19652TIP3    H280372   0.709   3.542  13.580  0.4097 -0.3857  0.1625
19653TIP3   OH280373   0.255   3.435   5.977  0.3954 -0.0722  0.3651
19653TIP3    H180374   0.165   3.441   5.945  0.5692  0.0159 -0.1046
19653TIP3    H280375   0.246   3.401   6.067  0.0408 -2.9767 -0.6583
19654TIP3   OH280376   2.864   4.673   4.887 -0.8782 -0.2360 -0.1029
19654TIP3    H180377   2.893   4.740   4.949  0.1336  0.8682 -1.6642
19654TIP3    H280378   2.886   4.590   4.928 -0.0773  0.4677  0.9434
19655TIP3   OH280379   3.733   2.200   1.051 -0.0648  0.0324  0.0002
19655TIP3    H180380   3.804   2.136   1.046  0.6803  0.8081  0.5751
19655TIP3    H280381   3.721   2.215   1.145  0.0469  1.0517 -0.1456
19656TIP3   OH280382   1.414   6.428  15.036  0.2107 -0.5744 -0.5034
19656TIP3    H180383   1.406   6.502  14.976 -0.3994  1.8340  2.2925
19656TIP3    H280384   1.328   6.386  15.034 -1.0664  1.7091  1.1846
19657TIP3   OH280385   0.398   0.485  12.745 -0.2233 -0.4170 -0.6909
19657TIP3    H180386   0.358   0.570  12.763  0.3163 -0.2925 -0.0282
19657TIP3    H280387   0.380   0.433  12.823  1.2402 -0.2146 -0.1711
19658TIP3   OH280388   4.903   3.910  16.036 -0.0029 -0.1782 -0.1804
19658TIP3    H180389   4.937   3.932  16.123 -0.5512 -0.7396  0.1910
19658TIP3    H280390   4.811   3.888  16.052  0.1553 -1.3096 -0.7368
19659TIP3   OH280391   3.748   5.000   4.852  0.0390  0.3650  0.5435
19659TIP3    H180392   3.726   4.962   4.937  2.5140 -1.8843  0.3347
19659TIP3    H280393   3.797   5.079   4.873 -0.1976  0.3410  1.1967
19660TIP3   OH280394   0.386   5.634  11.199 -0.0919  0.3649 -0.0590
19660TIP3    H180395   0.447   5.571  11.162  0.0241  0.3405  0.1767
19660TIP3    H280396   0.301   5.610  11.161 -0.4637 -1.2888  1.6774
19661TIP3   OH280397   4.782   5.789  14.254 -0.2336  0.4232 -0.3441
19661TIP3    H180398   4.721   5.861  14.272  1.2550  1.4659  0.9125
19661TIP3    H280399   4.727   5.712  14.244 -1.8940  1.7001 -1.6658
19662TIP3   OH280400   1.909   3.686  15.023  0.4807 -0.5951  0.3582
19662TIP3    H180401   1.956   3.725  14.950 -1.1942 -0.7937 -0.8617
19662TIP3    H280402   1.897   3.595  14.998  0.5103 -0.8478  1.2228
19663TIP3   OH280403   6.439   6.297  14.853 -0.1247  0.1788  0.5179
19663TIP3    H180404   6.453   6.283  14.947  0.4856 -2.1375  0.1384
19663TIP3    H280405   6.524   6.283  14.813 -0.8289 -1.2108 -0.5874
19664TIP3   OH280406   3.170   0.678   1.264 -0.5445 -0.2536  0.1365
19664TIP3    H180407   3.145   0.635   1.183 -1.8308  1.5709 -0.4983
19664TIP3    H280408   3.260   0.649   1.279 -0.9393 -2.1734 -0.8463
19665TIP3   OH280409   6.102   2.511  11.393  0.9283 -0.6093 -0.7835
19665TIP3    H180410   6.074   2.451  11.463 -0.4319  0.4942 -0.3346
19665TIP3    H280411   6.086   2.463  11.312 -1.9115 -0.2624 -0.5319
19666TIP3   OH280412   4.010   2.202  13.098  0.6518  0.4286  0.2203
19666TIP3    H180413   4.001   2.124  13.043  0.7687  0.5402  0.0428
19666TIP3    H280414   3.921   2.238  13.102  0.4901 -0.0258  0.7691
19667TIP3   OH280415   0.107   0.490  13.667  0.4636 -0.0945 -0.9275
19667TIP3    H180416   0.032   0.478  13.609  0.9808 -1.6125 -1.3180
19667TIP3    H280417   0.157   0.409  13.659 -0.2134 -1.0823  2.7358
19668TIP3   OH280418   0.041   0.212   1.837 -0.6261  0.1214  0.3473
19668TIP3    H180419  -0.050   0.212   1.867 -0.7478 -1.5081  0.0680
19668TIP3    H280420   0.036   0.185   1.745  0.2314 -1.9196  0.8414
19669TIP3   OH280421   3.792   2.383   3.987 -0.2304 -0.3386  0.0031
19669TIP3    H180422   3.807   2.321   3.916 -2.2349 -1.3724  0.4181
19669TIP3    H280423   3.703   2.415   3.973 -1.0901 -1.3577  2.5912
19670TIP3   OH280424   1.532   1.265  14.422 -0.2120  0.1258 -0.6339
19670TIP3    H180425   1.624   1.264  14.448 -0.2613 -0.2360 -0.4675
19670TIP3    H280426   1.484   1.270  14.505 -0.3245  2.2027 -0.7624
19671TIP3   OH280427   5.578   5.885  11.645 -0.3400 -0.2711 -0.5067
19671TIP3    H180428   5.521   5.933  11.585 -0.6936 -0.8510 -0.6444
19671TIP3    H280429   5.604   5.808  11.596 -0.3165 -0.5537 -0.0545
19672TIP3   OH280430   4.760   0.720   5.564  0.1456 -0.1189 -0.4465
19672TIP3    H180431   4.739   0.683   5.479  2.1760  1.2420 -1.5949
19672TIP3    H280432   4.714   0.805   5.566  1.1966  0.4727 -0.7858
19673TIP3   OH280433   4.575   4.285  11.021  0.0362 -0.2631  0.3926
19673TIP3    H180434   4.604   4.216  10.961 -1.7682 -0.7697  0.0458
19673TIP3    H280435   4.638   4.355  11.008  0.9245 -1.1908 -0.5160
19674TIP3   OH280436   4.424   5.330  13.193 -0.3164  0.2604  0.3751
19674TIP3    H180437   4.394   5.413  13.230 -1.1951  0.4666 -0.7532
19674TIP3    H280438   4.345   5.288  13.160  0.1986 -0.7609  0.3933
19675TIP3   OH280439   0.953   2.926  10.859 -0.1048 -0.4035  0.3682
19675TIP3    H180440   0.965   3.003  10.915  1.7288 -0.8439  0.6205
19675TIP3    H280441   0.920   2.961  10.776  0.0725  0.5680  0.7027
19676TIP3   OH280442   5.950   2.103  14.630  0.2269  1.2374  0.4405
19676TIP3    H180443   5.963   2.037  14.699  2.7069  1.4745  0.2899
19676TIP3    H280444   6.037   2.113  14.591 -1.1588  0.8271 -3.0241
19677TIP3   OH280445   1.846   5.235  14.384 -0.5365 -0.3937  0.8145
19677TIP3    H180446   1.841   5.177  14.308  1.0392  1.4331 -0.7969
19677TIP3    H280447   1.766   5.288  14.378  0.1259  0.5233 -0.2985
19678TIP3   OH280448   2.085   1.672  12.840 -0.0014  0.2390  0.2709
19678TIP3    H180449   2.156   1.642  12.897 -1.2518  2.0666  3.0036
19678TIP3    H280450   2.125   1.739  12.785  0.8076 -0.1038  0.4244
19679TIP3   OH280451   1.996   4.515   3.927  0.2521 -0.4074  0.1739
19679TIP3    H180452   2.044   4.435   3.947  0.3666 -0.2654  0.4771
19679TIP3    H280453   2.063   4.577   3.899  0.3521  0.0120  1.2652
19680TIP3   OH280454   3.314   6.539   4.585  0.2889 -0.1145 -0.4230
19680TIP3    H180455   3.322   6.626   4.547 -1.4781  1.0376  1.6467
19680TIP3    H280456   3.296   6.482   4.510  2.1781  1.1229 -1.9016
19681TIP3   OH280457   5.851   1.510  11.436  0.0948  0.2497  0.0600
19681TIP3    H180458   5.793   1.449  11.390  1.9566  0.4020 -2.7160
19681TIP3    H280459   5.937   1.495  11.397  1.1033  3.0090  0.9792
19682TIP3   OH280460   3.798   1.210  15.272 -0.3556  0.7926 -0.0873
19682TIP3    H180461   3.789   1.144  15.204  0.1527  1.6170 -0.9902
19682TIP3    H280462   3.722   1.267  15.260 -1.2969 -0.1193  1.2834
19683TIP3   OH280463   3.182   6.646  12.352 -0.1411 -0.3523  0.0038
19683TIP3    H180464   3.216   6.692  12.275  1.3258 -1.7212 -0.2249
19683TIP3    H280465   3.204   6.704  12.425 -1.4452  0.9066 -0.5521
19684TIP3   OH280466   1.310   0.553   2.925  0.4825 -0.1550  0.3785
19684TIP3    H180467   1.257   0.508   2.992 -0.3217  0.1197 -0.0542
19684TIP3    H280468   1.290   0.646   2.938  0.3292 -0.1008 -0.2304
19685TIP3   OH280469   5.401   5.373   0.132 -0.0096 -0.2187  0.4961
19685TIP3    H180470   5.426   5.422   0.054 -2.4101  1.1529  0.4794
19685TIP3    H280471   5.447   5.290   0.124  2.0245  0.9515 -0.9083
19686TIP3   OH280472   2.592   6.668  11.264  0.2538 -0.1332 -0.1641
19686TIP3    H180473   2.499   6.648  11.250  0.4039 -1.2864  0.3174
19686TIP3    H280474   2.610   6.743  11.208 -0.4616 -1.2154 -1.9317
19687TIP3   OH280475   0.905   1.130  16.839  0.4506 -0.1807  0.5108
19687TIP3    H180476   0.912   1.212  16.790 -0.5565  0.3632  1.2262
19687TIP3    H280477   0.978   1.077  16.808 -0.2021  0.0825 -1.6456
19688TIP3   OH280478   5.776   6.156   2.074 -0.2183 -0.2360 -0.1114
19688TIP3    H180479   5.755   6.245   2.048  1.2858  0.2546  0.2558
19688TIP3    H280480   5.871   6.156   2.088 -0.4398 -1.3851  1.8022
19689TIP3   OH280481   5.428   4.337   0.904  0.1284  0.1953 -0.2560
19689TIP3    H180482   5.398   4.385   0.827 -0.6161  0.4847  0.1925
19689TIP3    H280483   5.491   4.396   0.946 -1.3671  1.1765  0.7229
19690TIP3   OH280484   5.338   3.805   3.147 -0.6033 -0.1423  0.1929
19690TIP3    H180485   5.335   3.886   3.096 -1.3342 -0.9740 -1.1167
19690TIP3    H280486   5.288   3.825   3.226 -1.0694  0.5647 -0.2686
19691TIP3   OH280487   5.938   5.767  14.830 -0.4292 -0.3334  0.4687
19691TIP3    H180488   5.984   5.683  14.827  0.0910 -0.0314 -1.5025
19691TIP3    H280489   6.008   5.833  14.821 -1.0503  0.1931 -0.7476
19692TIP3   OH280490   1.318   3.870   0.672  0.0204  0.4031 -0.0189
19692TIP3    H180491   1.263   3.923   0.614  0.4226  1.8841  0.8990
19692TIP3    H280492   1.275   3.874   0.757  0.8977  0.5602  0.4233
19693TIP3   OH280493   2.212   0.444   0.695  0.1300  0.0653 -0.1387
19693TIP3    H180494   2.191   0.355   0.724 -2.1757  0.4460 -0.4616
19693TIP3    H280495   2.219   0.437   0.600  0.6751  0.1029 -0.1027
19694TIP3   OH280496   1.939   3.041  14.035  0.1874 -0.4127 -0.4697
19694TIP3    H180497   1.939   3.013  13.943 -1.3427 -1.2051 -0.2497
19694TIP3    H280498   1.865   3.101  14.042  0.7930  0.2972  0.0900
19695TIP3   OH280499   2.319   0.428  15.252 -0.0320  0.0105 -0.4889
19695TIP3    H180500   2.299   0.357  15.314 -0.8707 -0.3889 -1.1885
19695TIP3    H280501   2.398   0.469  15.287 -0.1141 -0.6237  0.4847
19696TIP3   OH280502   3.056   3.016  12.849 -0.1739 -0.7049 -0.4607
19696TIP3    H180503   3.070   3.086  12.786  1.5738 -0.4501  0.1709
19696TIP3    H280504   3.002   3.056  12.917 -1.3168 -0.7303 -1.3195
19697TIP3   OH280505   3.760   0.781   2.274 -0.2051  0.3340  0.0461
19697TIP3    H180506   3.855   0.769   2.278 -0.1603  0.4233 -0.6393
19697TIP3    H280507   3.732   0.786   2.366  0.6847  2.2675  0.2473
19698TIP3   OH280508   3.737   5.123   1.219 -0.4029 -0.2207 -0.4264
19698TIP3    H180509   3.689   5.203   1.198 -0.6588  0.0247  0.9496
19698TIP3    H280510   3.722   5.110   1.313 -2.0542 -3.0270 -0.9690
19699TIP3   OH280511   2.499   2.249   2.206  0.0989 -0.0326 -0.2438
19699TIP3    H180512   2.439   2.323   2.219 -0.2585  0.1622 -2.5138
19699TIP3    H280513   2.583   2.290   2.186 -0.1721 -0.1715 -1.8213
19700TIP3   OH280514   4.297   2.134   3.961 -0.4123  0.1620  0.4640
19700TIP3    H180515   4.264   2.203   3.903 -1.0474  0.8563  1.6052
19700TIP3    H280516   4.297   2.174   4.048  2.0213 -0.3170  0.7631
19701TIP3   OH280517   0.042   3.008   3.179  0.1979 -0.1320 -0.0004
19701TIP3    H180518   0.093   2.989   3.257  0.9236  1.9904  0.1034
19701TIP3    H280519  -0.032   3.060   3.211 -0.9617 -1.4806 -0.4113
19702TIP3   OH280520   1.972   3.975   2.233 -0.3168  0.3100  0.1658
19702TIP3    H180521   2.031   3.920   2.182 -0.2102  0.0141  0.6028
19702TIP3    H280522   2.029   4.039   2.276 -0.4577  0.8710 -0.4711
19703TIP3   OH280523   0.031   0.731   0.096 -0.3156  0.3328  0.2348
19703TIP3    H180524   0.016   0.689   0.011 -0.7097 -0.7530  0.8248
19703TIP3    H280525  -0.052   0.723   0.142  0.0282  0.4981  0.8982
19704TIP3   OH280526   6.793   4.922  13.754  0.5765  0.0967 -0.8269
19704TIP3    H180527   6.837   4.868  13.820  0.5556  2.7513  1.5766
19704TIP3    H280528   6.704   4.932  13.787  0.6169  1.6294 -1.0757
19705TIP3   OH280529   2.638   5.202   1.264 -0.3371  0.0852  0.2580
19705TIP3    H180530   2.721   5.198   1.312  0.7328 -0.9901 -1.5631
19705TIP3    H280531   2.592   5.277   1.302  1.3733  0.6040  1.4372
19706TIP3   OH280532   4.126   1.013  13.471  0.1364 -0.2130 -0.1863
19706TIP3    H180533   4.143   0.921  13.452 -0.5482 -0.3686 -0.0920
19706TIP3    H280534   4.212   1.051  13.485  0.4059 -0.9161  0.1203
19707TIP3   OH280535   0.105   1.102   3.619  0.3749  0.3234  0.7576
19707TIP3    H180536   0.134   1.192   3.603  1.0530  0.1573  1.0251
19707TIP3    H280537   0.010   1.107   3.616  0.2332  0.1662 -4.5915
19708TIP3   OH280538   5.382   2.613   2.324 -0.5951  0.3480  0.4555
19708TIP3    H180539   5.356   2.702   2.301 -1.3862  0.4669  1.6994
19708TIP3    H280540   5.302   2.562   2.312 -0.6407  0.1573  1.4785
19709TIP3   OH280541   1.517   2.499   5.573 -0.1644  0.0785 -0.1619
19709TIP3    H180542   1.422   2.494   5.583 -0.1701  0.3728 -0.0762
19709TIP3    H280543   1.536   2.592   5.570  0.3202  0.0907  1.7490
19710TIP3   OH280544   2.645   2.966  16.165  0.2045  0.1858 -0.2889
19710TIP3    H180545   2.705   2.945  16.094 -1.7454 -0.4217 -1.8595
19710TIP3    H280546   2.597   3.043  16.134  0.8688  1.3423  1.4090
19711TIP3   OH280547   6.632   3.652  12.965  0.1599 -0.5089 -0.0515
19711TIP3    H180548   6.688   3.683  12.894  0.0940  1.2383  0.6142
19711TIP3    H280549   6.661   3.702  13.041 -3.3868  1.8319  0.0065
19712TIP3   OH280550   3.965   6.388  11.661 -0.2264 -0.3998 -0.1173
19712TIP3    H180551   3.931   6.396  11.572  0.7677  1.4120 -0.3852
19712TIP3    H280552   3.988   6.478  11.686  0.8318 -1.0583  1.4285
19713TIP3   OH280553   6.579   0.166   4.027  0.5927 -0.0220  0.6782
19713TIP3    H180554   6.490   0.133   4.041  0.8321 -1.2187 -0.4710
19713TIP3    H280555   6.613   0.178   4.116  0.1310 -1.9545  1.1741
19714TIP3   OH280556   6.188   5.633  14.436  0.3626  0.1643  0.4360
19714TIP3    H180557   6.128   5.665  14.504 -0.3316  0.6065 -0.3684
19714TIP3    H280558   6.275   5.642  14.475  0.0333  1.1556  0.9875
19715TIP3   OH280559   5.821   4.995  15.662 -0.3523 -0.3980 -0.6000
19715TIP3    H180560   5.755   4.937  15.700  0.1871 -0.0894  0.8914
19715TIP3    H280561   5.885   4.935  15.622  0.1784 -0.8777  0.8874
19716TIP3   OH280562   3.166   1.146   5.052 -0.2688  0.2881  0.3557
19716TIP3    H180563   3.171   1.143   4.956 -0.0592 -1.1089  0.3939
19716TIP3    H280564   3.083   1.103   5.073  0.0631 -0.1305  0.8259
19717TIP3   OH280565   4.702   4.143  15.281  0.1845 -0.3024  0.3776
19717TIP3    H180566   4.636   4.105  15.223 -0.1271  0.9654 -0.1364
19717TIP3    H280567   4.746   4.209  15.227  2.7570 -1.9168  0.2972
19718TIP3   OH280568   6.681   6.801   3.670 -0.4644 -0.0108  0.1002
19718TIP3    H180569   6.596   6.838   3.643  0.0471  2.2906  1.4069
19718TIP3    H280570   6.745   6.855   3.624  0.3255 -0.6245  0.4758
19719TIP3   OH280571   2.200   4.684   4.896 -0.6145 -0.0451 -0.2904
19719TIP3    H180572   2.139   4.754   4.873 -0.4688 -0.1058 -0.8878
19719TIP3    H280573   2.234   4.653   4.812  0.1079 -0.1351  0.0255
19720TIP3   OH280574   3.366   6.649   4.988 -0.3496  0.5130  0.0950
19720TIP3    H180575   3.366   6.567   5.038 -3.0693  0.2878 -0.1172
19720TIP3    H280576   3.386   6.716   5.053  0.4439 -0.1584  0.5706
19721TIP3   OH280577   2.659   3.715   4.314 -0.0142  0.1320  0.2396
19721TIP3    H180578   2.604   3.686   4.241  0.4269 -0.6792  0.2096
19721TIP3    H280579   2.643   3.809   4.321 -1.1647 -0.0389  0.0399
19722TIP3   OH280580   6.445   4.817   0.335  0.0160  0.3698 -0.2575
19722TIP3    H180581   6.540   4.807   0.326  0.0326 -2.3474  1.5785
19722TIP3    H280582   6.413   4.818   0.244  1.6131 -2.2469 -0.9759
19723TIP3   OH280583   0.698   5.168   2.939 -0.2102  0.2064  0.0703
19723TIP3    H180584   0.696   5.145   2.846 -0.2830 -1.2080  0.4032
19723TIP3    H280585   0.650   5.098   2.982 -2.1825  2.0076  0.9728
19724TIP3   OH280586   6.639   5.818   3.705 -0.0007  0.6742 -0.3557
19724TIP3    H180587   6.680   5.901   3.680  0.7559 -0.0375 -1.5813
19724TIP3    H280588   6.619   5.828   3.798  2.1461  1.3887  0.0769
19725TIP3   OH280589   0.596   4.411  14.846  0.5675 -0.4728 -0.3085
19725TIP3    H180590   0.582   4.499  14.880  1.3060 -0.5255  0.1675
19725TIP3    H280591   0.510   4.382  14.816  0.2669  0.2977 -0.1956
19726TIP3   OH280592   0.518   4.408  16.141  0.0649 -0.1096 -0.7996
19726TIP3    H180593   0.573   4.485  16.125  0.3610 -0.5136 -1.8000
19726TIP3    H280594   0.428   4.440  16.129 -0.2488  1.1820  3.2419
19727TIP3   OH280595   0.079   1.916  15.431 -0.3523 -0.3104  0.2723
19727TIP3    H180596   0.036   1.841  15.390 -0.6247 -0.1273  0.2245
19727TIP3    H280597   0.172   1.892  15.433 -0.5338 -0.9860  0.9789
19728TIP3   OH280598   3.683   1.806  15.736 -0.3819  0.2756  0.3902
19728TIP3    H180599   3.729   1.852  15.806  1.5536 -1.1767  0.1487
19728TIP3    H280600   3.630   1.874  15.694 -0.2772  1.5324  2.1491
19729TIP3   OH280601   5.769   0.212   4.268 -1.2439 -0.4167  0.1074
19729TIP3    H180602   5.681   0.177   4.275 -1.4424  0.3812  2.0926
19729TIP3    H280603   5.772   0.284   4.331  0.6862 -0.1377 -0.2321
19730TIP3   OH280604   2.218   3.592   6.026  0.2420 -0.3781 -0.6735
19730TIP3    H180605   2.221   3.657   6.096 -0.6084 -1.0336 -0.0206
19730TIP3    H280606   2.209   3.644   5.946 -0.8210  0.3134 -0.1312
19731TIP3   OH280607   3.275   1.169   4.249 -0.3229 -0.2417 -0.2094
19731TIP3    H180608   3.279   1.080   4.284  2.0473 -0.4212 -0.7777
19731TIP3    H280609   3.304   1.225   4.321  0.8409 -0.2236 -0.6783
19732TIP3   OH280610   5.586   3.721   0.960  0.1255 -0.2436  0.2801
19732TIP3    H180611   5.585   3.815   0.942  1.0693 -0.4250 -0.8442
19732TIP3    H280612   5.679   3.697   0.959 -0.1122 -1.2286  0.3795
19733TIP3   OH280613   3.977   2.479  11.927  0.2450  0.2339  0.2411
19733TIP3    H180614   3.884   2.488  11.949 -0.1047 -2.2767  0.1442
19733TIP3    H280615   3.985   2.516  11.840 -0.6789  0.4588  0.2436
19734TIP3   OH280616   4.248   1.921   3.289 -0.1812  0.0862 -0.1240
19734TIP3    H180617   4.158   1.952   3.275 -0.5304 -0.4844  0.7887
19734TIP3    H280618   4.287   1.987   3.346  0.4929  1.1570 -1.7570
19735TIP3   OH280619   4.362   5.288  12.378  0.9692  0.4566  0.0676
19735TIP3    H180620   4.287   5.320  12.327  1.0709  1.5642  0.5850
19735TIP3    H280621   4.391   5.210  12.331 -0.4606  0.0403 -0.1900
19736TIP3   OH280622   5.457   5.365   2.712 -0.0397 -0.6719 -0.0337
19736TIP3    H180623   5.499   5.354   2.627  0.6606 -1.8444  0.4307
19736TIP3    H280624   5.529   5.388   2.771 -0.6833  1.1950  0.0632
19737TIP3   OH280625   6.093   1.367   5.215  0.9626  0.1536 -0.1716
19737TIP3    H180626   6.082   1.358   5.120  2.0548  1.5685 -0.4851
19737TIP3    H280627   6.083   1.461   5.231  0.7229 -0.0810  1.1274
19738TIP3   OH280628   2.631   6.178   3.535 -0.1915  0.3904  0.0962
19738TIP3    H180629   2.632   6.087   3.565 -0.8066  0.0461 -0.8545
19738TIP3    H280630   2.582   6.175   3.452  0.4691  1.4578 -0.3556
19739TIP3   OH280631   3.764   6.597  16.482 -0.4343 -1.1929 -0.1160
19739TIP3    H180632   3.857   6.599  16.503 -0.5726 -0.5498  0.4584
19739TIP3    H280633   3.731   6.519  16.528 -0.0344 -1.8892 -0.9871
19740TIP3   OH280634   3.992   1.281  13.424  0.1132  0.1705  0.1594
19740TIP3    H180635   4.011   1.187  13.423  0.4694  0.1846  2.0223
19740TIP3    H280636   4.075   1.323  13.403  0.2962  0.0755  0.6700
19741TIP3   OH280637   0.954   2.623  16.463  0.0103 -0.7501 -0.4891
19741TIP3    H180638   0.870   2.599  16.501  0.3178 -1.0167  0.0232
19741TIP3    H280639   0.979   2.704  16.508  1.5016 -2.2992  1.6408
19742TIP3   OH280640   3.312   1.888  15.525 -0.2289 -0.7054 -0.3916
19742TIP3    H180641   3.250   1.919  15.460 -0.6060 -0.3505  0.1268
19742TIP3    H280642   3.398   1.895  15.482 -0.2301  1.5949 -0.1271
19743TIP3   OH280643   5.654   4.857   2.925 -0.3816 -0.1119 -0.0537
19743TIP3    H180644   5.647   4.807   2.844  0.6477  1.0672 -0.9196
19743TIP3    H280645   5.570   4.901   2.934 -0.8532 -1.0354  0.0587
19744TIP3   OH280646   4.124   0.536   0.104  0.7666  0.0337  0.4273
19744TIP3    H180647   4.113   0.551   0.198 -0.3978 -0.2262  0.3518
19744TIP3    H280648   4.147   0.443   0.097  1.6603  0.2438  0.4984
19745TIP3   OH280649   3.337   2.334   5.433  0.4457 -0.1494  0.4080
19745TIP3    H180650   3.384   2.278   5.495  0.7399 -0.8094 -0.3807
19745TIP3    H280651   3.403   2.358   5.368 -0.5210 -2.1770 -1.4612
19746TIP3   OH280652   1.921   5.110   2.336 -0.4583 -0.9580  0.1872
19746TIP3    H180653   1.940   5.166   2.261  2.4446 -1.7504  0.1930
19746TIP3    H280654   1.838   5.068   2.315  0.2148 -1.0956 -2.5884
19747TIP3   OH280655   3.320   1.253   2.803  0.1476 -0.3044  0.1306
19747TIP3    H180656   3.407   1.281   2.773  0.0355  0.0035  0.0833
19747TIP3    H280657   3.296   1.318   2.869 -0.9787  0.9430 -1.3970
19748TIP3   OH280658   4.419   4.326  11.878 -0.7407  0.2088  0.1410
19748TIP3    H180659   4.345   4.375  11.912 -1.8816  0.2272 -2.1597
19748TIP3    H280660   4.392   4.234  11.883 -0.7317  0.1821 -0.2634
19749TIP3   OH280661   4.083   3.536  14.675  0.5948  0.0756  0.0852
19749TIP3    H180662   4.156   3.554  14.734  2.7197 -0.1110 -2.3219
19749TIP3    H280663   4.057   3.446  14.694  2.6660 -0.7252 -0.5980
19750TIP3   OH280664   5.705   1.731  12.599  0.2035 -0.4978  0.0361
19750TIP3    H180665   5.682   1.753  12.689 -0.5945 -1.4020  0.0768
19750TIP3    H280666   5.771   1.795  12.574  0.5186 -0.3038  1.3056
19751TIP3   OH280667   3.252   0.430  10.517 -0.0160 -0.1964 -0.1734
19751TIP3    H180668   3.205   0.348  10.503 -1.5704  0.3596  1.4303
19751TIP3    H280669   3.206   0.493  10.463 -0.7983  0.2187  0.9298
19752TIP3   OH280670   3.294   4.925   4.315 -0.1960 -0.4951 -0.2407
19752TIP3    H180671   3.252   4.915   4.401 -0.3887 -1.0312 -0.3986
19752TIP3    H280672   3.366   4.862   4.316  0.8388  0.6379  0.1590
19753TIP3   OH280673   5.810   3.464   2.594  0.4584 -0.1487  0.3668
19753TIP3    H180674   5.840   3.528   2.658  0.6062 -0.7804  0.9487
19753TIP3    H280675   5.814   3.509   2.510 -0.3947  0.9211  0.8786
19754TIP3   OH280676   6.694   1.396   4.322 -0.0815  0.3057 -0.1146
19754TIP3    H180677   6.636   1.359   4.389 -1.8795 -0.3375 -1.9160
19754TIP3    H280678   6.634   1.435   4.258  1.6036  1.6873 -0.9287
19755TIP3   OH280679   4.959   4.478  16.243 -0.4597 -0.1308  0.3606
19755TIP3    H180680   4.901   4.510  16.313  2.6852  0.9873  2.6671
19755TIP3    H280681   4.993   4.558  16.202  0.7883 -0.6919  0.2674
19756TIP3   OH280682   2.909   0.548   0.138 -0.0686 -0.0408  0.5595
19756TIP3    H180683   2.984   0.493   0.162 -0.2720  0.5466  2.7975
19756TIP3    H280684   2.847   0.536   0.210 -1.1467  1.2572 -0.1107
19757TIP3   OH280685   6.023   2.929   0.313  0.2386 -0.1386  0.0994
19757TIP3    H180686   6.021   2.967   0.401  1.9935  1.3295 -0.4371
19757TIP3    H280687   6.025   3.005   0.255 -0.2417 -1.0922 -1.2017
19758TIP3   OH280688   4.847   0.056  10.531  0.6944 -0.2009 -0.4559
19758TIP3    H180689   4.830   0.075  10.623  0.6366  1.1357 -0.7189
19758TIP3    H280690   4.919  -0.008  10.532  0.4845 -0.4316  0.5068
19759TIP3   OH280691   1.017   1.842  12.160 -0.3817  0.1393  0.0456
19759TIP3    H180692   1.041   1.933  12.140  0.7741  0.0773  0.9760
19759TIP3    H280693   0.959   1.816  12.089  0.5415  1.0916 -1.0987
19760TIP3   OH280694   1.873   4.145   3.676 -0.3697  0.5019 -0.2247
19760TIP3    H180695   1.821   4.225   3.685  1.0009  1.3324  0.6202
19760TIP3    H280696   1.900   4.124   3.765  2.1303  1.0840 -0.7651
19761TIP3   OH280697   1.925   6.702   3.141 -0.4909 -0.1278  0.4148
19761TIP3    H180698   2.018   6.725   3.136 -0.6412  0.2176 -1.5531
19761TIP3    H280699   1.921   6.612   3.108 -0.4309 -1.7151  4.2198
19762TIP3   OH280700   2.959   2.999  14.223 -0.4672 -0.1514 -0.6252
19762TIP3    H180701   2.919   2.976  14.307  0.0377 -1.2762 -0.6752
19762TIP3    H280702   3.006   2.920  14.196  0.1071  0.4827 -1.5468
19763TIP3   OH280703   2.747   1.517  10.673 -0.2922  0.4966 -0.6223
19763TIP3    H180704   2.771   1.609  10.666  1.6834  0.0817 -0.0466
19763TIP3    H280705   2.813   1.479  10.731 -1.9438 -0.9962  0.3851
19764TIP3   OH280706   0.614   1.293  16.950 -0.1081 -0.1428  0.0580
19764TIP3    H180707   0.615   1.309  16.856 -0.4890  1.3200  0.2774
19764TIP3    H280708   0.689   1.343  16.984  1.2247 -2.2223  0.3349
19765TIP3   OH280709   0.365   3.857  16.386  0.5188  0.0542 -0.0951
19765TIP3    H180710   0.276   3.851  16.421  0.7544 -3.6576  0.3041
19765TIP3    H280711   0.400   3.939  16.421 -1.6330  0.0042  2.4624
19766TIP3   OH280712   3.759   1.955   3.306 -0.0214 -0.2412  0.1406
19766TIP3    H180713   3.722   2.012   3.238  1.0782 -0.9059 -1.0691
19766TIP3    H280714   3.850   1.984   3.315  0.5732 -1.7817 -0.5345
19767TIP3   OH280715   3.249   0.927  11.947 -0.2019  0.1132  0.0546
19767TIP3    H180716   3.160   0.927  11.911  0.1034  0.1459 -0.7338
19767TIP3    H280717   3.253   0.849  12.002 -0.3252 -0.6382 -0.9597
19768TIP3   OH280718   3.061   4.614  12.331 -0.4099 -0.5216 -0.2409
19768TIP3    H180719   3.102   4.568  12.258  0.5248 -1.6074  0.9288
19768TIP3    H280720   3.097   4.573  12.409 -1.1795  0.7895  0.8522
19769TIP3   OH280721   6.613   1.000  13.307 -0.1088 -0.1465  0.0685
19769TIP3    H180722   6.699   0.995  13.265  0.7514 -2.1181  1.8553
19769TIP3    H280723   6.556   1.035  13.239  1.9097  0.3882 -1.4820
19770TIP3   OH280724   6.417   1.336   6.678  0.0830  0.0601  0.0258
19770TIP3    H180725   6.375   1.257   6.645  1.0418 -0.4656  0.0141
19770TIP3    H280726   6.504   1.306   6.707  2.2582  1.7746 -3.9829
19771TIP3   OH280727   2.426   2.879  10.619 -0.1733 -0.2890 -0.1491
19771TIP3    H180728   2.387   2.964  10.642 -0.7065 -0.7739  0.7653
19771TIP3    H280729   2.508   2.876  10.669 -0.8213 -0.8944  0.8852
19772TIP3   OH280730   4.563   4.920   4.759  0.0265  0.2570  0.3742
19772TIP3    H180731   4.632   4.877   4.708  2.4815  2.2748  1.8067
19772TIP3    H280732   4.531   4.989   4.702 -0.6677 -0.5009 -0.1839
19773TIP3   OH280733   0.393   3.153   4.033 -0.0531  0.3407  0.3078
19773TIP3    H180734   0.392   3.091   3.961 -0.3653  0.1445  0.4804
19773TIP3    H280735   0.397   3.099   4.112 -1.9794  0.4541  0.5376
19774TIP3   OH280736   3.679   5.195   5.237  0.1254  0.4900 -0.2222
19774TIP3    H180737   3.711   5.119   5.188  0.2245  1.3719 -1.5984
19774TIP3    H280738   3.597   5.166   5.276  1.8033 -1.3648  2.1640
19775TIP3   OH280739   4.242   0.988  11.456 -0.3215 -0.3690 -0.1704
19775TIP3    H180740   4.248   0.930  11.531 -0.1214 -0.6805 -0.4262
19775TIP3    H280741   4.255   1.076  11.492  1.6211 -0.6464 -0.0848
19776TIP3   OH280742   6.781   1.905  10.610 -0.5625 -0.0160  0.3046
19776TIP3    H180743   6.718   1.921  10.681  0.6559  0.9878  1.2295
19776TIP3    H280744   6.778   1.811  10.595 -1.3385 -0.1556  1.2435
19777TIP3   OH280745   6.645   6.409   5.262  0.1658  0.0308  0.2888
19777TIP3    H180746   6.675   6.319   5.273 -2.5529 -0.8420  1.4168
19777TIP3    H280747   6.678   6.455   5.340 -1.5091 -0.9547  1.6297
19778TIP3   OH280748   4.551   5.184   4.663  0.1496 -0.8340 -0.1068
19778TIP3    H180749   4.565   5.183   4.568 -2.0664 -0.7268 -0.4997
19778TIP3    H280750   4.560   5.276   4.688  4.5282 -1.2404  0.5617
19779TIP3   OH280751   1.597   2.740  11.883  0.4336 -0.4730  0.2109
19779TIP3    H180752   1.509   2.778  11.884  0.3288 -0.7202  0.9237
19779TIP3    H280753   1.610   2.708  11.972  2.0319  1.3058  0.6581
19780TIP3   OH280754   2.594   1.656  15.393 -0.5105  0.4256 -0.0022
19780TIP3    H180755   2.520   1.599  15.415 -0.4909 -0.0533 -1.1069
19780TIP3    H280756   2.672   1.605  15.415 -0.4917  0.9443  1.1968
19781TIP3   OH280757   5.430   0.444   2.965 -0.1569 -0.4369  0.0354
19781TIP3    H180758   5.381   0.369   2.997  0.4875 -1.4541 -1.2801
19781TIP3    H280759   5.363   0.502   2.928 -0.4712 -1.4119 -0.9648
19782TIP3   OH280760   6.626   4.705  13.322 -0.1483 -0.0739 -0.2028
19782TIP3    H180761   6.672   4.727  13.403 -1.4111  0.0142  0.5147
19782TIP3    H280762   6.695   4.674  13.263  0.6192 -1.6385  1.4285
19783TIP3   OH280763   2.546   0.240  12.060 -0.4043 -0.0808 -0.1871
19783TIP3    H180764   2.490   0.316  12.068 -2.9296 -1.6193 -1.9208
19783TIP3    H280765   2.488   0.165  12.072  1.4108 -1.7931 -1.3365
19784TIP3   OH280766   3.384   1.857  12.782  0.1128  0.3828 -0.3928
19784TIP3    H180767   3.440   1.836  12.707 -0.8078  1.2775 -1.3578
19784TIP3    H280768   3.309   1.799  12.772 -0.5840  1.3462 -0.8602
19785TIP3   OH280769   4.224   5.287  16.314 -0.2725  0.6712 -0.2010
19785TIP3    H180770   4.249   5.201  16.281 -0.2812 -0.0158  1.4580
19785TIP3    H280771   4.301   5.342  16.301 -0.1735  0.3378 -1.0278
19786TIP3   OH280772   6.240   6.295  11.857 -0.3081  0.2560  0.1281
19786TIP3    H180773   6.236   6.387  11.881  1.0475 -0.0301  1.5945
19786TIP3    H280774   6.249   6.295  11.762 -3.3403  1.5123 -0.2532
19787TIP3   OH280775   3.760   2.162   1.725  0.2905 -0.4605 -0.1806
19787TIP3    H180776   3.664   2.160   1.721  0.1680 -2.8103  1.4580
19787TIP3    H280777   3.779   2.206   1.808  0.6814  0.7067 -0.8779
19788TIP3   OH280778   0.952   2.090   2.223 -0.5791 -0.1422  0.0111
19788TIP3    H180779   1.004   2.124   2.296 -1.2127  0.7606  0.0595
19788TIP3    H280780   1.011   2.099   2.147 -0.0773 -0.6742  0.3316
19789TIP3   OH280781   5.064   3.432   5.516  0.3044 -0.3345  0.2949
19789TIP3    H180782   5.063   3.522   5.549  0.4781 -0.6298  1.1215
19789TIP3    H280783   5.117   3.436   5.436  0.3915  0.2771  0.3796
19790TIP3   OH280784   6.393   1.180   0.527  0.1563 -0.2475  0.9367
19790TIP3    H180785   6.367   1.128   0.603 -1.0297  0.5265  1.0942
19790TIP3    H280786   6.368   1.127   0.451 -1.8900  0.4136  1.0835
19791TIP3   OH280787   1.792   1.705  12.166  0.2228  0.0364 -0.2649
19791TIP3    H180788   1.745   1.754  12.233 -0.2699 -0.3275 -0.3412
19791TIP3    H280789   1.869   1.759  12.147 -0.2464  0.7267 -0.2651
19792TIP3   OH280790   6.800   4.745   5.861  0.1691  0.3840  0.1113
19792TIP3    H180791   6.721   4.789   5.892 -0.5949  0.6949 -2.0799
19792TIP3    H280792   6.841   4.710   5.940 -1.3333  1.5512  1.4705
19793TIP3   OH280793   3.724   2.531   0.006  0.0209 -0.0892  0.5683
19793TIP3    H180794   3.805   2.581   0.012  0.6587 -0.8676 -1.0824
19793TIP3    H280795   3.695   2.543  -0.084  0.6321 -3.2917 -0.1824
19794TIP3   OH280796   4.839   6.482  15.168 -0.2358 -0.3349 -0.0670
19794TIP3    H180797   4.879   6.395  15.161  0.1366 -0.1431 -0.4278
19794TIP3    H280798   4.766   6.480  15.107  2.2501  0.9229 -3.3772
19795TIP3   OH280799   3.589   0.576  12.271 -0.6255  0.6575 -0.0349
19795TIP3    H180800   3.653   0.646  12.282  0.4114 -0.1807 -0.5556
19795TIP3    H280801   3.610   0.536  12.187 -0.3217 -1.1374  0.8268
19796TIP3   OH280802   4.166   5.028   4.285 -0.0815 -0.6515 -0.0009
19796TIP3    H180803   4.210   5.113   4.293 -0.8434 -0.2794  0.3546
19796TIP3    H280804   4.235   4.964   4.304  0.3914 -0.1008  0.1956
19797TIP3   OH280805   2.166   0.592  15.114  0.7297 -0.5725  0.0429
19797TIP3    H180806   2.216   0.530  15.166  1.2855  0.1916  0.4413
19797TIP3    H280807   2.137   0.659  15.176  0.1490 -0.4215 -0.3755
19798TIP3   OH280808   1.325   6.588   4.408 -0.3528  0.4362 -0.1258
19798TIP3    H180809   1.271   6.597   4.329  1.1355 -1.9757 -1.5567
19798TIP3    H280810   1.271   6.624   4.478 -2.5829  0.8248 -1.9126
19799TIP3   OH280811   3.734   5.909   3.970  0.1499  0.4269  0.4003
19799TIP3    H180812   3.749   5.842   4.037  0.3672  0.7000  0.6255
19799TIP3    H280813   3.797   5.889   3.901  0.1154  0.3152  0.4004
19800TIP3   OH280814   2.198   4.804   0.640  0.2252 -0.1785 -0.1333
19800TIP3    H180815   2.144   4.738   0.596  0.0014 -0.7672  0.9860
19800TIP3    H280816   2.255   4.838   0.571  1.4021 -2.6024 -0.4633
19801TIP3   OH280817   4.076   4.455  14.693 -1.1110 -0.1255 -0.0950
19801TIP3    H180818   4.049   4.490  14.778 -0.7459  0.6813 -0.3054
19801TIP3    H280819   4.153   4.506  14.669 -1.3028 -0.2362 -0.9916
19802TIP3   OH280820   4.515   6.362  10.660 -0.3286  0.3714 -0.0537
19802TIP3    H180821   4.550   6.273  10.672  0.1511  0.5986  0.2571
19802TIP3    H280822   4.420   6.351  10.664 -0.3373 -0.3359 -1.4543
19803TIP3   OH280823   3.403   3.582   1.242  0.0428  0.4840  0.1377
19803TIP3    H180824   3.389   3.506   1.299 -2.4618 -0.0790 -1.0406
19803TIP3    H280825   3.369   3.656   1.291 -1.9796  0.0223 -0.4530
19804TIP3   OH280826   0.498   0.031   2.418  0.2890  0.1601  0.4210
19804TIP3    H180827   0.412   0.001   2.448 -0.3478  1.7662  0.3285
19804TIP3    H280828   0.532  -0.041   2.365 -0.1358 -1.2947  2.0423
19805TIP3   OH280829   5.872   6.662   5.604 -0.2094 -0.2630 -0.1737
19805TIP3    H180830   5.860   6.570   5.627 -0.1795 -0.1793  0.1717
19805TIP3    H280831   5.967   6.674   5.598 -0.2347 -0.5136 -1.2671
19806TIP3   OH280832   5.632   2.421  16.750  0.0608  0.4910 -0.1531
19806TIP3    H180833   5.653   2.329  16.765  2.8659  1.0929  0.3709
19806TIP3    H280834   5.716   2.466  16.764 -0.6821  2.8756 -2.5876
19807TIP3   OH280835   6.216   0.960  11.190  0.4217 -0.6414 -0.2210
19807TIP3    H180836   6.163   0.922  11.120  1.3522 -0.0593 -1.2806
19807TIP3    H280837   6.305   0.961  11.155  0.4719  2.4713 -0.2910
19808TIP3   OH280838   2.011   3.123  16.300  0.2469  0.4624 -0.1119
19808TIP3    H180839   2.070   3.061  16.258  0.1307 -0.9594  1.7000
19808TIP3    H280840   1.929   3.115  16.250  0.4967 -0.2376 -0.4243
19809TIP3   OH280841   6.249   0.327  16.719 -0.4476 -0.0153  0.0121
19809TIP3    H180842   6.279   0.354  16.806 -1.6237 -0.5867  0.6198
19809TIP3    H280843   6.312   0.261  16.692 -0.4323 -0.3059  0.7217
19810TIP3   OH280844   5.069   3.001  13.880  0.1576  0.0796 -0.1402
19810TIP3    H180845   5.146   3.029  13.930 -0.1529 -1.0381  0.9997
19810TIP3    H280846   4.995   3.015  13.939 -0.3592 -0.1970 -0.7076
19811TIP3   OH280847   5.604   4.349   4.354  0.1029  0.1541 -0.5015
19811TIP3    H180848   5.652   4.428   4.377  0.4440 -0.1497 -0.1441
19811TIP3    H280849   5.576   4.362   4.264  0.8853  0.3228 -0.7209
19812TIP3   OH280850   1.079   4.854  15.094  0.0177  0.4171  0.6114
19812TIP3    H180851   1.155   4.908  15.074 -0.3305  0.6796 -0.0154
19812TIP3    H280852   1.105   4.765  15.069 -0.2996  0.6870 -0.7621
19813TIP3   OH280853   1.613   0.575  14.616  0.2606 -0.1578  0.5806
19813TIP3    H180854   1.672   0.584  14.691  0.8487  0.4939  0.0581
19813TIP3    H280855   1.559   0.655  14.619 -1.1895 -1.1255  1.5312
19814TIP3   OH280856   2.201   3.713  10.114 -0.0633 -0.0638 -0.2986
19814TIP3    H180857   2.139   3.760  10.170 -1.1682  0.0458 -1.5405
19814TIP3    H280858   2.169   3.623  10.113  2.9262 -1.3814  3.3081
19815TIP3   OH280859   1.612   0.556   5.680  0.7420 -0.0027  0.3510
19815TIP3    H180860   1.697   0.568   5.639  0.7817  0.1418  0.4750
19815TIP3    H280861   1.613   0.465   5.711  0.5283 -0.2584 -0.3822
19816TIP3   OH280862   4.588   2.450  14.310  0.5752  0.2448  0.7223
19816TIP3    H180863   4.640   2.456  14.390  0.1684  0.8352  0.9484
19816TIP3    H280864   4.500   2.477  14.336  0.3076 -0.0961  0.1976
19817TIP3   OH280865   5.892   5.862  15.091 -0.1486 -0.1643 -0.6176
19817TIP3    H180866   5.927   5.949  15.074 -2.2090  0.5625 -1.4514
19817TIP3    H280867   5.861   5.831  15.006 -0.5996 -1.1721 -0.1113
19818TIP3   OH280868   0.188   2.989  10.617 -0.0067 -0.0071 -0.2125
19818TIP3    H180869   0.200   2.950  10.530 -0.9753  0.6074 -0.6387
19818TIP3    H280870   0.263   3.048  10.627 -1.2192  1.9275 -1.7891
19819TIP3   OH280871   5.073   5.005  15.974 -0.6955  1.1712  0.7362
19819TIP3    H180872   4.985   5.006  16.012 -0.8588  0.4632  0.3824
19819TIP3    H280873   5.116   5.083  16.012 -1.4483  1.4940  0.9477
19820TIP3   OH280874   1.134   5.073  17.149  0.0171  0.6109  0.2564
19820TIP3    H180875   1.087   5.150  17.116  1.8711  0.8279 -2.1517
19820TIP3    H280876   1.225   5.087  17.123  0.8005 -1.4711  1.5857
19821TIP3   OH280877   4.845   6.717   3.270 -0.0864 -0.3830 -0.1664
19821TIP3    H180878   4.857   6.786   3.336 -1.3417  0.8422 -1.1455
19821TIP3    H280879   4.931   6.676   3.262 -0.0424 -0.9969  2.6551
19822TIP3   OH280880   6.247   1.420  14.352  0.5031 -0.6058 -0.2689
19822TIP3    H180881   6.340   1.414  14.373  0.3455  0.1326  0.6824
19822TIP3    H280882   6.227   1.336  14.309  1.5369 -0.8797 -0.2363
19823TIP3   OH280883   6.347   1.031   4.583  0.5244  0.1042 -0.2909
19823TIP3    H180884   6.285   1.087   4.537 -1.6122  0.2026  2.4278
19823TIP3    H280885   6.340   0.946   4.540 -0.4655  0.4880 -0.9197
19824TIP3   OH280886   2.690   0.889   5.268  0.0504 -0.8254  0.1789
19824TIP3    H180887   2.603   0.884   5.308 -0.3502 -0.8637 -0.6933
19824TIP3    H280888   2.711   0.982   5.268 -0.1003 -0.7914  0.1425
19825TIP3   OH280889   4.187   1.715  12.867 -0.4389  0.2399 -0.1733
19825TIP3    H180890   4.260   1.668  12.826 -0.8013  0.6152 -1.2952
19825TIP3    H280891   4.219   1.737  12.955 -0.2577 -2.0634  0.4136
19826TIP3   OH280892   1.440   3.522  13.106  0.0994  0.2908  0.5406
19826TIP3    H180893   1.381   3.559  13.041 -1.1236 -0.3835  1.2218
19826TIP3    H280894   1.451   3.591  13.172  0.1638  0.4595  0.3529
19827TIP3   OH280895   5.708   1.835  12.850 -0.5988  0.4765  0.1235
19827TIP3    H180896   5.711   1.925  12.818 -1.4232  0.0124 -1.3342
19827TIP3    H280897   5.660   1.841  12.933 -3.1210  1.0888 -1.2654
19828TIP3   OH280898   2.118   1.443   4.855 -0.0924 -0.2150 -0.4589
19828TIP3    H180899   2.213   1.440   4.844 -0.2339  1.4031 -2.8830
19828TIP3    H280900   2.105   1.498   4.933  0.9563  0.4258 -0.7183
19829TIP3   OH280901   2.475   4.090  15.500  0.9579 -0.1746  0.3454
19829TIP3    H180902   2.567   4.117  15.492  0.7595  0.1770 -1.0665
19829TIP3    H280903   2.461   4.031  15.425 -0.7679  2.2656 -1.4109
19830TIP3   OH280904   0.738   1.648   4.908 -0.5062 -0.6159  1.0211
19830TIP3    H180905   0.750   1.613   4.820  1.7624  0.6087  0.7564
19830TIP3    H280906   0.799   1.722   4.912 -2.1776  0.7473  2.8835
19831TIP3   OH280907   0.390   3.653   0.263  0.3745  0.9289 -0.1449
19831TIP3    H180908   0.318   3.707   0.233  2.4457  3.1814 -1.3815
19831TIP3    H280909   0.428   3.617   0.183  1.2871  0.6729  0.3883
19832TIP3   OH280910   5.636   1.286  13.812  0.0428  0.2240 -0.2470
19832TIP3    H180911   5.694   1.210  13.811 -0.5180 -0.2293  0.6692
19832TIP3    H280912   5.690   1.357  13.847  1.0045  0.6591 -2.4129
19833TIP3   OH280913   2.098   5.228  15.319 -0.3539 -0.0381  0.7103
19833TIP3    H180914   2.055   5.145  15.298  1.8150 -0.6392 -2.1788
19833TIP3    H280915   2.076   5.286  15.246  0.4913  0.9284  1.1853
19834TIP3   OH280916   0.976   4.757  16.923 -0.2864 -0.3139 -0.4382
19834TIP3    H180917   1.043   4.770  16.990 -0.8253 -1.8916  0.4469
19834TIP3    H280918   0.970   4.662  16.912 -1.0795 -0.1383 -1.8511
19835TIP3   OH280919   6.525   2.165  15.747 -0.2032 -0.3574  0.0413
19835TIP3    H180920   6.494   2.203  15.829  4.3481  1.1286  1.3881
19835TIP3    H280921   6.466   2.198  15.681 -1.4413  2.1364  2.2294
19836TIP3   OH280922   5.714   5.676  12.742 -0.2390 -0.6325 -0.0597
19836TIP3    H180923   5.786   5.736  12.725 -1.4245  0.9438  0.1898
19836TIP3    H280924   5.674   5.661  12.656  0.4035 -1.5354 -0.2037
19837TIP3   OH280925   0.857   6.570  12.938  0.3906  0.1327  0.1257
19837TIP3    H180926   0.841   6.664  12.945  0.3856  0.2087 -0.7980
19837TIP3    H280927   0.884   6.557  12.847 -0.0716 -0.8272  0.1136
19838TIP3   OH280928   5.446   4.908   1.569 -0.0538  0.0760 -0.3320
19838TIP3    H180929   5.381   4.975   1.548 -0.7643 -0.1926  0.9018
19838TIP3    H280930   5.405   4.855   1.637  1.9941  0.7895  1.6148
19839TIP3   OH280931   4.856   1.836  17.057 -0.0662 -0.2159  0.1703
19839TIP3    H180932   4.846   1.911  17.117 -0.4274 -0.1120 -0.0127
19839TIP3    H280933   4.835   1.760  17.111  0.2945 -0.1884  0.3568
19840TIP3   OH280934   0.536   5.207  13.819  0.1477 -0.3288 -0.0569
19840TIP3    H180935   0.560   5.148  13.748  1.4806 -1.8435  1.5448
19840TIP3    H280936   0.615   5.258  13.836 -0.3597  0.4857 -0.0611
19841TIP3   OH280937   5.009   5.081  12.554  0.4161  0.3396  0.6131
19841TIP3    H180938   4.917   5.100  12.566  0.4037  1.0666 -0.4259
19841TIP3    H280939   5.040   5.050  12.639 -0.7949  0.0077  0.9416
19842TIP3   OH280940   3.188   6.738   2.530 -0.6185  0.2420  0.5444
19842TIP3    H180941   3.235   6.711   2.608 -0.6595 -0.1976  0.4193
19842TIP3    H280942   3.106   6.776   2.563 -1.4246 -1.5023  0.6726
19843TIP3   OH280943   4.730   1.683   0.923 -0.3854  0.3849  0.4097
19843TIP3    H180944   4.706   1.724   0.840  0.1605 -0.5254 -0.2285
19843TIP3    H280945   4.788   1.746   0.965  1.3227 -0.0970 -1.0461
19844TIP3   OH280946   2.693   4.474  12.880  0.6297  0.3186 -0.1065
19844TIP3    H180947   2.716   4.383  12.897 -0.2395  0.1297  0.0859
19844TIP3    H280948   2.713   4.487  12.787  0.0635 -0.2887 -0.3227
19845TIP3   OH280949   3.507   3.777   4.681  0.2473 -0.8315 -0.3615
19845TIP3    H180950   3.536   3.834   4.752 -0.2494  0.3367 -1.0544
19845TIP3    H280951   3.438   3.723   4.719 -1.0186  0.7794 -0.2912
19846TIP3   OH280952   1.288   3.602   1.042 -0.2872  0.1348 -0.3333
19846TIP3    H180953   1.325   3.688   1.021  0.6918 -0.0965  0.4040
19846TIP3    H280954   1.293   3.553   0.959 -1.3821  0.9544 -0.9075
19847TIP3   OH280955   4.465   2.376  15.648 -0.4823 -0.2788 -0.0881
19847TIP3    H180956   4.408   2.443  15.612  1.8209  1.6106 -0.4534
19847TIP3    H280957   4.453   2.301  15.589 -1.8421  0.3807 -0.6992
19848TIP3   OH280958   5.742   0.652  13.913 -0.1923  0.2361 -0.1910
19848TIP3    H180959   5.684   0.692  13.848 -1.7763 -1.6745 -0.0342
19848TIP3    H280960   5.782   0.578  13.868  0.0001 -0.1057  0.5326
19849TIP3   OH280961   6.510   1.092   1.028  0.1768  0.0505 -0.1849
19849TIP3    H180962   6.557   1.008   1.034  0.9720  0.5648  1.3037
19849TIP3    H280963   6.428   1.076   1.074 -0.3727 -0.3458 -1.2737
19850TIP3   OH280964   0.776   0.510  10.452 -0.2310  0.2617 -0.2690
19850TIP3    H180965   0.769   0.450  10.526  0.5486  0.0113 -0.3911
19850TIP3    H280966   0.838   0.469  10.393 -0.1257  0.9140 -0.6282
19851TIP3   OH280967   0.026   5.605  12.708 -0.0503 -0.1064  0.1899
19851TIP3    H180968   0.020   5.685  12.761  0.0299 -0.4706  0.7609
19851TIP3    H280969  -0.041   5.547  12.745 -0.2512 -0.2276 -0.3577
19852TIP3   OH280970   4.571   6.335   2.410 -0.4232  0.3724 -0.0168
19852TIP3    H180971   4.506   6.300   2.349  1.2770 -0.1807 -1.6022
19852TIP3    H280972   4.594   6.421   2.374 -0.2246  0.5454  0.5057
19853TIP3   OH280973   3.052   0.690   4.849 -0.0231  0.2427  0.0845
19853TIP3    H180974   3.058   0.663   4.757 -0.4007  0.9089 -0.1423
19853TIP3    H280975   2.976   0.749   4.852  0.8615  1.3978  0.5350
19854TIP3   OH280976   6.166   1.418  12.043  0.2814 -0.2708 -0.0188
19854TIP3    H180977   6.093   1.455  12.092 -0.4127 -0.2363 -1.0451
19854TIP3    H280978   6.168   1.326  12.069 -0.8965 -0.5520 -0.8697
19855TIP3   OH280979   5.781   6.055  15.707 -0.1577 -0.2127  0.0614
19855TIP3    H180980   5.692   6.043  15.674 -0.5653  0.8540  0.7210
19855TIP3    H280981   5.818   6.124  15.651 -0.0604 -0.0276  0.3513
19856TIP3   OH280982   5.316   2.719   2.029 -0.1736  0.6022  0.5510
19856TIP3    H180983   5.253   2.678   2.089 -0.8861  2.1680  0.9203
19856TIP3    H280984   5.337   2.803   2.070 -0.8626  1.8194 -1.4796
19857TIP3   OH280985   4.021   2.319  17.163  0.0050 -0.1346  0.4439
19857TIP3    H180986   4.007   2.254  17.094 -1.3250  0.1381  0.4136
19857TIP3    H280987   4.073   2.387  17.121 -0.1004 -0.3549 -0.0556
19858TIP3   OH280988   2.315   0.183  16.440  0.1902  0.1577  0.7959
19858TIP3    H180989   2.256   0.257  16.450  0.2868  0.4352 -0.5556
19858TIP3    H280990   2.298   0.128  16.517 -1.3878  0.5347  0.7465
19859TIP3   OH280991   2.829   1.453  15.722  0.0921 -0.5868 -0.3263
19859TIP3    H180992   2.891   1.462  15.794 -0.6303 -1.0355  0.3640
19859TIP3    H280993   2.756   1.404  15.759 -0.1490 -1.1059 -1.4573
19860TIP3   OH280994   5.625   3.910  16.649 -0.2664 -0.1381 -0.1900
19860TIP3    H180995   5.666   3.849  16.588 -0.0507 -0.4024  0.2178
19860TIP3    H280996   5.669   3.993  16.632  1.5579 -0.7384  1.2829
19861TIP3   OH280997   3.621   0.996  14.892 -0.0209 -0.1990 -0.1126
19861TIP3    H180998   3.691   1.061  14.882  1.7541 -2.0426 -0.4381
19861TIP3    H280999   3.556   1.020  14.826  0.7916  0.9996 -0.5023
19862TIP3   OH281000   6.285   2.103   5.775  0.7212  0.6797  0.2614
19862TIP3    H181001   6.254   2.057   5.853 -0.1934  1.1116  0.1697
19862TIP3    H281002   6.322   2.035   5.720 -1.2097 -0.0896 -0.1692
19863TIP3   OH281003   3.702   5.022  16.814  0.5697 -0.2316 -0.0389
19863TIP3    H181004   3.785   4.982  16.790  0.4293 -0.1982 -0.6039
19863TIP3    H281005   3.649   5.016  16.734  0.2709  0.3595  0.1108
19864TIP3   OH281006   4.599   5.368  12.986 -0.5949 -0.2386 -0.1144
19864TIP3    H181007   4.550   5.348  13.065  0.0922  1.9434  0.9326
19864TIP3    H281008   4.535   5.411  12.929 -1.0474 -1.6659 -0.7361
19865TIP3   OH281009   1.628   6.193  15.037  0.2122 -0.4058 -0.3374
19865TIP3    H181010   1.702   6.149  14.994  1.6299  0.6901  0.9203
19865TIP3    H281011   1.587   6.124  15.090  1.9331 -0.4776  0.9874
19866TIP3   OH281012   1.252   1.334   4.242  0.4068  0.4293 -0.3792
19866TIP3    H181013   1.284   1.380   4.164  1.0217 -2.1870 -1.8055
19866TIP3    H281014   1.286   1.245   4.232  0.0855 -0.1286  2.6811
19867TIP3   OH281015   6.453   4.185   5.657 -0.1349  0.0206  0.2970
19867TIP3    H181016   6.541   4.179   5.621 -0.2115 -0.9464  0.2618
19867TIP3    H281017   6.446   4.111   5.717 -1.6821 -1.2924 -1.3780
19868TIP3   OH281018   5.863   0.284   1.216  0.4955 -0.1402  0.2452
19868TIP3    H181019   5.821   0.223   1.276  1.2384 -0.3858  0.5261
19868TIP3    H281020   5.925   0.230   1.166  0.0708  0.1039 -0.5737
19869TIP3   OH281021   2.645   3.220  16.461 -0.1326  0.2434  0.2181
19869TIP3    H181022   2.683   3.300  16.426  1.4975 -0.2498  0.7701
19869TIP3    H281023   2.609   3.174  16.385  3.2141 -0.7485 -0.9014
19870TIP3   OH281024   0.385   1.531  16.842  0.1964  0.1920  0.2953
19870TIP3    H181025   0.413   1.439  16.834 -0.0835  0.2523 -2.2828
19870TIP3    H281026   0.464   1.578  16.869  0.8780 -0.5727 -0.2994
19871TIP3   OH281027   1.087   3.871   2.664  0.0262 -0.1154 -0.7674
19871TIP3    H181028   1.042   3.792   2.633  0.2175  0.3741 -2.3844
19871TIP3    H281029   1.016   3.933   2.681 -0.0171  0.1943 -1.9788
19872TIP3   OH281030   0.469   2.238  14.880  0.7065 -0.0849  0.2495
19872TIP3    H181031   0.433   2.273  14.962  1.3017  0.5627  0.2430
19872TIP3    H281032   0.550   2.288  14.867  0.7818 -0.4181 -0.5632
19873TIP3   OH281033   3.670   5.856   3.603 -0.4251  0.2328  0.6974
19873TIP3    H181034   3.749   5.909   3.608  0.0136 -0.0114 -1.9536
19873TIP3    H281035   3.598   5.918   3.594 -0.1304  0.4364 -0.3583
19874TIP3   OH281036   5.009   0.000   4.734 -0.2907 -0.2567 -0.2550
19874TIP3    H181037   5.010  -0.010   4.830  1.0954 -1.5440 -0.3609
19874TIP3    H281038   4.930  -0.046   4.706 -2.0122  2.1342  0.3962
19875TIP3   OH281039   3.738   4.336   2.878  0.3074 -0.3594  0.3094
19875TIP3    H181040   3.691   4.389   2.942  1.4904 -0.8718  1.6470
19875TIP3    H281041   3.781   4.268   2.929  0.1615 -1.6483 -1.1921
19876TIP3   OH281042   0.649   3.890   5.785  0.3812 -0.0691 -0.0042
19876TIP3    H181043   0.690   3.889   5.872  0.2188  0.5150  0.0814
19876TIP3    H281044   0.713   3.846   5.728  0.1747 -1.0876  0.5449
19877TIP3   OH281045   4.690   4.956  11.117  0.6281 -0.7862  0.4473
19877TIP3    H181046   4.641   4.878  11.090  0.1338 -1.3186  2.6577
19877TIP3    H281047   4.627   5.028  11.110 -0.1530 -1.2599  2.0388
19878TIP3   OH281048   5.905   0.763  15.282  0.4114 -0.4862 -0.0088
19878TIP3    H181049   5.845   0.826  15.241 -0.2070 -1.8498 -1.2689
19878TIP3    H281050   5.884   0.768  15.375  0.8271  1.6199  0.0347
19879TIP3   OH281051   4.672   1.711   4.974  0.7484 -0.5284 -0.5138
19879TIP3    H181052   4.755   1.758   4.964  0.6998 -0.1759  0.5767
19879TIP3    H281053   4.629   1.721   4.889  1.6699 -0.4303 -0.9897
19880TIP3   OH281054   4.713   2.910  11.029 -0.0237 -0.3564  0.0626
19880TIP3    H181055   4.702   2.826  10.983  1.3025 -1.3736  1.5065
19880TIP3    H281056   4.643   2.965  10.994  0.5365 -1.2303 -2.7423
19881TIP3   OH281057   3.776   0.886   0.956 -0.0813 -0.0103  0.4555
19881TIP3    H181058   3.700   0.860   1.008 -0.9088  1.4921  0.0573
19881TIP3    H281059   3.749   0.874   0.865  0.7000 -0.8430  0.3114
19882TIP3   OH281060   5.431   4.003   2.079  0.0234 -0.1285  0.4096
19882TIP3    H181061   5.431   4.057   1.999  0.3356  0.1330  0.5830
19882TIP3    H281062   5.370   3.932   2.060  0.6478 -0.4781 -0.3428
19883TIP3   OH281063   2.990   4.269  17.112 -0.1284 -0.0059 -0.1423
19883TIP3    H181064   3.055   4.312  17.168  1.5264 -1.6884 -0.6583
19883TIP3    H281065   3.036   4.255  17.029 -1.6566  0.0697 -1.0256
19884TIP3   OH281066   0.622   6.427  11.015  0.2113  0.0755 -0.0416
19884TIP3    H181067   0.563   6.501  10.995  0.3211 -0.0368 -0.7981
19884TIP3    H281068   0.614   6.369  10.939  0.9761 -0.1527  0.0509
19885TIP3   OH281069   2.429   1.462   4.607  0.2056 -0.2793 -0.4144
19885TIP3    H181070   2.520   1.487   4.622  0.1999 -0.8745  0.7452
19885TIP3    H281071   2.394   1.446   4.695 -0.2516 -2.6364 -0.9472
19886TIP3   OH281072   4.440   6.623  14.177 -0.0424  0.3026 -0.3163
19886TIP3    H181073   4.518   6.619  14.232  0.4964 -1.0302 -1.1063
19886TIP3    H281074   4.445   6.543  14.124 -2.4647 -0.3356  0.2987
19887TIP3   OH281075   5.888   5.447  15.966  0.0595 -0.2596 -0.7591
19887TIP3    H181076   5.914   5.361  15.997 -1.0962 -1.1053 -2.0361
19887TIP3    H281077   5.941   5.508  16.017 -0.9951 -1.5816  2.1306
19888TIP3   OH281078   3.881   3.353   4.474  0.1176  0.1277 -0.3868
19888TIP3    H181079   3.894   3.260   4.456  1.1551 -0.4907  2.9415
19888TIP3    H281080   3.809   3.356   4.537  1.6020  1.2804  1.3570
19889TIP3   OH281081   2.718   4.669  17.052 -0.2860 -0.7149  0.3203
19889TIP3    H181082   2.728   4.577  17.075  1.3561 -0.8843 -0.8682
19889TIP3    H281083   2.625   4.688  17.065 -0.7938 -2.7345 -0.1179
19890TIP3   OH281084   2.438   3.872   5.971 -0.2503  0.8622 -0.3263
19890TIP3    H181085   2.515   3.910   5.930  0.4795 -0.3316 -0.0787
19890TIP3    H281086   2.425   3.924   6.050  0.9740  0.3563  0.2153
19891TIP3   OH281087   5.885   5.974   4.917 -0.1067  0.4291  0.0787
19891TIP3    H181088   5.912   5.966   5.009  0.8524  0.7899 -0.1588
19891TIP3    H281089   5.812   6.035   4.919 -1.7476 -1.4429  0.8725
19892TIP3   OH281090   3.886   4.308  13.461 -0.2266 -0.6246  0.2153
19892TIP3    H181091   3.931   4.392  13.475  0.0367 -0.7770  0.2956
19892TIP3    H281092   3.957   4.245  13.445 -0.4931 -0.3791 -2.4376
19893TIP3   OH281093   4.934   2.044   2.844 -0.3251 -0.2430  0.6334
19893TIP3    H181094   5.024   2.077   2.853 -0.0110 -0.0352 -2.3896
19893TIP3    H281095   4.879   2.118   2.870  0.4136  0.9807 -1.1204
19894TIP3   OH281096   4.918   0.483   3.710  0.0824  0.0669 -0.3062
19894TIP3    H181097   4.922   0.509   3.802  0.0055  0.0565 -0.3000
19894TIP3    H281098   4.843   0.532   3.674  0.2568  0.2491 -0.4192
19895TIP3   OH281099   2.462   1.381   2.009  0.5263  0.5289 -0.0548
19895TIP3    H181100   2.441   1.404   1.919  0.0524 -0.3146 -0.1719
19895TIP3    H281101   2.522   1.307   2.002 -0.2710 -0.1664  0.3213
19896TIP3   OH281102   3.940   3.719  11.925  0.1657  0.8152  0.0430
19896TIP3    H181103   3.927   3.750  11.835 -2.9014  0.7709  0.3525
19896TIP3    H281104   3.909   3.628  11.924 -0.8933  1.1304  1.3222
19897TIP3   OH281105   4.829   5.314   0.297  0.2557  0.0130  0.4556
19897TIP3    H181106   4.878   5.386   0.257  0.4009 -0.9398 -1.1539
19897TIP3    H281107   4.743   5.317   0.254  0.2611 -0.7653  0.3796
19898TIP3   OH281108   3.287   5.245  15.377  0.2178 -0.6955 -0.3864
19898TIP3    H181109   3.344   5.290  15.315 -2.2996 -0.5182 -2.7894
19898TIP3    H281110   3.208   5.225  15.327 -0.1980 -4.7941  1.4846
19899TIP3   OH281111   6.676   6.419  15.083  0.0512  0.4446 -0.0434
19899TIP3    H181112   6.665   6.324  15.094 -2.3369  0.8630  2.5630
19899TIP3    H281113   6.629   6.439  15.003  2.0233 -0.6960 -1.5790
19900TIP3   OH281114   1.794   1.255  13.000  0.4873 -0.1645  0.0813
19900TIP3    H181115   1.871   1.261  12.943 -1.1537  1.8115 -2.1621
19900TIP3    H281116   1.796   1.335  13.052  0.5947 -0.7227  0.9522
19901TIP3   OH281117   5.523   2.421   1.290  0.1708  0.0031  0.0967
19901TIP3    H181118   5.461   2.348   1.287  0.2671 -0.0627 -1.8661
19901TIP3    H281119   5.573   2.413   1.209  0.4993  1.9668  0.0531
19902TIP3   OH281120   3.698   1.734   2.971 -0.4388 -0.6120  0.1312
19902TIP3    H181121   3.629   1.720   2.905  1.2666 -0.4631 -1.7699
19902TIP3    H281122   3.727   1.824   2.958 -1.5817  0.2372  2.6988
19903TIP3   OH281123   3.834   6.074   2.096 -0.2285 -0.3876  0.5850
19903TIP3    H181124   3.768   6.111   2.038  0.0247  1.9339  1.6125
19903TIP3    H281125   3.828   6.128   2.175 -0.7861 -3.5733  2.9241
19904TIP3   OH281126   4.938   0.836   6.350  0.2579 -0.1133  0.3862
19904TIP3    H181127   4.923   0.930   6.364  1.3142  0.3109 -1.0084
19904TIP3    H281128   5.033   0.826   6.361  0.3439 -0.7404 -0.7771
19905TIP3   OH281129   3.616   3.709   4.283  0.1064  0.1315  0.1069
19905TIP3    H181130   3.532   3.754   4.291 -0.1140 -0.4944  1.5191
19905TIP3    H281131   3.681   3.771   4.316 -0.2884 -0.7839  2.8694
19906TIP3   OH281132   1.694   0.486  15.072  0.4846 -0.4110  0.0515
19906TIP3    H181133   1.760   0.445  15.126 -0.0642 -3.1151 -1.1511
19906TIP3    H281134   1.715   0.458  14.983 -1.1258  0.2953 -0.5938
19907TIP3   OH281135   3.870   1.985  17.083  0.0556 -0.2949 -0.0338
19907TIP3    H181136   3.953   2.025  17.059  0.3537 -1.5840 -1.3236
19907TIP3    H281137   3.829   2.047  17.142  1.9579  0.3439  0.6811
19908TIP3   OH281138   1.798   2.882  16.499  0.5625  0.0807 -0.4905
19908TIP3    H181139   1.847   2.920  16.573  0.7850 -0.2723 -0.4511
19908TIP3    H281140   1.866   2.859  16.436  0.3409  0.7493 -0.9837
19909TIP3   OH281141   0.971   5.301   3.272 -0.0415 -0.0626  0.0697
19909TIP3    H181142   0.952   5.356   3.349 -0.6236 -1.4819  0.9820
19909TIP3    H281143   1.063   5.316   3.253 -0.0260  0.7161  0.7176
19910TIP3   OH281144   4.766   4.649  10.464  0.7213  0.0565  0.0711
19910TIP3    H181145   4.844   4.603  10.434  0.9993  0.7104 -0.2379
19910TIP3    H281146   4.778   4.658  10.559  0.4719 -0.8477  0.1972
19911TIP3   OH281147   1.170   1.212  13.767  0.2522  0.2536 -0.2231
19911TIP3    H181148   1.080   1.181  13.781 -0.0303  0.9480 -0.4345
19911TIP3    H281149   1.196   1.172  13.684 -0.0693  0.4867 -0.4409
19912TIP3   OH281150   6.142   5.261   4.161  0.3121 -0.1126  0.5378
19912TIP3    H181151   6.215   5.293   4.214  0.7025  0.4873 -0.3360
19912TIP3    H281152   6.098   5.341   4.130  1.0036 -0.3919 -1.2706
19913TIP3   OH281153   0.192   3.895   4.224 -0.6500 -0.0580  0.0287
19913TIP3    H181154   0.127   3.932   4.284 -2.0642 -1.8620 -0.3055
19913TIP3    H281155   0.157   3.913   4.137 -1.0254 -1.5209 -0.1468
19914TIP3   OH281156   0.772   4.305  12.201 -0.0810  0.0832 -0.0179
19914TIP3    H181157   0.851   4.260  12.232  0.4860  1.1420  0.1259
19914TIP3    H281158   0.801   4.357  12.126 -0.7623  0.0519 -0.3135
19915TIP3   OH281159   4.324   5.009  13.282  0.9085  0.0155 -0.0295
19915TIP3    H181160   4.346   5.018  13.189  0.3276  0.9230 -0.0932
19915TIP3    H281161   4.260   4.938  13.285 -0.1712  0.9465 -0.5212
19916TIP3   OH281162   2.347   1.958  15.200 -0.0374 -0.1443 -0.8786
19916TIP3    H181163   2.412   1.920  15.142  0.6651  0.7554 -0.7063
19916TIP3    H281164   2.325   1.889  15.262  1.2681 -0.2543 -0.5230
19917TIP3   OH281165   6.486   0.642   2.124  0.6240 -0.0637  0.0861
19917TIP3    H181166   6.424   0.713   2.107 -0.3893 -1.0671 -0.5481
19917TIP3    H281167   6.521   0.662   2.211 -0.6071  0.5241  0.4834
19918TIP3   OH281168   6.195   0.660   4.663 -0.2400  0.0438 -0.2664
19918TIP3    H181169   6.245   0.694   4.588 -0.7990 -3.7494 -2.6469
19918TIP3    H281170   6.258   0.656   4.734  0.7884  2.1762 -0.9694
19919TIP3   OH281171   2.209   2.166  11.470  0.0195 -0.3341 -0.2422
19919TIP3    H181172   2.240   2.242  11.520 -0.5582  1.3677 -2.3392
19919TIP3    H281173   2.288   2.128  11.432  0.2437 -0.3702  0.2552
19920TIP3   OH281174   4.057   6.197   2.749 -0.4144  0.1817 -0.0920
19920TIP3    H181175   4.049   6.177   2.843  0.9614  0.8449  0.2058
19920TIP3    H281176   3.969   6.189   2.715 -1.2672  1.5517  1.6051
19921TIP3   OH281177   2.638   2.499   2.892 -0.3611  0.7119 -0.1550
19921TIP3    H181178   2.636   2.590   2.862 -2.3507  0.4351 -1.0586
19921TIP3    H281179   2.659   2.448   2.815  0.6803  0.3855  0.3353
19922TIP3   OH281180   3.438   5.292   0.437  0.0299 -0.1862 -0.0230
19922TIP3    H181181   3.377   5.222   0.459 -0.7655  0.3905 -0.3660
19922TIP3    H281182   3.474   5.321   0.520  0.2597 -0.9031  0.1328
19923TIP3   OH281183   3.932   3.356   6.125 -0.0366 -0.1598 -0.2370
19923TIP3    H181184   3.856   3.306   6.155 -0.1246 -0.7999 -1.4639
19923TIP3    H281185   3.902   3.400   6.045  0.9064 -0.5297 -0.8062
19924TIP3   OH281186   0.473   5.032  12.170  0.1285  0.2216  0.2210
19924TIP3    H181187   0.448   5.095  12.102 -0.8129  0.4093  0.7338
19924TIP3    H281188   0.522   4.965  12.123  0.4013  0.8888 -0.4717
19925TIP3   OH281189   4.737   1.633   1.379  0.2167  0.1199  0.1864
19925TIP3    H181190   4.830   1.609   1.376  0.2681  0.3274  0.1232
19925TIP3    H281191   4.733   1.704   1.443 -0.0525 -0.5789  0.9792
19926TIP3   OH281192   2.379   3.553   1.441  0.2878 -0.3121 -0.6700
19926TIP3    H181193   2.433   3.474   1.445 -0.2357 -0.6583 -0.2410
19926TIP3    H281194   2.327   3.550   1.522 -0.5809 -0.1486 -1.2120
19927TIP3   OH281195   1.479   0.624   0.849 -0.1397  0.0737 -0.3044
19927TIP3    H181196   1.445   0.644   0.761 -0.6026 -0.5638 -0.2710
19927TIP3    H281197   1.573   0.610   0.835 -0.1742  0.1759 -0.6662
19928TIP3   OH281198   6.666   4.254  16.840  0.1556  0.0418 -0.2063
19928TIP3    H181199   6.592   4.301  16.875 -0.0138 -1.5024  1.6663
19928TIP3    H281200   6.686   4.187  16.905  2.7168 -0.0965 -0.9958
19929TIP3   OH281201   5.654   3.370  16.025 -0.0724  0.1107 -0.0348
19929TIP3    H181202   5.562   3.393  16.012 -0.0800  0.5354  0.7116
19929TIP3    H281203   5.656   3.322  16.108 -0.2394 -3.8518 -2.0878
19930TIP3   OH281204   5.016   6.715  11.139  0.1469 -0.0414 -0.6744
19930TIP3    H181205   4.932   6.760  11.146 -0.5109 -0.4387 -4.0342
19930TIP3    H281206   5.082   6.781  11.162 -0.9773  1.0311 -0.4439
19931TIP3   OH281207   2.560   6.137   5.194 -0.3202  0.0621 -0.3558
19931TIP3    H181208   2.471   6.139   5.229 -0.5806  0.9788 -1.0401
19931TIP3    H281209   2.577   6.227   5.168 -0.0322 -0.5243 -2.3389
19932TIP3   OH281210   5.771   1.611   6.161  0.5193  0.3078  0.2438
19932TIP3    H181211   5.777   1.519   6.186 -0.2778 -0.8255 -3.2446
19932TIP3    H281212   5.858   1.647   6.181  1.6412 -1.8492 -0.5030
19933TIP3   OH281213   4.155   2.116  14.154  0.2837  0.0713 -0.2040
19933TIP3    H181214   4.130   2.208  14.162  3.1653  0.9321  0.0550
19933TIP3    H281215   4.158   2.083  14.244 -1.6920 -0.6423 -0.3425
19934TIP3   OH281216   3.436   3.164   5.342  0.5264 -0.0457  0.3619
19934TIP3    H181217   3.406   3.202   5.425 -1.2477 -2.2941  0.8218
19934TIP3    H281218   3.376   3.199   5.276 -1.0644 -1.9012  0.7748
19935TIP3   OH281219   3.443   1.844  10.805  0.4933 -0.4189 -0.4080
19935TIP3    H181220   3.425   1.937  10.813  1.0041 -0.3441 -0.1021
19935TIP3    H281221   3.372   1.810  10.751 -0.3743 -0.0708  0.5016
19936TIP3   OH281222   6.614   2.923  16.052  0.0254  0.8060  0.0525
19936TIP3    H181223   6.672   2.962  16.118  0.8883  1.6031 -1.1403
19936TIP3    H281224   6.621   2.828  16.066 -0.6135  0.9641  1.7451
19937TIP3   OH281225   2.318   4.159   1.600  0.0159 -0.0925 -0.3882
19937TIP3    H181226   2.373   4.228   1.640  0.3549 -0.2951 -0.4982
19937TIP3    H281227   2.316   4.090   1.666 -0.9082  0.3079  0.0142
19938TIP3   OH281228   4.119   5.984  14.132  0.8770 -0.0701  0.3196
19938TIP3    H181229   4.105   5.904  14.181  0.6307  0.8052  1.7280
19938TIP3    H281230   4.131   6.052  14.199 -2.1219  1.6890 -0.7259
19939CLA    CLA81231   6.148   6.796   5.549  0.0519  0.0992  0.0661
19940LIG     O181232   3.608   3.201  16.216 -0.4174 -0.0158  0.4682
19940LIG     O281233   3.712   3.287  16.037 -0.1989 -0.1781 -0.1489
19940LIG     O381234   3.934   3.091  16.246 -0.3441 -0.3026  0.2624
19940LIG     O481235   3.341   3.396  16.951 -0.5560  0.4962 -0.5932
19940LIG      N81236   3.216   3.192  16.188  0.4041 -1.0391 -0.4066
19940LIG     C181237   3.281   3.287  16.085  0.0612 -0.2689 -0.4354
19940LIG     C281238   3.281   3.061  16.149 -0.8282 -0.7295 -0.2605
19940LIG     C381239   3.245   3.208  15.958 -0.4237 -0.3441  0.6299
19940LIG     C481240   3.260   3.063  15.994 -0.0219  0.3842  0.7807
19940LIG     C581241   3.435   3.303  16.097  1.0276  0.2389  0.1756
19940LIG     C681242   3.426   3.051  16.185  0.2015 -0.4600 -0.6752
19940LIG     C781243   3.507   3.170  16.123  0.1752 -0.0966  0.2717
19940LIG     C881244   3.250   3.244  16.324  0.4604 -0.5140  0.1129
19940LIG     C981245   3.066   3.185  16.170  0.2441 -0.5062  0.8777
19940LIG    C1081246   3.223   3.146  16.446  0.1782  0.6604  0.2407
19940LIG    C1181247   3.262   3.205  16.575  0.3544 -0.9169 -0.1619
19940LIG    C1281248   3.712   3.265  16.157  0.7494 -0.1440  0.0051
19940LIG    C1381249   3.186   3.319  16.616  0.2600 -0.0922  0.0184
19940LIG    C1481250   3.374   3.177  16.647  0.4721 -0.2835  0.1678
19940LIG    C1581251   3.823   3.309  16.254 -0.0208 -0.3785  0.6688
19940LIG    C1681252   3.216   3.387  16.739  0.3749  0.0372 -0.1239
19940LIG    C1781253   3.409   3.242  16.767  0.3182  0.1039  0.3722
19940LIG    C1881254   3.875   3.189  16.337  0.4432  0.1914 -1.0050
19940LIG    C1981255   3.760   3.413  16.339 -0.1421 -0.2151  1.3931
19940LIG    C2081256   3.322   3.340  16.825  0.2716  0.3520  0.5185
19940LIG    C2181257   3.817   3.541  16.340 -0.4507 -0.6010 -1.2142
19940LIG    C2281258   3.654   3.385  16.428  0.1388 -0.4002 -0.0335
19940LIG    C2381259   3.763   3.637  16.434  0.0433  0.8462 -0.4949
19940LIG    C2481260   3.604   3.479  16.512  0.2663  0.4366 -0.1077
19940LIG    C2581261   3.462   3.379  17.015 -0.4855 -0.0510  0.0002
19940LIG    C2681262   3.663   3.605  16.521 -0.0863  0.2624  0.6004
19940LIG    C2781263   3.457   3.475  17.140  0.5594 -0.1009 -0.1061
19940LIG    C2881264   3.596   3.506  17.196  0.3144 -0.3090 -0.2594
19940LIG    C2981265   3.651   3.392  17.279  0.7084  0.2871 -0.6212
19940LIG     H181266   3.223   3.382  16.090  0.3542 -0.1132  0.0198
19940LIG     H281267   3.218   2.985  16.201  0.4838 -1.8641 -0.2622
19940LIG     H381268   3.315   3.232  15.876 -0.7527  1.6159  0.8587
19940LIG     H481269   3.152   3.230  15.904  0.4997  1.2847 -0.4067
19940LIG     H581270   3.173   2.998  15.974  1.1213 -1.0922  0.4001
19940LIG     H681271   3.347   3.014  15.948  0.2369  3.6118 -2.6275
19940LIG     H781272   3.458   3.382  16.171 -0.2122 -0.8557  1.8288
19940LIG     H881273   3.481   3.346  16.006  1.1090  0.8223  0.4907
19940LIG     H981274   3.463   2.959  16.136 -0.4950 -0.3162 -1.4942
19940LIG    H1081275   3.445   3.052  16.295  1.6149 -0.0668 -0.9007
19940LIG    H1181276   3.553   3.129  16.031  2.0746 -0.2838  1.2425
19940LIG    H1281277   3.198   3.336  16.347 -1.4606 -2.0379  2.2411
19940LIG    H1381278   3.353   3.273  16.339 -0.3648  2.0133  1.4700
19940LIG    H1481279   3.003   3.267  16.202 -1.5134 -0.9012 -1.2974
19940LIG    H1581280   3.023   3.101  16.224 -3.2971  0.9031  0.5729
19940LIG    H1681281   3.036   3.171  16.068  1.6121  0.0873  0.3793
19940LIG    H1781282   3.289   3.059  16.425  0.9800  1.9107 -3.0896
19940LIG    H1881283   3.120   3.106  16.456  0.4723 -0.2619 -0.2951
19940LIG    H1981284   3.111   3.365  16.554 -0.4963 -1.4197 -0.0874
19940LIG    H2081285   3.434   3.093  16.614  1.8428  0.5715  0.4304
19940LIG    H2181286   3.909   3.343  16.193  1.4537 -4.9194 -0.1693
19940LIG    H2281287   3.162   3.474  16.773 -1.2583 -1.2041  0.6530
19940LIG    H2381288   3.505   3.215  16.810 -1.4490 -3.4289  2.5774
19940LIG    H2481289   3.947   3.226  16.413 -0.6133  2.5604 -1.0538
19940LIG    H2581290   3.796   3.131  16.388  2.2144 -2.8684 -1.4588
19940LIG    H2681291   3.901   3.563  16.277  0.9285  2.6814  1.4571
19940LIG    H2781292   3.629   3.280  16.439  1.1472 -0.6017  0.3949
19940LIG    H2881293   4.005   3.143  16.207  0.1362  0.5615  2.1716
19940LIG    H2981294   3.813   3.732  16.438  0.5890  0.5243  0.6456
19940LIG    H3081295   3.534   3.450  16.589  1.7603 -0.0987  1.1110
19940LIG    H3181296   3.535   3.417  16.941 -1.3481  2.2661  0.2554
19940LIG    H3281297   3.481   3.272  17.038 -2.2680 -0.3803  0.1438
19940LIG    H3381298   3.619   3.689  16.574  2.3736  1.9217  0.1645
19940LIG    H3481299   3.380   3.438  17.211 -0.0574  1.8964  0.3530
19940LIG    H3581300   3.410   3.570  17.108  0.3819  0.8611  2.6980
19940LIG    H3681301   3.589   3.600  17.254 -0.9914 -0.4321 -0.1818
19940LIG    H3781302   3.664   3.521  17.110 -0.0714  1.4003 -0.2946
19940LIG    H3881303   3.760   3.399  17.302  0.6820 -0.4847 -0.2602
19940LIG    H3981304   3.631   3.295  17.229 -1.7427 -1.0828  2.6611
19940LIG    H4081305   3.592   3.375  17.371 -0.1944  2.3287 -0.7594
   6.80145   6.80145  17.16569
